* GENERATED BY CHARMM-GUI (HTTP://WWW.CHARMM-GUI.ORG) V3.7 ON MAY, 16. 2026. JOB
* GET A DIFFERENT CONFORMATION FOR LIPIDS PENETRATING PROTEIN / CHOL
*  DATE:     5/16/26      3: 9:31      CREATED BY USER: charmm-gui
*
     51515  EXT
         1         1  ECLIPA    HB6S            0.0625999989        5.5351261270       20.4612168218  LPSA1     1               0.0000000000
         2         1  ECLIPA    OB6             1.4931634621        4.8673286011       21.7140249152  LPSA1     1               0.0000000000
         3         1  ECLIPA    CB6             1.0440867786        5.8418889205       20.7042159014  LPSA1     1               0.0000000000
         4         1  ECLIPA    HB6R            1.1775828468        6.8491944456       21.0541931349  LPSA1     1               0.0000000000
         5         1  ECLIPA    CB5             1.9452546461        5.8154421209       19.3988764877  LPSA1     1               0.0000000000
         6         1  ECLIPA    OB5             1.9269077455        4.3942026765       18.9716901872  LPSA1     1               0.0000000000
         7         1  ECLIPA    HB5             2.9584466069        6.0476243828       19.7771798410  LPSA1     1               0.0000000000
         8         1  ECLIPA    CB1             2.7183108160        4.2315233982       17.7717324898  LPSA1     1               0.0000000000
         9         1  ECLIPA    HB1             3.7847525482        4.5197206645       17.9003641080  LPSA1     1               0.0000000000
        10         1  ECLIPA    OA6             2.6550955446        2.9116329897       17.3217246577  LPSA1     1               0.0000000000
        11         1  ECLIPA    CA6             1.4686238550        2.1291998273       17.5745106853  LPSA1     1               0.0000000000
        12         1  ECLIPA    HA6R            0.6182278008        2.8253142548       17.7226451425  LPSA1     1               0.0000000000
        13         1  ECLIPA    HA6S            1.7032164246        1.4132048538       18.4598965841  LPSA1     1               0.0000000000
        14         1  ECLIPA    CB4             1.4234445693        6.7852503384       18.3206521937  LPSA1     1               0.0000000000
        15         1  ECLIPA    HB4             0.3897287427        6.5267136868       18.0085584641  LPSA1     1               0.0000000000
        16         1  ECLIPA    OB4             1.6912505590        8.0802317771       18.9017319965  LPSA1     1               0.0000000000
        17         1  ECLIPA    PB              0.4608957998        9.0290172114       19.3234616795  LPSA1     1               0.0000000000
        18         1  ECLIPA    OPB4            0.9108707108        9.8322908350       20.5579515876  LPSA1     1               0.0000000000
        19         1  ECLIPA    OPB3           -0.6218932443        7.9754801570       19.6614545037  LPSA1     1               0.0000000000
        20         1  ECLIPA    OPB2            0.0708176229        9.8463665461       18.0829495795  LPSA1     1               0.0000000000
        21         1  ECLIPA    CB3             2.2870651896        6.5544828773       17.0955893951  LPSA1     1               0.0000000000
        22         1  ECLIPA    OB3             1.9129506005        7.2922044506       15.9186528231  LPSA1     1               0.0000000000
        23         1  ECLIPA    HB3             3.3930683599        6.6256974023       17.3284540628  LPSA1     1               0.0000000000
        24         1  ECLIPA    C71             2.4819602700        8.4290093014       15.6929469039  LPSA1     1               0.0000000000
        25         1  ECLIPA    O71             3.4193254736        8.8922548223       16.3832172580  LPSA1     1               0.0000000000
        26         1  ECLIPA    C72             1.9214485553        8.9782820980       14.3548430386  LPSA1     1               0.0000000000
        27         1  ECLIPA    H72R            2.1067442961        8.2389914502       13.5774555414  LPSA1     1               0.0000000000
        28         1  ECLIPA    H72S            2.3927691291       10.0294298746       14.1464415926  LPSA1     1               0.0000000000
        29         1  ECLIPA    CB2             2.1743443872        5.0764775911       16.6720734084  LPSA1     1               0.0000000000
        30         1  ECLIPA    HB2             1.0193191551        4.8694023932       16.5298168153  LPSA1     1               0.0000000000
        31         1  ECLIPA    NB2             2.9576615298        4.7635818580       15.4577284722  LPSA1     1               0.0000000000
        32         1  ECLIPA    HNB2            3.9229274590        4.5466612382       15.5965609326  LPSA1     1               0.0000000000
        33         1  ECLIPA    CA4             2.4064798965        0.6427339635       15.7929312798  LPSA1     1               0.0000000000
        34         1  ECLIPA    HA4             3.1410864411        1.4319372167       15.4903430209  LPSA1     1               0.0000000000
        35         1  ECLIPA    OA4             2.9549637385       -0.1512753103       16.8012065728  LPSA1     1               0.0000000000
        36         1  ECLIPA    HOA4            3.0373930597        0.2977832926       17.5928838569  LPSA1     1               0.0000000000
        37         1  ECLIPA    CA5             1.2084564881        1.2863376341       16.3547806008  LPSA1     1               0.0000000000
        38         1  ECLIPA    HA5             0.2903220525        0.6036844230       16.5880746347  LPSA1     1               0.0000000000
        39         1  ECLIPA    OA5             0.7031850365        2.1974423724       15.3689671688  LPSA1     1               0.0000000000
        40         1  ECLIPA    CA1             0.3848419876        1.5086023127       14.1076640156  LPSA1     1               0.0000000000
        41         1  ECLIPA    HA1             0.3441964235        2.3915544538       13.4118188108  LPSA1     1               0.0000000000
        42         1  ECLIPA    OA1            -0.8715865803        0.8601845439       14.1359876212  LPSA1     1               0.0000000000
        43         1  ECLIPA    OPA2           -2.4334297136        0.8229967529       15.9734101064  LPSA1     1               0.0000000000
        44         1  ECLIPA    OPA3           -1.9691922219        3.0539647848       14.8300177673  LPSA1     1               0.0000000000
        45         1  ECLIPA    OPA4           -3.2602604335        1.3272597353       13.6615320840  LPSA1     1               0.0000000000
        46         1  ECLIPA    PA             -2.1668225889        1.5743714748       14.6765383084  LPSA1     1               0.0000000000
        47         1  ECLIPA    CA3             2.1344522386       -0.1490754245       14.5219348229  LPSA1     1               0.0000000000
        48         1  ECLIPA    HA3             1.4193976869       -1.0365115838       14.7377032538  LPSA1     1               0.0000000000
        49         1  ECLIPA    OA3             3.3619447994       -0.8007483658       14.2498111976  LPSA1     1               0.0000000000
        50         1  ECLIPA    C31             4.2685561072       -0.0956520653       13.5006246295  LPSA1     1               0.0000000000
        51         1  ECLIPA    O31             4.2393665464        0.0683308592       12.2941239937  LPSA1     1               0.0000000000
        52         1  ECLIPA    C32             5.5893644342       -0.0007665943       14.2780289507  LPSA1     1               0.0000000000
        53         1  ECLIPA    H32R            6.3634697562       -0.5555857752       13.7149713840  LPSA1     1               0.0000000000
        54         1  ECLIPA    H32S            5.4655211069       -0.4209695013       15.2729523512  LPSA1     1               0.0000000000
        55         1  ECLIPA    CA2             1.5884708514        0.8280389928       13.4984733916  LPSA1     1               0.0000000000
        56         1  ECLIPA    HA2             2.3191614630        1.6348334264       13.3982259915  LPSA1     1               0.0000000000
        57         1  ECLIPA    NA2             1.2495015205        0.2007407613       12.2035087571  LPSA1     1               0.0000000000
        58         1  ECLIPA    HNA2            1.5449358309       -0.7165374162       12.0865030408  LPSA1     1               0.0000000000
        59         1  ECLIPA    C73             0.4365831266        9.2334391548       14.3319064372  LPSA1     1               0.0000000000
        60         1  ECLIPA    H73R            0.0801327226        9.7371836027       15.2227416964  LPSA1     1               0.0000000000
        61         1  ECLIPA    O73            -0.2020960706        7.9342411436       14.2644256719  LPSA1     1               0.0000000000
        62         1  ECLIPA    C81            -1.3695062768        7.6298271561       14.8555734565  LPSA1     1               0.0000000000
        63         1  ECLIPA    O81            -1.8787170070        8.4632006183       15.6690894779  LPSA1     1               0.0000000000
        64         1  ECLIPA    C82            -1.9339409889        6.2862575452       14.3536111794  LPSA1     1               0.0000000000
        65         1  ECLIPA    H82R           -2.8632409896        6.0316256300       14.8531840528  LPSA1     1               0.0000000000
        66         1  ECLIPA    H82S           -1.2187865094        5.4506251765       14.5323473422  LPSA1     1               0.0000000000
        67         1  ECLIPA    C83            -2.1740017865        6.3535204408       12.8301722806  LPSA1     1               0.0000000000
        68         1  ECLIPA    H83R           -1.2020023120        6.1697397839       12.2351841548  LPSA1     1               0.0000000000
        69         1  ECLIPA    H83S           -2.4137378133        7.3911238490       12.5911296392  LPSA1     1               0.0000000000
        70         1  ECLIPA    C84            -3.1539428364        5.2843427441       12.3050927261  LPSA1     1               0.0000000000
        71         1  ECLIPA    H84R           -4.1725978392        5.5872758256       12.5767117503  LPSA1     1               0.0000000000
        72         1  ECLIPA    H84S           -2.7985750809        4.3731576543       12.7369555497  LPSA1     1               0.0000000000
        73         1  ECLIPA    C85            -3.0482461841        5.1354944618       10.7695484051  LPSA1     1               0.0000000000
        74         1  ECLIPA    H85R           -1.9727056477        5.1412792154       10.5503608829  LPSA1     1               0.0000000000
        75         1  ECLIPA    H85S           -3.4664486913        6.0432301447       10.2367999955  LPSA1     1               0.0000000000
        76         1  ECLIPA    C86            -3.6056777503        3.7618893060       10.3034592726  LPSA1     1               0.0000000000
        77         1  ECLIPA    H86R           -4.7025244145        3.7982578493        9.9932223571  LPSA1     1               0.0000000000
        78         1  ECLIPA    H86S           -3.5443130822        3.0233227261       11.0807540114  LPSA1     1               0.0000000000
        79         1  ECLIPA    C87            -2.7420498154        3.1265855788        9.1601018854  LPSA1     1               0.0000000000
        80         1  ECLIPA    H87R           -3.1780139669        2.1984149774        8.8049419625  LPSA1     1               0.0000000000
        81         1  ECLIPA    H87S           -1.7239562200        2.8419468334        9.5406723883  LPSA1     1               0.0000000000
        82         1  ECLIPA    C88            -2.4954336467        4.0974713375        8.0318999685  LPSA1     1               0.0000000000
        83         1  ECLIPA    H88R           -1.7282072607        4.8777084683        8.3479828359  LPSA1     1               0.0000000000
        84         1  ECLIPA    H88S           -3.3877492505        4.7805879316        7.9254521495  LPSA1     1               0.0000000000
        85         1  ECLIPA    C89            -1.9690482930        3.4478808476        6.7101000712  LPSA1     1               0.0000000000
        86         1  ECLIPA    H89R           -1.5601158176        2.4276962570        6.8746682686  LPSA1     1               0.0000000000
        87         1  ECLIPA    H89S           -1.1739308716        3.9868347449        6.2317001698  LPSA1     1               0.0000000000
        88         1  ECLIPA    C810           -3.1334797330        3.4039944353        5.7047246593  LPSA1     1               0.0000000000
        89         1  ECLIPA    H810R          -3.7218973520        4.2881592407        6.0108430704  LPSA1     1               0.0000000000
        90         1  ECLIPA    H810S          -3.6970769284        2.5034151693        5.8554647029  LPSA1     1               0.0000000000
        91         1  ECLIPA    C811           -2.7445423605        3.4781091347        4.2179945741  LPSA1     1               0.0000000000
        92         1  ECLIPA    H811R          -3.4490959695        3.1425653538        3.5081125689  LPSA1     1               0.0000000000
        93         1  ECLIPA    H811S          -1.7405485583        2.9117061963        4.1819101877  LPSA1     1               0.0000000000
        94         1  ECLIPA    C812           -2.2535783786        4.8538539164        3.7413673409  LPSA1     1               0.0000000000
        95         1  ECLIPA    H812R          -1.8464359263        4.7097431289        2.6403157337  LPSA1     1               0.0000000000
        96         1  ECLIPA    H812S          -1.5526101103        5.3315359633        4.4144737196  LPSA1     1               0.0000000000
        97         1  ECLIPA    C813           -3.3500685540        5.9331198563        3.6785234959  LPSA1     1               0.0000000000
        98         1  ECLIPA    H813R          -4.1045139732        5.5724227643        2.9398073555  LPSA1     1               0.0000000000
        99         1  ECLIPA    H813S          -3.9199207627        6.1302854609        4.6616087352  LPSA1     1               0.0000000000
       100         1  ECLIPA    C814           -2.8642173857        7.2620712367        3.1377409857  LPSA1     1               0.0000000000
       101         1  ECLIPA    H814R          -2.2028045676        7.2182434970        2.1719074593  LPSA1     1               0.0000000000
       102         1  ECLIPA    H814S          -2.2861300106        7.7775799592        3.9166242729  LPSA1     1               0.0000000000
       103         1  ECLIPA    H814T          -3.7231830945        7.9288041295        2.8964685373  LPSA1     1               0.0000000000
       104         1  ECLIPA    C74            -0.1604931335       10.0057319871       13.1792855021  LPSA1     1               0.0000000000
       105         1  ECLIPA    H74R            0.1557604159       11.0306597604       12.9935747315  LPSA1     1               0.0000000000
       106         1  ECLIPA    H74S           -1.3126156993       10.0410667182       13.3086690609  LPSA1     1               0.0000000000
       107         1  ECLIPA    C75            -0.0126843116        9.2022943369       11.8151371119  LPSA1     1               0.0000000000
       108         1  ECLIPA    H75R           -0.9665211088        9.4182766261       11.2107603889  LPSA1     1               0.0000000000
       109         1  ECLIPA    H75S            0.0251525720        8.1129804461       12.0082837783  LPSA1     1               0.0000000000
       110         1  ECLIPA    C76             1.2013734162        9.5862033381       10.9251453624  LPSA1     1               0.0000000000
       111         1  ECLIPA    H76R            2.1200356134        9.1004053863       11.3555905686  LPSA1     1               0.0000000000
       112         1  ECLIPA    H76S            1.4512286096       10.7265095844       10.9731137071  LPSA1     1               0.0000000000
       113         1  ECLIPA    C77             1.1320337771        9.2280545012        9.4191603634  LPSA1     1               0.0000000000
       114         1  ECLIPA    H77R            0.2867531074        9.7495199547        9.0408775908  LPSA1     1               0.0000000000
       115         1  ECLIPA    H77S            0.8270615281        8.1645587651        9.2852383479  LPSA1     1               0.0000000000
       116         1  ECLIPA    C78             2.5285143034        9.4629656539        8.8297405752  LPSA1     1               0.0000000000
       117         1  ECLIPA    H78R            2.8563668638       10.4492889530        9.1562620580  LPSA1     1               0.0000000000
       118         1  ECLIPA    H78S            3.1679527416        8.6758411843        9.3169442960  LPSA1     1               0.0000000000
       119         1  ECLIPA    C79             2.6307648464        9.0899701128        7.2570767761  LPSA1     1               0.0000000000
       120         1  ECLIPA    H79R            3.0473966826        8.0392246249        7.1763205913  LPSA1     1               0.0000000000
       121         1  ECLIPA    H79S            3.3461611803        9.7724916406        6.7882549413  LPSA1     1               0.0000000000
       122         1  ECLIPA    C710            1.4068941691        9.3680543180        6.3785096220  LPSA1     1               0.0000000000
       123         1  ECLIPA    H710R           0.5844044024        8.7778491857        6.8460783027  LPSA1     1               0.0000000000
       124         1  ECLIPA    H710S           1.1761195927       10.3603247206        6.4843026416  LPSA1     1               0.0000000000
       125         1  ECLIPA    C711            1.5631539138        8.9255286304        4.9384125046  LPSA1     1               0.0000000000
       126         1  ECLIPA    H711R           2.3882037106        9.5367424772        4.5670708729  LPSA1     1               0.0000000000
       127         1  ECLIPA    H711S           1.7760376965        7.8262805970        4.9306188492  LPSA1     1               0.0000000000
       128         1  ECLIPA    C712            0.2530347095        9.1807210736        4.2148670498  LPSA1     1               0.0000000000
       129         1  ECLIPA    H712R           0.0552202846       10.2538205430        4.3130666899  LPSA1     1               0.0000000000
       130         1  ECLIPA    H712S          -0.5028884952        8.6920972192        4.8522839389  LPSA1     1               0.0000000000
       131         1  ECLIPA    C713            0.2700123934        8.5954948988        2.7357390519  LPSA1     1               0.0000000000
       132         1  ECLIPA    H713R           0.4051360734        7.4873677718        2.8800411466  LPSA1     1               0.0000000000
       133         1  ECLIPA    H713S          -0.7514855385        8.8644409440        2.2750064041  LPSA1     1               0.0000000000
       134         1  ECLIPA    C714            1.3363227537        9.3133355232        1.8879763961  LPSA1     1               0.0000000000
       135         1  ECLIPA    H714R           1.0982990300       10.3790654701        1.7626189762  LPSA1     1               0.0000000000
       136         1  ECLIPA    H714S           2.3571650099        9.0715437992        2.2081901572  LPSA1     1               0.0000000000
       137         1  ECLIPA    H714T           1.1684762050        8.8690186151        0.9249202435  LPSA1     1               0.0000000000
       138         1  ECLIPA    C51             2.4464003874        4.9972953400       14.2380633031  LPSA1     1               0.0000000000
       139         1  ECLIPA    O51             1.2060855817        5.1047699734       14.1304636378  LPSA1     1               0.0000000000
       140         1  ECLIPA    C52             3.4108929366        5.2131754844       13.0157035712  LPSA1     1               0.0000000000
       141         1  ECLIPA    H52R            3.7594255569        6.2288243599       12.8950255930  LPSA1     1               0.0000000000
       142         1  ECLIPA    H52S            4.2262875188        4.5565303188       13.2222025935  LPSA1     1               0.0000000000
       143         1  ECLIPA    C53             2.6878173645        4.6081339734       11.7526064304  LPSA1     1               0.0000000000
       144         1  ECLIPA    H53R            1.9721695931        3.8336552551       12.0082431084  LPSA1     1               0.0000000000
       145         1  ECLIPA    O53             3.7381658966        4.2424317709       10.8431816314  LPSA1     1               0.0000000000
       146         1  ECLIPA    C61             3.8653487846        2.9687873297       10.5090573566  LPSA1     1               0.0000000000
       147         1  ECLIPA    O61             3.1641893955        2.0745886945       10.8659713306  LPSA1     1               0.0000000000
       148         1  ECLIPA    C62             5.0734574121        2.8124707647        9.5765835255  LPSA1     1               0.0000000000
       149         1  ECLIPA    H62R            5.9818637487        2.8175990007       10.2152837125  LPSA1     1               0.0000000000
       150         1  ECLIPA    H62S            5.1774367400        3.7838053420        9.0470049452  LPSA1     1               0.0000000000
       151         1  ECLIPA    C63             4.9494324691        1.5536606826        8.6803029234  LPSA1     1               0.0000000000
       152         1  ECLIPA    H63R            3.9227872151        1.5459676592        8.2798705976  LPSA1     1               0.0000000000
       153         1  ECLIPA    H63S            5.0840344181        0.5790434536        9.3252199642  LPSA1     1               0.0000000000
       154         1  ECLIPA    C64             5.8684924612        1.4245372094        7.5279067597  LPSA1     1               0.0000000000
       155         1  ECLIPA    H64R            5.7606278634        0.4313156751        6.9620099216  LPSA1     1               0.0000000000
       156         1  ECLIPA    H64S            6.9291709439        1.5188567144        7.9657393466  LPSA1     1               0.0000000000
       157         1  ECLIPA    C65             5.6573311565        2.6264007343        6.5414948800  LPSA1     1               0.0000000000
       158         1  ECLIPA    H65R            5.8908696304        3.4673658806        7.2423230371  LPSA1     1               0.0000000000
       159         1  ECLIPA    H65S            4.6044490429        2.6300051338        6.1828980290  LPSA1     1               0.0000000000
       160         1  ECLIPA    C66             6.5554010818        2.6622320499        5.2222643966  LPSA1     1               0.0000000000
       161         1  ECLIPA    H66R            7.5950375357        2.7073452245        5.5395647249  LPSA1     1               0.0000000000
       162         1  ECLIPA    H66S            6.2216581663        3.6608118314        4.8113963288  LPSA1     1               0.0000000000
       163         1  ECLIPA    C67             6.3448151088        1.6034185719        4.1696839457  LPSA1     1               0.0000000000
       164         1  ECLIPA    H67R            6.3641934256        0.5909704061        4.5058181646  LPSA1     1               0.0000000000
       165         1  ECLIPA    H67S            7.1068563577        1.7234225231        3.3478820057  LPSA1     1               0.0000000000
       166         1  ECLIPA    C68             4.9926011839        1.6508947780        3.5077075145  LPSA1     1               0.0000000000
       167         1  ECLIPA    H68R            4.6712935743        2.5974722149        3.0112508411  LPSA1     1               0.0000000000
       168         1  ECLIPA    H68S            4.3420286548        1.3490810834        4.3087918325  LPSA1     1               0.0000000000
       169         1  ECLIPA    C69             4.9777305208        0.7198484536        2.2963532923  LPSA1     1               0.0000000000
       170         1  ECLIPA    H69R            5.6802125598       -0.1355792578        2.3203210098  LPSA1     1               0.0000000000
       171         1  ECLIPA    H69S            5.3829241025        1.2994784784        1.4693744207  LPSA1     1               0.0000000000
       172         1  ECLIPA    C610            3.6284402290        0.2121877556        1.9396251084  LPSA1     1               0.0000000000
       173         1  ECLIPA    H610R           2.8641292707        1.0286602806        2.0603347121  LPSA1     1               0.0000000000
       174         1  ECLIPA    H610S           3.3047619491       -0.5778559164        2.6933643884  LPSA1     1               0.0000000000
       175         1  ECLIPA    C611            3.5724753648       -0.4773235739        0.5312153135  LPSA1     1               0.0000000000
       176         1  ECLIPA    H611R           4.3007843179       -1.3105760781        0.5735373188  LPSA1     1               0.0000000000
       177         1  ECLIPA    H611S           2.6772329669       -1.0563384720        0.3609598123  LPSA1     1               0.0000000000
       178         1  ECLIPA    C612            3.7735495224        0.5405279211       -0.5788949292  LPSA1     1               0.0000000000
       179         1  ECLIPA    H612R           2.8724269928        1.2155848887       -0.6060949542  LPSA1     1               0.0000000000
       180         1  ECLIPA    H612S           4.6063140846        1.2034289666       -0.3132441764  LPSA1     1               0.0000000000
       181         1  ECLIPA    H612T           3.8913724910        0.0665488097       -1.5574606966  LPSA1     1               0.0000000000
       182         1  ECLIPA    C54             1.9129392866        5.8079329011       11.1776054589  LPSA1     1               0.0000000000
       183         1  ECLIPA    H54R            2.6595633339        6.6058224421       10.8869876633  LPSA1     1               0.0000000000
       184         1  ECLIPA    H54S            1.2891402470        6.2738988092       11.9574517429  LPSA1     1               0.0000000000
       185         1  ECLIPA    C55             0.9815241659        5.5878709970        9.9916770240  LPSA1     1               0.0000000000
       186         1  ECLIPA    H55R            0.2792323884        6.4271473684        9.7856946516  LPSA1     1               0.0000000000
       187         1  ECLIPA    H55S            0.3321509635        4.6753979793       10.2436295858  LPSA1     1               0.0000000000
       188         1  ECLIPA    C56             1.8307315502        5.5011605589        8.7515486822  LPSA1     1               0.0000000000
       189         1  ECLIPA    H56R            2.5549915627        4.6342397013        8.8382497819  LPSA1     1               0.0000000000
       190         1  ECLIPA    H56S            2.3867498253        6.3453041896        8.4741334449  LPSA1     1               0.0000000000
       191         1  ECLIPA    C57             1.1101069961        5.0099432526        7.4395707935  LPSA1     1               0.0000000000
       192         1  ECLIPA    H57R            0.2367130766        5.6120333146        7.1827428724  LPSA1     1               0.0000000000
       193         1  ECLIPA    H57S            0.7102762395        3.9768812973        7.5196553379  LPSA1     1               0.0000000000
       194         1  ECLIPA    C58             2.1351077014        4.9410777775        6.2350750625  LPSA1     1               0.0000000000
       195         1  ECLIPA    H58R            2.7920479053        5.8542070700        6.2095761879  LPSA1     1               0.0000000000
       196         1  ECLIPA    H58S            2.9004681486        4.1689558545        6.5224540661  LPSA1     1               0.0000000000
       197         1  ECLIPA    C59             1.4113489532        4.7992547467        4.8667186835  LPSA1     1               0.0000000000
       198         1  ECLIPA    H59R            0.7134261842        5.6301019736        4.6589989540  LPSA1     1               0.0000000000
       199         1  ECLIPA    H59S            0.8793006673        3.8518782964        5.0825555512  LPSA1     1               0.0000000000
       200         1  ECLIPA    C510            2.3835215810        4.8743076189        3.6752379292  LPSA1     1               0.0000000000
       201         1  ECLIPA    H510R           3.3438440302        4.2643395373        3.7937959224  LPSA1     1               0.0000000000
       202         1  ECLIPA    H510S           2.7314507329        5.9833077982        3.4613250382  LPSA1     1               0.0000000000
       203         1  ECLIPA    C511            1.8105582264        4.4700518104        2.3004848829  LPSA1     1               0.0000000000
       204         1  ECLIPA    H511R           1.8321178729        3.3637998148        2.2679211996  LPSA1     1               0.0000000000
       205         1  ECLIPA    H511S           0.7216278070        4.7473280978        2.1940961976  LPSA1     1               0.0000000000
       206         1  ECLIPA    C512            2.5856059996        4.9510575961        1.0189424135  LPSA1     1               0.0000000000
       207         1  ECLIPA    H512R           1.9560907508        4.7898139993        0.0815295424  LPSA1     1               0.0000000000
       208         1  ECLIPA    H512S           2.8207063194        6.0184923363        1.1129704346  LPSA1     1               0.0000000000
       209         1  ECLIPA    C513            3.8743697436        4.0866952739        0.6457389972  LPSA1     1               0.0000000000
       210         1  ECLIPA    H513R           3.6088701197        2.9936089726        0.5010832175  LPSA1     1               0.0000000000
       211         1  ECLIPA    H513S           4.5574455765        4.1097846441        1.4088770719  LPSA1     1               0.0000000000
       212         1  ECLIPA    C514            4.4669183214        4.5505228947       -0.6567184026  LPSA1     1               0.0000000000
       213         1  ECLIPA    H514R           4.6763076913        5.6196039736       -0.6273993866  LPSA1     1               0.0000000000
       214         1  ECLIPA    H514S           5.4412777442        4.0590436591       -0.7024724270  LPSA1     1               0.0000000000
       215         1  ECLIPA    H514T           3.7742515018        4.3074696249       -1.5427815912  LPSA1     1               0.0000000000
       216         1  ECLIPA    C33             6.2141853023        1.4524938576       14.4880792826  LPSA1     1               0.0000000000
       217         1  ECLIPA    H33R            7.2740616746        1.3069190613       14.8828993596  LPSA1     1               0.0000000000
       218         1  ECLIPA    O33             5.4933606063        2.1740619059       15.4699768821  LPSA1     1               0.0000000000
       219         1  ECLIPA    HO33            5.6936629559        1.8151097319       16.2926205744  LPSA1     1               0.0000000000
       220         1  ECLIPA    C34             6.3273843864        2.3471021034       13.2255459338  LPSA1     1               0.0000000000
       221         1  ECLIPA    H34R            5.3409898545        2.4984187879       12.8010908313  LPSA1     1               0.0000000000
       222         1  ECLIPA    H34S            6.8787686797        1.7832113657       12.3772221142  LPSA1     1               0.0000000000
       223         1  ECLIPA    C35             6.9746162184        3.7296343333       13.4256256262  LPSA1     1               0.0000000000
       224         1  ECLIPA    H35R            8.0168202797        3.5765574784       13.6963698038  LPSA1     1               0.0000000000
       225         1  ECLIPA    H35S            6.4792891412        4.2315610315       14.2668166019  LPSA1     1               0.0000000000
       226         1  ECLIPA    C36             7.0745190148        4.6426852626       12.1865608177  LPSA1     1               0.0000000000
       227         1  ECLIPA    H36R            6.1136103679        4.3096755644       11.7430812241  LPSA1     1               0.0000000000
       228         1  ECLIPA    H36S            7.9359564966        4.4254717796       11.4785220412  LPSA1     1               0.0000000000
       229         1  ECLIPA    C37             6.8735029365        6.1076523500       12.5255831563  LPSA1     1               0.0000000000
       230         1  ECLIPA    H37R            7.9753010195        6.5085392548       12.6765215637  LPSA1     1               0.0000000000
       231         1  ECLIPA    H37S            6.3963241016        6.2509245908       13.5128993321  LPSA1     1               0.0000000000
       232         1  ECLIPA    C38             6.2016361020        6.9835821591       11.4317274953  LPSA1     1               0.0000000000
       233         1  ECLIPA    H38R            5.1036473367        6.8848508252       11.4067421357  LPSA1     1               0.0000000000
       234         1  ECLIPA    H38S            6.3541415589        8.0385805789       11.7230999881  LPSA1     1               0.0000000000
       235         1  ECLIPA    C39             6.7160846016        6.6308073764       10.0213367345  LPSA1     1               0.0000000000
       236         1  ECLIPA    H39R            6.5850259329        5.5358065511        9.8128797222  LPSA1     1               0.0000000000
       237         1  ECLIPA    H39S            7.7753896760        6.9979548622        9.9697980947  LPSA1     1               0.0000000000
       238         1  ECLIPA    C310            6.0797848594        7.3938925832        8.8401719124  LPSA1     1               0.0000000000
       239         1  ECLIPA    H310R           6.3811297967        8.4846992001        9.0626900142  LPSA1     1               0.0000000000
       240         1  ECLIPA    H310S           4.9553234631        7.3070374900        8.8945759064  LPSA1     1               0.0000000000
       241         1  ECLIPA    C311            6.3518343071        6.7337610618        7.5676235846  LPSA1     1               0.0000000000
       242         1  ECLIPA    H311R           7.3972423636        6.3330992971        7.5507520616  LPSA1     1               0.0000000000
       243         1  ECLIPA    H311S           5.6710227758        5.8723637655        7.2851462164  LPSA1     1               0.0000000000
       244         1  ECLIPA    C312            6.1410102373        7.6309902421        6.3280121142  LPSA1     1               0.0000000000
       245         1  ECLIPA    H312R           5.2817188573        8.3304970064        6.4861373960  LPSA1     1               0.0000000000
       246         1  ECLIPA    H312S           7.0755526092        8.2287785359        6.1820758986  LPSA1     1               0.0000000000
       247         1  ECLIPA    C313            5.9082050504        6.8574908945        4.9895779706  LPSA1     1               0.0000000000
       248         1  ECLIPA    H313R           6.8529908512        6.4588513102        4.7825120466  LPSA1     1               0.0000000000
       249         1  ECLIPA    H313S           5.1891256219        6.0075555282        5.1572698764  LPSA1     1               0.0000000000
       250         1  ECLIPA    C314            5.4445136110        7.6495264931        3.8116661598  LPSA1     1               0.0000000000
       251         1  ECLIPA    H314R           6.1827614272        8.4719534795        3.6067793993  LPSA1     1               0.0000000000
       252         1  ECLIPA    H314S           5.2956275193        7.0891989608        2.8849361441  LPSA1     1               0.0000000000
       253         1  ECLIPA    H314T           4.4566053321        8.1820130306        4.0446347774  LPSA1     1               0.0000000000
       254         1  ECLIPA    C11             0.4491658567        0.6918207938       11.2900808200  LPSA1     1               0.0000000000
       255         1  ECLIPA    O11             0.0564394718        1.8422183833       11.1394597694  LPSA1     1               0.0000000000
       256         1  ECLIPA    C12            -0.1139020877       -0.3566908332       10.2853014675  LPSA1     1               0.0000000000
       257         1  ECLIPA    H12R           -1.1949787140       -0.5697569858       10.4852637814  LPSA1     1               0.0000000000
       258         1  ECLIPA    H12S            0.4946237666       -1.2694027077       10.5222272274  LPSA1     1               0.0000000000
       259         1  ECLIPA    C13             0.0512041358       -0.0125869918        8.8110583416  LPSA1     1               0.0000000000
       260         1  ECLIPA    H13R           -0.2056465644        1.0900943135        8.5839874118  LPSA1     1               0.0000000000
       261         1  ECLIPA    O13            -0.9367747455       -0.8300618684        8.1311342176  LPSA1     1               0.0000000000
       262         1  ECLIPA    HO13           -1.1621935218       -0.4407034351        7.3064966676  LPSA1     1               0.0000000000
       263         1  ECLIPA    C14             1.4987253460       -0.2633698378        8.4581579993  LPSA1     1               0.0000000000
       264         1  ECLIPA    H14R            1.9187770988       -1.2042754082        8.9706443184  LPSA1     1               0.0000000000
       265         1  ECLIPA    H14S            2.0648927928        0.6534756241        8.7243868424  LPSA1     1               0.0000000000
       266         1  ECLIPA    C15             1.7494764095       -0.4712779704        6.9526486677  LPSA1     1               0.0000000000
       267         1  ECLIPA    H15R            1.0913877549       -1.2231713470        6.5500123177  LPSA1     1               0.0000000000
       268         1  ECLIPA    H15S            2.7991722614       -0.7599535049        6.8782608049  LPSA1     1               0.0000000000
       269         1  ECLIPA    C16             1.4720226241        0.8320014391        6.1622847334  LPSA1     1               0.0000000000
       270         1  ECLIPA    H16R            2.3393177561        1.5801925492        6.2733383262  LPSA1     1               0.0000000000
       271         1  ECLIPA    H16S            0.7035009935        1.3959979572        6.7182496574  LPSA1     1               0.0000000000
       272         1  ECLIPA    C17             1.1958230147        0.5897352892        4.6801229578  LPSA1     1               0.0000000000
       273         1  ECLIPA    H17R            2.0073692463       -0.1584334313        4.4246758429  LPSA1     1               0.0000000000
       274         1  ECLIPA    H17S            1.3379603250        1.4397405598        4.0046542873  LPSA1     1               0.0000000000
       275         1  ECLIPA    C18            -0.1776669673        0.0205072765        4.4504458171  LPSA1     1               0.0000000000
       276         1  ECLIPA    H18R           -0.1744688497       -0.8241786942        5.0865821920  LPSA1     1               0.0000000000
       277         1  ECLIPA    H18S           -0.9308978307        0.7942467454        4.7749867078  LPSA1     1               0.0000000000
       278         1  ECLIPA    C19            -0.4123672771       -0.3595197062        3.0097966450  LPSA1     1               0.0000000000
       279         1  ECLIPA    H19R           -1.3589753705       -0.8743307053        2.9245509529  LPSA1     1               0.0000000000
       280         1  ECLIPA    H19S            0.4284443379       -1.0253058030        2.6238151240  LPSA1     1               0.0000000000
       281         1  ECLIPA    C110           -0.5361308841        0.8906155579        2.1045801788  LPSA1     1               0.0000000000
       282         1  ECLIPA    H110R          -1.2432233235        1.6503546821        2.4416701971  LPSA1     1               0.0000000000
       283         1  ECLIPA    H110S           0.5104889999        1.2631719517        2.1583327743  LPSA1     1               0.0000000000
       284         1  ECLIPA    C111           -0.8444257894        0.4498397273        0.7563571155  LPSA1     1               0.0000000000
       285         1  ECLIPA    H111R          -0.2642247028       -0.4467263384        0.3999767799  LPSA1     1               0.0000000000
       286         1  ECLIPA    H111S          -1.8440696525        0.1027331349        0.7977177860  LPSA1     1               0.0000000000
       287         1  ECLIPA    C112           -0.7864774169        1.5702967958       -0.2937360943  LPSA1     1               0.0000000000
       288         1  ECLIPA    H112R          -1.4899052167        2.2924868380        0.1973446929  LPSA1     1               0.0000000000
       289         1  ECLIPA    H112S           0.1463311520        2.1347132795       -0.2177998937  LPSA1     1               0.0000000000
       290         1  ECLIPA    C113           -0.8975294788        1.0808218277       -1.7468031795  LPSA1     1               0.0000000000
       291         1  ECLIPA    H113R           0.0139097476        0.4833412512       -1.9802017524  LPSA1     1               0.0000000000
       292         1  ECLIPA    H113S          -1.7122745439        0.3575354746       -1.8531093719  LPSA1     1               0.0000000000
       293         1  ECLIPA    C114           -1.2076445706        2.0780255633       -2.8344928043  LPSA1     1               0.0000000000
       294         1  ECLIPA    H114R          -2.0480811744        2.7647873410       -2.7829422503  LPSA1     1               0.0000000000
       295         1  ECLIPA    H114S          -0.3150183279        2.7451738299       -2.9951089580  LPSA1     1               0.0000000000
       296         1  ECLIPA    H114T          -1.5385289478        1.5328694823       -3.7399523103  LPSA1     1               0.0000000000
       297         2  AKDO      C1              3.3865101450        6.0369799556       22.4410509549  LPSA1     2               0.0000000000
       298         2  AKDO      O11             3.4251530831        7.3141812507       22.4913720772  LPSA1     2               0.0000000000
       299         2  AKDO      O12             4.2680334134        5.2075057070       22.0800765534  LPSA1     2               0.0000000000
       300         2  AKDO      C2              2.0616200632        5.4135283365       22.8913181237  LPSA1     2               0.0000000000
       301         2  AKDO      C6             -0.0484548340        5.9772759450       23.8039205188  LPSA1     2               0.0000000000
       302         2  AKDO      H6             -0.5361734144        5.5881738525       22.9487387861  LPSA1     2               0.0000000000
       303         2  AKDO      O6              1.3077212603        6.4477503942       23.4267274814  LPSA1     2               0.0000000000
       304         2  AKDO      C3              2.2246556156        4.4028265415       23.9587385105  LPSA1     2               0.0000000000
       305         2  AKDO      H31             2.7855067958        4.7175190227       24.7868435866  LPSA1     2               0.0000000000
       306         2  AKDO      H32             2.7315591058        3.4690533587       23.4151264596  LPSA1     2               0.0000000000
       307         2  AKDO      C4              0.8586129553        3.8717313982       24.3842593775  LPSA1     2               0.0000000000
       308         2  AKDO      H4              0.2765888728        3.5061222507       23.5563617270  LPSA1     2               0.0000000000
       309         2  AKDO      O4              1.0330995780        2.8312584245       25.3355834555  LPSA1     2               0.0000000000
       310         2  AKDO      C5             -0.0147836833        4.9100543449       24.9292437177  LPSA1     2               0.0000000000
       311         2  AKDO      H5             -1.0694930238        4.5363592169       25.0107888161  LPSA1     2               0.0000000000
       312         2  AKDO      O5              0.5832867487        5.3870628579       26.2083878813  LPSA1     2               0.0000000000
       313         2  AKDO      C7             -1.0215153827        7.1813537273       24.1981149098  LPSA1     2               0.0000000000
       314         2  AKDO      H7             -0.6234182203        7.6537524262       25.0939202098  LPSA1     2               0.0000000000
       315         2  AKDO      O7             -2.3959254033        6.7376415361       24.3482682347  LPSA1     2               0.0000000000
       316         2  AKDO      HO7            -2.7161323150        6.6239551478       23.4945166536  LPSA1     2               0.0000000000
       317         2  AKDO      C8             -0.9852681183        8.1742458332       22.9864433882  LPSA1     2               0.0000000000
       318         2  AKDO      H81             0.0857355051        8.4810245343       22.9153150275  LPSA1     2               0.0000000000
       319         2  AKDO      H82            -1.3806055004        7.5907486025       22.0745354517  LPSA1     2               0.0000000000
       320         2  AKDO      O8             -1.8135508783        9.3554234509       23.3537996748  LPSA1     2               0.0000000000
       321         2  AKDO      HO8            -1.4155511386       10.1531831054       22.9179804014  LPSA1     2               0.0000000000
       322         3  AKDO      C1              0.4330851555        1.1244180397       23.8027969005  LPSA1     3               1.0000000000
       323         3  AKDO      O11             0.9546678685        1.1245509352       22.6471489042  LPSA1     3               1.0000000000
       324         3  AKDO      O12            -0.7568505539        0.8282944749       24.0656860145  LPSA1     3               1.0000000000
       325         3  AKDO      C2              1.2807368469        1.4777710547       25.0166033796  LPSA1     3               1.0000000000
       326         3  AKDO      C6              3.5502039287        1.7288517364       25.7688829792  LPSA1     3               1.0000000000
       327         3  AKDO      H6              3.3928087892        2.8362755180       25.9810553331  LPSA1     3               1.0000000000
       328         3  AKDO      O6              2.7095256920        1.3189181157       24.7076657818  LPSA1     3               1.0000000000
       329         3  AKDO      C3              0.9674414519        0.6933517308       26.3187707743  LPSA1     3               1.0000000000
       330         3  AKDO      H31             1.1641294353       -0.4446229752       26.1504935106  LPSA1     3               1.0000000000
       331         3  AKDO      H32            -0.0916736516        0.7951691054       26.5929217108  LPSA1     3               1.0000000000
       332         3  AKDO      C4              1.8823380690        1.2015245747       27.4036122013  LPSA1     3               1.0000000000
       333         3  AKDO      H4              1.8055320910        2.2931373894       27.4051754129  LPSA1     3               1.0000000000
       334         3  AKDO      O4              1.6097984278        0.7513424761       28.7388570077  LPSA1     3               1.0000000000
       335         3  AKDO      HO4             1.4454731057        1.4397042503       29.3717785514  LPSA1     3               1.0000000000
       336         3  AKDO      C5              3.2299062224        0.9800549431       27.0369167275  LPSA1     3               1.0000000000
       337         3  AKDO      H5              3.9035471524        1.2857403672       27.9236884022  LPSA1     3               1.0000000000
       338         3  AKDO      O5              3.4807684125       -0.4254957629       26.8495261943  LPSA1     3               1.0000000000
       339         3  AKDO      HO5             2.9134358064       -0.7651316951       26.1887877298  LPSA1     3               1.0000000000
       340         3  AKDO      C7              4.9745637682        1.5064303754       25.3258859863  LPSA1     3               1.0000000000
       341         3  AKDO      H7              5.1814925414        0.4134237079       25.1324849511  LPSA1     3               1.0000000000
       342         3  AKDO      O7              5.8619364838        2.0013606492       26.3661029982  LPSA1     3               1.0000000000
       343         3  AKDO      HO7             6.7753425906        1.7070073950       26.1647669547  LPSA1     3               1.0000000000
       344         3  AKDO      C8              5.2055170909        2.3666251128       24.1539635864  LPSA1     3               1.0000000000
       345         3  AKDO      H81             4.5159218176        2.1009432342       23.3419478721  LPSA1     3               1.0000000000
       346         3  AKDO      H82             5.1181397763        3.4556769763       24.2853144505  LPSA1     3               1.0000000000
       347         3  AKDO      O8              6.5068581105        2.1556503721       23.6541307456  LPSA1     3               1.0000000000
       348         3  AKDO      HO8             6.3208343998        1.2886049997       23.2473452835  LPSA1     3               1.0000000000
       349         4  AHEP      C1             -0.2706404216        5.7553094765       27.2793229502  LPSA1     4               2.0000000000
       350         4  AHEP      H1             -0.4936295065        6.7871225045       26.8517192453  LPSA1     4               2.0000000000
       351         4  AHEP      C5             -1.4783666800        3.7887955998       28.0185271385  LPSA1     4               2.0000000000
       352         4  AHEP      H5             -0.5636206965        3.2434730834       27.5619054335  LPSA1     4               2.0000000000
       353         4  AHEP      O5             -1.5195170206        5.0691156755       27.3942805697  LPSA1     4               2.0000000000
       354         4  AHEP      C2              0.2209625853        6.0023199748       28.6827861277  LPSA1     4               2.0000000000
       355         4  AHEP      H2              1.2018275160        6.4865915841       28.7442425996  LPSA1     4               2.0000000000
       356         4  AHEP      O2             -0.6632449630        6.8357778184       29.3407203943  LPSA1     4               2.0000000000
       357         4  AHEP      HO2            -0.1833209785        7.4605212842       29.8507927467  LPSA1     4               2.0000000000
       358         4  AHEP      C3              0.3134634133        4.6890737094       29.4857672188  LPSA1     4               2.0000000000
       359         4  AHEP      H3              1.1481634640        4.0231841281       29.2269906369  LPSA1     4               2.0000000000
       360         4  AHEP      O3              0.5830979644        4.9623765027       30.7882097304  LPSA1     4               2.0000000000
       361         4  AHEP      C4             -1.0228376494        3.9927696433       29.4546205599  LPSA1     4               2.0000000000
       362         4  AHEP      H4             -1.8575609735        4.5218926523       29.9788637739  LPSA1     4               2.0000000000
       363         4  AHEP      O4             -0.8848386666        2.7201585932       30.0145912217  LPSA1     4               2.0000000000
       364         4  AHEP      P4             -1.5185990207        2.3196655083       31.4978499249  LPSA1     4               2.0000000000
       365         4  AHEP      OP42           -0.6229069105        1.3462959114       32.1560374192  LPSA1     4               2.0000000000
       366         4  AHEP      OP43           -2.8097684052        1.7079199987       31.0397938518  LPSA1     4               2.0000000000
       367         4  AHEP      OP44           -1.8088948707        3.6205593935       32.3098937101  LPSA1     4               2.0000000000
       368         4  AHEP      C6             -2.8143403611        2.9920189672       27.7982482844  LPSA1     4               2.0000000000
       369         4  AHEP      H6             -2.5801379555        1.9214073295       28.0833143566  LPSA1     4               2.0000000000
       370         4  AHEP      O6             -3.7810159475        3.5197839487       28.7103505027  LPSA1     4               2.0000000000
       371         4  AHEP      HO6            -4.2427658005        2.8015776395       29.2203787365  LPSA1     4               2.0000000000
       372         4  AHEP      C7             -3.3204027069        2.9996226801       26.3054198206  LPSA1     4               2.0000000000
       373         4  AHEP      H71            -4.1904693535        2.2770258107       26.1576126064  LPSA1     4               2.0000000000
       374         4  AHEP      H72            -2.4547601918        2.8372917850       25.6323487339  LPSA1     4               2.0000000000
       375         4  AHEP      O7             -3.8663140186        4.2734497985       25.9755159574  LPSA1     4               2.0000000000
       376         4  AHEP      HO7            -4.7707769940        4.3048551071       26.3256794122  LPSA1     4               2.0000000000
       377         5  AHEP      C1              1.7736987129        4.4570215108       31.4342177374  LPSA1     5               3.0000000000
       378         5  AHEP      H1              2.1052707966        3.4868554778       30.9794447437  LPSA1     5               3.0000000000
       379         5  AHEP      C5              2.6056404145        6.6367981773       31.9165413065  LPSA1     5               3.0000000000
       380         5  AHEP      H5              1.5636684320        6.9857835900       31.6031509785  LPSA1     5               3.0000000000
       381         5  AHEP      O5              2.8661565579        5.3847815126       31.3013865768  LPSA1     5               3.0000000000
       382         5  AHEP      C2              1.6152781301        4.2079660556       32.9718957084  LPSA1     5               3.0000000000
       383         5  AHEP      H2              0.7104908016        3.5291949526       33.0921707216  LPSA1     5               3.0000000000
       384         5  AHEP      O2              2.7570267336        3.5353599851       33.4691025827  LPSA1     5               3.0000000000
       385         5  AHEP      HO2             2.5513314000        2.6218130473       33.6403503244  LPSA1     5               3.0000000000
       386         5  AHEP      C3              1.2947704598        5.5295610902       33.7004304811  LPSA1     5               3.0000000000
       387         5  AHEP      H3              0.3519494567        5.9535356081       33.3375632548  LPSA1     5               3.0000000000
       388         5  AHEP      O3              1.1488257471        5.4446657781       35.1462238331  LPSA1     5               3.0000000000
       389         5  AHEP      C4              2.4444483015        6.4445263947       33.4524658705  LPSA1     5               3.0000000000
       390         5  AHEP      H4              3.4111332846        6.0207290540       33.8188816395  LPSA1     5               3.0000000000
       391         5  AHEP      O4              2.1460887847        7.7270101424       34.0881196202  LPSA1     5               3.0000000000
       392         5  AHEP      P4              3.0519684168        8.2733282554       35.2810123301  LPSA1     5               3.0000000000
       393         5  AHEP      OP42            2.3306430417        9.4859516137       35.8202965042  LPSA1     5               3.0000000000
       394         5  AHEP      OP43            4.4000671992        8.6487126780       34.6107506294  LPSA1     5               3.0000000000
       395         5  AHEP      OP44            3.2413323340        7.1293515772       36.2417033353  LPSA1     5               3.0000000000
       396         5  AHEP      C6              3.6292338641        7.7222124132       31.5493607386  LPSA1     5               3.0000000000
       397         5  AHEP      H6              3.3447721176        8.7081886100       31.9533288164  LPSA1     5               3.0000000000
       398         5  AHEP      O6              4.9171982604        7.3699224723       32.0428602265  LPSA1     5               3.0000000000
       399         5  AHEP      HO6             5.4043841057        6.6669187306       31.5367188277  LPSA1     5               3.0000000000
       400         5  AHEP      C7              3.5837705233        7.9873446188       30.0822725317  LPSA1     5               3.0000000000
       401         5  AHEP      H71             3.8113614834        9.0632828633       29.9169108581  LPSA1     5               3.0000000000
       402         5  AHEP      H72             2.5990627370        7.7913192731       29.6179339851  LPSA1     5               3.0000000000
       403         5  AHEP      O7              4.6824742635        7.2580691366       29.4957736452  LPSA1     5               3.0000000000
       404         6  AHEP      C1              4.2939117204        6.1165195812       28.7926622005  LPSA1     6               4.0000000000
       405         6  AHEP      H1              3.2098500665        5.8449774900       29.0422981953  LPSA1     6               4.0000000000
       406         6  AHEP      C5              5.6824843884        6.6419460821       26.9237617191  LPSA1     6               4.0000000000
       407         6  AHEP      H5              6.0335632370        7.5210614424       27.4818042043  LPSA1     6               4.0000000000
       408         6  AHEP      O5              4.3586771652        6.2886683999       27.3547530115  LPSA1     6               4.0000000000
       409         6  AHEP      C2              5.1443353405        4.9599701705       29.2397872647  LPSA1     6               4.0000000000
       410         6  AHEP      H2              4.9754893759        4.8360754993       30.3523091474  LPSA1     6               4.0000000000
       411         6  AHEP      O2              4.6963896563        3.7319010069       28.7267108980  LPSA1     6               4.0000000000
       412         6  AHEP      HO2             4.3244805924        3.2935550029       29.4669064354  LPSA1     6               4.0000000000
       413         6  AHEP      C3              6.6105462803        5.2701559172       28.8468391403  LPSA1     6               4.0000000000
       414         6  AHEP      H3              6.9165553669        6.1467987639       29.4311808254  LPSA1     6               4.0000000000
       415         6  AHEP      O3              7.5813913533        4.1757332453       29.2225362108  LPSA1     6               4.0000000000
       416         6  AHEP      HO3             8.0765231631        4.2998068239       29.9865592523  LPSA1     6               4.0000000000
       417         6  AHEP      C4              6.6203534886        5.4853564957       27.2761740859  LPSA1     6               4.0000000000
       418         6  AHEP      H4              6.4355792128        4.5355203082       26.7944950683  LPSA1     6               4.0000000000
       419         6  AHEP      O4              7.9328058281        5.8105881180       26.7938835778  LPSA1     6               4.0000000000
       420         6  AHEP      HO4             8.0654002882        6.7680166473       27.1589530594  LPSA1     6               4.0000000000
       421         6  AHEP      C6              5.7429839305        7.0796422901       25.4906533340  LPSA1     6               4.0000000000
       422         6  AHEP      H6              6.7658000334        7.4090862313       25.3442628137  LPSA1     6               4.0000000000
       423         6  AHEP      O6              5.6194863485        5.9399898965       24.6375675438  LPSA1     6               4.0000000000
       424         6  AHEP      HO6             4.9115276307        6.0593990824       23.9977784313  LPSA1     6               4.0000000000
       425         6  AHEP      C7              4.8557605527        8.2497273618       25.1799756221  LPSA1     6               4.0000000000
       426         6  AHEP      H71             5.1086574526        8.5941955033       24.1408078076  LPSA1     6               4.0000000000
       427         6  AHEP      H72             5.1058626378        9.0257971522       25.9252229174  LPSA1     6               4.0000000000
       428         6  AHEP      O7              3.4898569788        7.9654584076       25.2517430265  LPSA1     6               4.0000000000
       429         6  AHEP      HO7             3.2737224036        8.0678890214       26.2011285002  LPSA1     6               4.0000000000
       430         7  AGLC      C1             -0.1414926399        5.1342944002       35.6520976122  LPSA1     7               4.0000000000
       431         7  AGLC      H1             -0.8998236293        5.8651711582       35.2047739589  LPSA1     7               4.0000000000
       432         7  AGLC      C5              0.2502052514        2.8514634731       36.0987679218  LPSA1     7               4.0000000000
       433         7  AGLC      H5              1.3125311422        2.9494058502       35.8327124756  LPSA1     7               4.0000000000
       434         7  AGLC      O5             -0.5141758934        3.8037456652       35.4366254460  LPSA1     7               4.0000000000
       435         7  AGLC      C2             -0.2110659731        5.3364351908       37.1582745954  LPSA1     7               4.0000000000
       436         7  AGLC      H2             -1.2578512950        4.9971281290       37.4887389927  LPSA1     7               4.0000000000
       437         7  AGLC      O2             -0.2368065098        6.7353491928       37.5024056006  LPSA1     7               4.0000000000
       438         7  AGLC      HO2             0.6762804530        6.9754262148       37.6430208865  LPSA1     7               4.0000000000
       439         7  AGLC      C3              0.5702935432        4.4434689364       37.9903802326  LPSA1     7               4.0000000000
       440         7  AGLC      H3              1.5984440118        4.6215436439       37.6727250444  LPSA1     7               4.0000000000
       441         7  AGLC      O3              0.6047796110        4.7188072897       39.4204481292  LPSA1     7               4.0000000000
       442         7  AGLC      C4              0.0856991599        3.0797169051       37.5928595998  LPSA1     7               4.0000000000
       443         7  AGLC      H4             -0.9953695084        2.9183904830       37.9560286200  LPSA1     7               4.0000000000
       444         7  AGLC      O4              1.0033561525        2.1610509101       38.2243117391  LPSA1     7               4.0000000000
       445         7  AGLC      HO4             0.5878652147        1.4214915087       38.6132003238  LPSA1     7               4.0000000000
       446         7  AGLC      C6             -0.0522729514        1.4447017197       35.5245160098  LPSA1     7               4.0000000000
       447         7  AGLC      H61             0.0637764136        1.5252801931       34.4135318240  LPSA1     7               4.0000000000
       448         7  AGLC      H62             0.5726370490        0.5944532785       35.8722646349  LPSA1     7               4.0000000000
       449         7  AGLC      O6             -1.4821360736        1.1993568259       35.6892983147  LPSA1     7               4.0000000000
       450         7  AGLC      HO6            -1.4532249799        0.6669814345       36.4386090630  LPSA1     7               4.0000000000
       451         8  AGLC      C1              1.8288265468        5.1100382959       39.9328324507  LPSA1     8               5.0000000000
       452         8  AGLC      H1              2.6202990998        4.4217312441       39.5884769495  LPSA1     8               5.0000000000
       453         8  AGLC      C5              1.3953230857        7.5382566611       40.2153373402  LPSA1     8               5.0000000000
       454         8  AGLC      H5              0.3781717328        7.3727729268       39.8400606936  LPSA1     8               5.0000000000
       455         8  AGLC      O5              2.2114867283        6.4928879057       39.6195505863  LPSA1     8               5.0000000000
       456         8  AGLC      C2              1.8420721945        5.0033311772       41.4170311384  LPSA1     8               5.0000000000
       457         8  AGLC      H2              2.9165243925        5.1756764407       41.6529594578  LPSA1     8               5.0000000000
       458         8  AGLC      O2              1.6459531382        3.6960856991       41.9438754185  LPSA1     8               5.0000000000
       459         8  AGLC      C3              0.9968659898        5.9963724501       42.1297388169  LPSA1     8               5.0000000000
       460         8  AGLC      H3              0.0002536533        5.7374774329       41.6567950186  LPSA1     8               5.0000000000
       461         8  AGLC      O3              0.9993504529        5.7288758109       43.5370978028  LPSA1     8               5.0000000000
       462         8  AGLC      C4              1.4779128043        7.3200823141       41.7603093222  LPSA1     8               5.0000000000
       463         8  AGLC      H4              2.5075741889        7.4449273915       42.0401368658  LPSA1     8               5.0000000000
       464         8  AGLC      O4              0.7213648405        8.3262121652       42.3914819843  LPSA1     8               5.0000000000
       465         8  AGLC      HO4            -0.1679344337        8.0689056433       42.3800652601  LPSA1     8               5.0000000000
       466         8  AGLC      C6              1.6738460869        8.9823839133       39.7357334439  LPSA1     8               5.0000000000
       467         8  AGLC      H61             1.7932543173        9.0789640596       38.6468043611  LPSA1     8               5.0000000000
       468         8  AGLC      H62             0.9358962054        9.7062131958       40.0276014644  LPSA1     8               5.0000000000
       469         8  AGLC      O6              2.8107500773        9.5625848225       40.3040784562  LPSA1     8               5.0000000000
       470         8  AGLC      HO6             2.6499587177        9.8862251170       41.2121845210  LPSA1     8               5.0000000000
       471         9  AGAL      C1              2.4123916846        2.6361028225       41.4573847493  LPSA1     9               6.0000000000
       472         9  AGAL      H1              2.4486712322        2.6676550704       40.3420235153  LPSA1     9               6.0000000000
       473         9  AGAL      C5              3.9223507034        2.3597058374       43.2125447641  LPSA1     9               6.0000000000
       474         9  AGAL      H5              3.1920979383        3.0882444455       43.7424973645  LPSA1     9               6.0000000000
       475         9  AGAL      O5              3.8195000138        2.5693535357       41.8451689838  LPSA1     9               6.0000000000
       476         9  AGAL      C2              1.7301037521        1.3493270892       41.8393925249  LPSA1     9               6.0000000000
       477         9  AGAL      H2              2.2743079119        0.5195570740       41.4115621152  LPSA1     9               6.0000000000
       478         9  AGAL      O2              0.4709477814        1.1826141154       41.1608705954  LPSA1     9               6.0000000000
       479         9  AGAL      C3              1.8213225524        1.0847895113       43.3264191845  LPSA1     9               6.0000000000
       480         9  AGAL      H3              1.2291640921        1.8918468854       43.9424563891  LPSA1     9               6.0000000000
       481         9  AGAL      O3              1.1219496425       -0.0468577982       43.7491515633  LPSA1     9               6.0000000000
       482         9  AGAL      HO3             0.3579147270       -0.1203995225       43.1585960960  LPSA1     9               6.0000000000
       483         9  AGAL      C4              3.2607524144        1.0445929837       43.6505755014  LPSA1     9               6.0000000000
       484         9  AGAL      H4              3.4604597091        0.9578410471       44.7734818408  LPSA1     9               6.0000000000
       485         9  AGAL      O4              3.9733987445        0.0076536719       43.0499075873  LPSA1     9               6.0000000000
       486         9  AGAL      HO4             4.6890265441       -0.2233569569       43.6622427513  LPSA1     9               6.0000000000
       487         9  AGAL      C6              5.2662694113        2.7411310753       43.8349081587  LPSA1     9               6.0000000000
       488         9  AGAL      H61             5.5639226744        3.8039666997       43.6417203355  LPSA1     9               6.0000000000
       489         9  AGAL      H62             5.3009838510        2.6734839985       44.9292747136  LPSA1     9               6.0000000000
       490         9  AGAL      O6              6.2869289337        1.8910511827       43.4062227539  LPSA1     9               6.0000000000
       491         9  AGAL      HO6             6.7611477146        2.3559370430       42.6923548993  LPSA1     9               6.0000000000
       492        10  AGAL      C1             -0.7995575640        0.8214707415       41.7517281777  LPSA1     10              7.0000000000
       493        10  AGAL      H1             -0.7284983502       -0.2707502677       41.8429972083  LPSA1     10              7.0000000000
       494        10  AGAL      C5             -1.4156035174        2.7439203213       43.0613392294  LPSA1     10              7.0000000000
       495        10  AGAL      H5             -0.4343509605        3.2276238146       42.6233508762  LPSA1     10              7.0000000000
       496        10  AGAL      O5             -1.2407119857        1.3141650486       43.0470213554  LPSA1     10              7.0000000000
       497        10  AGAL      C2             -1.8777302432        1.2082303058       40.7227968417  LPSA1     10              7.0000000000
       498        10  AGAL      H2             -2.8212299590        0.6175317024       41.0433947026  LPSA1     10              7.0000000000
       499        10  AGAL      O2             -1.7788814286        0.5188967775       39.5532095562  LPSA1     10              7.0000000000
       500        10  AGAL      HO2            -2.5975663804        0.0888998558       39.3379401176  LPSA1     10              7.0000000000
       501        10  AGAL      C3             -2.1194060696        2.6751013863       40.6928251787  LPSA1     10              7.0000000000
       502        10  AGAL      H3             -1.1369811126        3.0852325426       40.4679648945  LPSA1     10              7.0000000000
       503        10  AGAL      O3             -3.0778891048        3.1048524573       39.7732034444  LPSA1     10              7.0000000000
       504        10  AGAL      HO3            -2.6003495971        3.5237559699       39.0151094934  LPSA1     10              7.0000000000
       505        10  AGAL      C4             -2.5274304345        3.1296101094       42.0524071915  LPSA1     10              7.0000000000
       506        10  AGAL      H4             -2.6152856492        4.2317519567       42.1099272557  LPSA1     10              7.0000000000
       507        10  AGAL      O4             -3.7421367657        2.5990307331       42.4965010455  LPSA1     10              7.0000000000
       508        10  AGAL      HO4            -3.5717084548        1.6770037078       42.5675127347  LPSA1     10              7.0000000000
       509        10  AGAL      C6             -1.5957448114        3.3934860132       44.3959537205  LPSA1     10              7.0000000000
       510        10  AGAL      H61            -0.8274894836        3.0991658313       45.1044438806  LPSA1     10              7.0000000000
       511        10  AGAL      H62            -1.4173605754        4.5667987160       44.2564473849  LPSA1     10              7.0000000000
       512        10  AGAL      O6             -2.8422002468        3.2597515817       45.1112340130  LPSA1     10              7.0000000000
       513        10  AGAL      HO6            -2.6664602844        2.7512752168       45.9237589285  LPSA1     10              7.0000000000
       514        11  BGLC      C1              1.8446444519        6.3290869644       44.5018065681  LPSA1     11              6.0000000000
       515        11  BGLC      H1              1.4236453645        7.3198275969       44.5883763758  LPSA1     11              6.0000000000
       516        11  BGLC      C5              4.2078729398        6.8816493669       45.1248117688  LPSA1     11              6.0000000000
       517        11  BGLC      H5              3.9704235204        7.9716914362       45.3871201921  LPSA1     11              6.0000000000
       518        11  BGLC      O5              3.2668032518        6.2843572424       44.0830650888  LPSA1     11              6.0000000000
       519        11  BGLC      C2              1.7312119115        5.5673337866       45.7977571702  LPSA1     11              6.0000000000
       520        11  BGLC      H2              1.9636624936        4.4746527045       45.7293388291  LPSA1     11              6.0000000000
       521        11  BGLC      O2              0.3411547311        5.5678514094       46.0886391483  LPSA1     11              6.0000000000
       522        11  BGLC      HO2             0.0710395156        4.6901139565       46.2788110113  LPSA1     11              6.0000000000
       523        11  BGLC      C3              2.6015100243        6.0699416680       46.8736276645  LPSA1     11              6.0000000000
       524        11  BGLC      H3              2.2128798311        7.1252259045       47.1984917368  LPSA1     11              6.0000000000
       525        11  BGLC      O3              2.4187576162        5.2273432725       48.0056213318  LPSA1     11              6.0000000000
       526        11  BGLC      C4              3.9829038288        6.0737236808       46.4390836423  LPSA1     11              6.0000000000
       527        11  BGLC      H4              4.2384422791        4.9865033351       46.2001611147  LPSA1     11              6.0000000000
       528        11  BGLC      O4              4.8672183868        6.4639250266       47.4766894645  LPSA1     11              6.0000000000
       529        11  BGLC      HO4             4.9012521807        5.7503503186       48.1247908570  LPSA1     11              6.0000000000
       530        11  BGLC      C6              5.6234354181        6.9724278685       44.5291127165  LPSA1     11              6.0000000000
       531        11  BGLC      H61             6.4255061087        7.0696505239       45.2481190913  LPSA1     11              6.0000000000
       532        11  BGLC      H62             5.7626165492        6.0640196351       43.8913252379  LPSA1     11              6.0000000000
       533        11  BGLC      O6              5.8088944061        8.0432881161       43.5637942269  LPSA1     11              6.0000000000
       534        11  BGLC      HO6             6.3877770314        8.6188775578       44.0054369298  LPSA1     11              6.0000000000
       535        12  BGLCNA    C1              2.1176149981        5.7398111361       49.3238540420  LPSA1     12              7.0000000000
       536        12  BGLCNA    H1              0.9838008171        5.8608510978       49.3874222992  LPSA1     12              7.0000000000
       537        12  BGLCNA    C5              2.3451842694        7.5521505458       50.8763077070  LPSA1     12              7.0000000000
       538        12  BGLCNA    H5              1.1757438046        7.6806712473       50.9814236466  LPSA1     12              7.0000000000
       539        12  BGLCNA    O5              2.7412087652        7.0166012089       49.5875345322  LPSA1     12              7.0000000000
       540        12  BGLCNA    C2              2.6114997010        4.7485947954       50.3245054808  LPSA1     12              7.0000000000
       541        12  BGLCNA    H2              3.7792333386        4.8462828305       50.3375086743  LPSA1     12              7.0000000000
       542        12  BGLCNA    N               2.0674265079        3.4075846827       50.0347611965  LPSA1     12              7.0000000000
       543        12  BGLCNA    HN              1.1257561442        3.4737726863       49.9972643287  LPSA1     12              7.0000000000
       544        12  BGLCNA    C               2.8520356153        2.3832095389       49.8903426450  LPSA1     12              7.0000000000
       545        12  BGLCNA    O               4.0532765876        2.5035238463       50.0855928044  LPSA1     12              7.0000000000
       546        12  BGLCNA    CT              2.2011176642        1.0726266117       49.5677689528  LPSA1     12              7.0000000000
       547        12  BGLCNA    HT1             2.2993060173        0.3431979921       50.3918503408  LPSA1     12              7.0000000000
       548        12  BGLCNA    HT2             2.8025961998        0.5296010782       48.7104760971  LPSA1     12              7.0000000000
       549        12  BGLCNA    HT3             1.1609410341        1.3077261984       49.2316245990  LPSA1     12              7.0000000000
       550        12  BGLCNA    C3              2.2515001283        5.1651082010       51.6995695120  LPSA1     12              7.0000000000
       551        12  BGLCNA    H3              1.0765820559        5.1641245708       51.8605307917  LPSA1     12              7.0000000000
       552        12  BGLCNA    O3              2.6578859136        4.2204046697       52.7272334264  LPSA1     12              7.0000000000
       553        12  BGLCNA    C4              2.8398401005        6.5153073490       51.9591692987  LPSA1     12              7.0000000000
       554        12  BGLCNA    H4              3.9931162714        6.5523190497       51.9037868612  LPSA1     12              7.0000000000
       555        12  BGLCNA    O4              2.5293028713        6.9829723214       53.2294962294  LPSA1     12              7.0000000000
       556        12  BGLCNA    HO4             1.5812282737        7.3016439470       53.2834945119  LPSA1     12              7.0000000000
       557        12  BGLCNA    C6              2.9081574118        8.9858689002       50.9528560558  LPSA1     12              7.0000000000
       558        12  BGLCNA    H61             2.7261363793        9.4071414324       51.9144325068  LPSA1     12              7.0000000000
       559        12  BGLCNA    H62             3.9750450855        8.8364357099       50.8287962869  LPSA1     12              7.0000000000
       560        12  BGLCNA    O6              2.4618375186        9.7480178749       49.8597561973  LPSA1     12              7.0000000000
       561        12  BGLCNA    HO6             1.6615939020       10.1327917237       50.1903398796  LPSA1     12              7.0000000000
       562        13  AGAL      C1              1.7022233259        3.9947511396       53.8132743488  LPSA1     13              8.0000000000
       563        13  AGAL      H1              1.3463336484        4.9772487236       54.1959401301  LPSA1     13              8.0000000000
       564        13  AGAL      C5              1.2308011678        1.6885932485       53.2950732168  LPSA1     13              8.0000000000
       565        13  AGAL      H5              2.0279693595        1.8053242505       52.5641412600  LPSA1     13              8.0000000000
       566        13  AGAL      O5              0.6694854490        2.9960574867       53.4918445955  LPSA1     13              8.0000000000
       567        13  AGAL      C2              2.3428061321        3.4071290376       55.1010141246  LPSA1     13              8.0000000000
       568        13  AGAL      H2              1.5288527272        3.1084918866       55.7917211299  LPSA1     13              8.0000000000
       569        13  AGAL      O2              3.1659358035        4.3394873554       55.7701983428  LPSA1     13              8.0000000000
       570        13  AGAL      C3              2.9355350858        1.9917551810       54.8979691660  LPSA1     13              8.0000000000
       571        13  AGAL      H3              3.6094078127        2.0240053565       54.0477453328  LPSA1     13              8.0000000000
       572        13  AGAL      O3              3.7726483914        1.5791976000       55.9888739531  LPSA1     13              8.0000000000
       573        13  AGAL      HO3             4.5440596049        1.1119063475       55.6848713412  LPSA1     13              8.0000000000
       574        13  AGAL      C4              1.9085643204        1.0737911979       54.5514025965  LPSA1     13              8.0000000000
       575        13  AGAL      H4              2.3519949513        0.0672923537       54.1954731349  LPSA1     13              8.0000000000
       576        13  AGAL      O4              0.9598589824        0.8632153259       55.5743212917  LPSA1     13              8.0000000000
       577        13  AGAL      HO4             0.6452537687        1.6462097098       56.0499681296  LPSA1     13              8.0000000000
       578        13  AGAL      C6              0.3584077460        0.7126436532       52.5301443486  LPSA1     13              8.0000000000
       579        13  AGAL      H61            -0.0321109905        1.1989154378       51.6253596531  LPSA1     13              8.0000000000
       580        13  AGAL      H62             0.9460952494       -0.2251236521       52.3684678279  LPSA1     13              8.0000000000
       581        13  AGAL      O6             -0.7578141459        0.3131954702       53.2985910507  LPSA1     13              8.0000000000
       582        13  AGAL      HO6            -0.4702931453       -0.3646512349       53.9299633642  LPSA1     13              8.0000000000
       583        14  ARHM      C1              2.7805745103        4.8580689332       57.0117786358  LPSA1     14              9.0000000000
       584        14  ARHM      H1              1.6714887160        4.8213751501       56.9981767125  LPSA1     14              9.0000000000
       585        14  ARHM      C5              4.5480634422        6.3621687400       57.1930138837  LPSA1     14              9.0000000000
       586        14  ARHM      H5              4.9435095770        5.9326573241       56.1976867078  LPSA1     14              9.0000000000
       587        14  ARHM      O5              3.1778220378        6.2106428654       57.1718909996  LPSA1     14              9.0000000000
       588        14  ARHM      C2              3.3792926522        3.9913534850       58.1413490634  LPSA1     14              9.0000000000
       589        14  ARHM      H2              3.0744441186        2.9839659611       57.8875987320  LPSA1     14              9.0000000000
       590        14  ARHM      O2              2.9842442683        4.3404261027       59.4330148990  LPSA1     14              9.0000000000
       591        14  ARHM      C3              4.8754001192        4.1125039211       58.1095432995  LPSA1     14              9.0000000000
       592        14  ARHM      H3              5.2113250116        3.9440855081       57.0440121713  LPSA1     14              9.0000000000
       593        14  ARHM      O3              5.5584596189        3.1536217650       58.8567888868  LPSA1     14              9.0000000000
       594        14  ARHM      HO3             5.4287765962        3.4291151663       59.8104957846  LPSA1     14              9.0000000000
       595        14  ARHM      C4              5.1947347227        5.5436215800       58.3490442956  LPSA1     14              9.0000000000
       596        14  ARHM      H4              4.8001697190        5.9934115139       59.2902338481  LPSA1     14              9.0000000000
       597        14  ARHM      O4              6.6375058310        5.6985361054       58.4446785014  LPSA1     14              9.0000000000
       598        14  ARHM      HO4             6.9871289830        5.9532356227       59.2969967688  LPSA1     14              9.0000000000
       599        14  ARHM      C6              4.9079825903        7.8564762372       57.2492155848  LPSA1     14              9.0000000000
       600        14  ARHM      H61             4.3042736243        8.5214482442       56.5358243550  LPSA1     14              9.0000000000
       601        14  ARHM      H62             4.8187828363        8.1422682702       58.3170764683  LPSA1     14              9.0000000000
       602        14  ARHM      H63             5.9042025654        8.1836598175       56.9421594120  LPSA1     14              9.0000000000
       603        15  ARHM      C1              1.6840173322        4.4830595867       59.7267990175  LPSA1     15             10.0000000000
       604        15  ARHM      H1              1.0472240297        3.8780067697       59.0458905905  LPSA1     15             10.0000000000
       605        15  ARHM      C5              1.7792616471        6.7877924182       60.6468530148  LPSA1     15             10.0000000000
       606        15  ARHM      H5              2.8810349946        6.9742802244       60.4457705401  LPSA1     15             10.0000000000
       607        15  ARHM      O5              1.2215467061        5.8557858872       59.6688136410  LPSA1     15             10.0000000000
       608        15  ARHM      C2              1.4213309008        3.9691883850       61.1407671534  LPSA1     15             10.0000000000
       609        15  ARHM      H2              1.8954817670        2.9175707080       61.2133420761  LPSA1     15             10.0000000000
       610        15  ARHM      O2             -0.0252229464        3.9376858853       61.3234079317  LPSA1     15             10.0000000000
       611        15  ARHM      C3              2.1036561434        4.8739791255       62.1677656617  LPSA1     15             10.0000000000
       612        15  ARHM      H3              3.1852113300        4.9379636081       61.8628392879  LPSA1     15             10.0000000000
       613        15  ARHM      O3              2.0964098152        4.1196483326       63.4092175029  LPSA1     15             10.0000000000
       614        15  ARHM      C4              1.5414806971        6.2076852576       62.0487117432  LPSA1     15             10.0000000000
       615        15  ARHM      H4              0.3858817562        6.1240350835       62.1496903561  LPSA1     15             10.0000000000
       616        15  ARHM      O4              1.9943959432        7.2092696846       62.9635513464  LPSA1     15             10.0000000000
       617        15  ARHM      HO4             1.3670713002        7.9164629753       62.9565205260  LPSA1     15             10.0000000000
       618        15  ARHM      C6              1.1574873345        8.1506833553       60.4460959132  LPSA1     15             10.0000000000
       619        15  ARHM      H61             1.5857583320        8.9594077502       61.0956562646  LPSA1     15             10.0000000000
       620        15  ARHM      H62             1.1094449169        8.3769446705       59.3910198679  LPSA1     15             10.0000000000
       621        15  ARHM      H63             0.1105672201        8.2047148621       60.8578185328  LPSA1     15             10.0000000000
       622        16  BMANNA    C1             -0.5740522690        3.3962884268       62.5145562334  LPSA1     16             11.0000000000
       623        16  BMANNA    H1             -0.3598757706        4.1691233548       63.3432051365  LPSA1     16             11.0000000000
       624        16  BMANNA    C5             -0.5967469142        1.7416224432       64.1851548173  LPSA1     16             11.0000000000
       625        16  BMANNA    H5             -0.4445811957        2.4834369220       64.9800677769  LPSA1     16             11.0000000000
       626        16  BMANNA    O5             -0.0212627852        2.1482966001       62.9158851071  LPSA1     16             11.0000000000
       627        16  BMANNA    C2             -2.0975202403        3.2735357334       62.2781089586  LPSA1     16             11.0000000000
       628        16  BMANNA    H2             -2.4178584712        4.3094388851       61.9912908466  LPSA1     16             11.0000000000
       629        16  BMANNA    N              -2.5684449132        2.3677481695       61.2264456342  LPSA1     16             11.0000000000
       630        16  BMANNA    HN             -2.7072057290        1.4676691595       61.5688724990  LPSA1     16             11.0000000000
       631        16  BMANNA    C              -2.7408127533        2.6974445209       59.9704010620  LPSA1     16             11.0000000000
       632        16  BMANNA    O              -2.5845534342        3.8794793213       59.5582221915  LPSA1     16             11.0000000000
       633        16  BMANNA    CT             -3.1442173652        1.5796173206       59.1331689300  LPSA1     16             11.0000000000
       634        16  BMANNA    HT1            -4.1806613490        1.5635032260       58.8344492748  LPSA1     16             11.0000000000
       635        16  BMANNA    HT2            -2.9233505727        0.5793230115       59.5043001239  LPSA1     16             11.0000000000
       636        16  BMANNA    HT3            -2.6218135777        1.6179393007       58.1231520073  LPSA1     16             11.0000000000
       637        16  BMANNA    C3             -2.6879231172        2.8901634258       63.6119771117  LPSA1     16             11.0000000000
       638        16  BMANNA    H3             -2.4330091937        3.6624139381       64.3839812837  LPSA1     16             11.0000000000
       639        16  BMANNA    O3             -4.0856060550        2.8404323634       63.6122488842  LPSA1     16             11.0000000000
       640        16  BMANNA    HO3            -4.4421003362        3.3931918701       64.2950500102  LPSA1     16             11.0000000000
       641        16  BMANNA    C4             -2.1237761349        1.5513919671       64.1045846713  LPSA1     16             11.0000000000
       642        16  BMANNA    H4             -2.3605207286        0.7209157695       63.4124605202  LPSA1     16             11.0000000000
       643        16  BMANNA    O4             -2.5856339782        1.0748071235       65.3816866120  LPSA1     16             11.0000000000
       644        16  BMANNA    HO4            -2.4934049368        0.1246114320       65.4353184152  LPSA1     16             11.0000000000
       645        16  BMANNA    C6              0.0560676729        0.4702358355       64.7427751243  LPSA1     16             11.0000000000
       646        16  BMANNA    H61            -0.0029686103        0.5365158876       65.8875394407  LPSA1     16             11.0000000000
       647        16  BMANNA    H62            -0.4917935518       -0.4243007460       64.4389269682  LPSA1     16             11.0000000000
       648        16  BMANNA    O6              1.4370535743        0.3000963283       64.3660927576  LPSA1     16             11.0000000000
       649        16  BMANNA    HO6             1.4089639335       -0.5666240223       63.9036969990  LPSA1     16             11.0000000000
       650        17  BGLCNA    C1              3.1997822571        4.2442219227       64.1715778089  LPSA1     17             11.0000000000
       651        17  BGLCNA    H1              3.7084384024        5.2578520370       63.9082176002  LPSA1     17             11.0000000000
       652        17  BGLCNA    C5              5.4358954365        3.3368369971       64.5563394407  LPSA1     17             11.0000000000
       653        17  BGLCNA    H5              5.9796268341        4.3170743782       64.2825289487  LPSA1     17             11.0000000000
       654        17  BGLCNA    O5              4.2262076312        3.2855085966       63.7849982893  LPSA1     17             11.0000000000
       655        17  BGLCNA    C2              2.7925907325        4.0802864145       65.5899343931  LPSA1     17             11.0000000000
       656        17  BGLCNA    H2              2.3215131665        3.0667228862       65.8249043900  LPSA1     17             11.0000000000
       657        17  BGLCNA    N               1.7293217153        4.9532799767       65.8849826081  LPSA1     17             11.0000000000
       658        17  BGLCNA    HN              1.6988134019        5.8555081344       65.4150135415  LPSA1     17             11.0000000000
       659        17  BGLCNA    C               0.7847923849        4.8634824890       66.8043620798  LPSA1     17             11.0000000000
       660        17  BGLCNA    O               0.6263224905        3.8490355133       67.4729873017  LPSA1     17             11.0000000000
       661        17  BGLCNA    CT             -0.0767342859        6.0567916558       66.9728872304  LPSA1     17             11.0000000000
       662        17  BGLCNA    HT1            -1.0988566512        6.0627741308       66.5529393721  LPSA1     17             11.0000000000
       663        17  BGLCNA    HT2             0.5294555435        6.9434997021       66.7043805047  LPSA1     17             11.0000000000
       664        17  BGLCNA    HT3            -0.2619187961        6.2585028313       68.1408097225  LPSA1     17             11.0000000000
       665        17  BGLCNA    C3              4.0527354324        4.2547927187       66.4076579941  LPSA1     17             11.0000000000
       666        17  BGLCNA    H3              4.4181092435        5.2732629062       66.0441361901  LPSA1     17             11.0000000000
       667        17  BGLCNA    O3              3.6506277911        4.3721056482       67.8205355914  LPSA1     17             11.0000000000
       668        17  BGLCNA    C4              5.0280634818        3.1421072849       66.0496966154  LPSA1     17             11.0000000000
       669        17  BGLCNA    H4              4.5312897303        2.1112157250       66.1123142204  LPSA1     17             11.0000000000
       670        17  BGLCNA    O4              6.1417178341        3.0995593360       66.9186044206  LPSA1     17             11.0000000000
       671        17  BGLCNA    HO4             6.8011256870        2.4455287931       66.7204061560  LPSA1     17             11.0000000000
       672        17  BGLCNA    C6              6.3761677396        2.1961486190       64.1200051697  LPSA1     17             11.0000000000
       673        17  BGLCNA    H61             7.3936511971        2.5354897404       64.1272946536  LPSA1     17             11.0000000000
       674        17  BGLCNA    H62             6.3000395743        1.3087588381       64.8212395067  LPSA1     17             11.0000000000
       675        17  BGLCNA    O6              6.0952746664        1.7311642463       62.7926115083  LPSA1     17             11.0000000000
       676        17  BGLCNA    HO6             6.1885652570        2.4568206434       62.1856770532  LPSA1     17             11.0000000000
       677        18  AGAL      C1              4.4440263491        5.2860526789       68.6198653987  LPSA1     18             12.0000000000
       678        18  AGAL      H1              5.4393763220        4.7848873771       68.8082567594  LPSA1     18             12.0000000000
       679        18  AGAL      C5              3.4183497717        7.3216615809       67.8636918791  LPSA1     18             12.0000000000
       680        18  AGAL      H5              2.6557275393        6.6846143872       67.4068928888  LPSA1     18             12.0000000000
       681        18  AGAL      O5              4.6535449375        6.5276359131       67.9834320655  LPSA1     18             12.0000000000
       682        18  AGAL      C2              3.7559463298        5.6114906560       70.0000206359  LPSA1     18             12.0000000000
       683        18  AGAL      H2              4.5152418677        6.3273419130       70.3908489884  LPSA1     18             12.0000000000
       684        18  AGAL      O2              3.7943721341        4.5016221747       70.8342757016  LPSA1     18             12.0000000000
       685        18  AGAL      C3              2.4874223069        6.3801216263       69.8682924558  LPSA1     18             12.0000000000
       686        18  AGAL      H3              1.8090551493        5.8319392568       69.0958348126  LPSA1     18             12.0000000000
       687        18  AGAL      O3              1.7957720148        6.4881083492       71.0758896640  LPSA1     18             12.0000000000
       688        18  AGAL      HO3             0.8632110122        6.2929737665       70.9682873819  LPSA1     18             12.0000000000
       689        18  AGAL      C4              2.7659471249        7.6454554426       69.1634745928  LPSA1     18             12.0000000000
       690        18  AGAL      H4              1.8753511978        8.2647412111       68.9039691178  LPSA1     18             12.0000000000
       691        18  AGAL      O4              3.6090591237        8.5059790451       69.9734134928  LPSA1     18             12.0000000000
       692        18  AGAL      HO4             3.0476222775        8.9077765801       70.7236544006  LPSA1     18             12.0000000000
       693        18  AGAL      C6              3.6332955365        8.3085115139       66.8042742825  LPSA1     18             12.0000000000
       694        18  AGAL      H61             3.8209682870        7.7469252211       65.8877991861  LPSA1     18             12.0000000000
       695        18  AGAL      H62             2.6501069988        8.8305505318       66.6499463921  LPSA1     18             12.0000000000
       696        18  AGAL      O6              4.6522278631        9.1529682314       66.9803033045  LPSA1     18             12.0000000000
       697        18  AGAL      HO6             5.2769875670        8.9560826388       67.6707071977  LPSA1     18             12.0000000000
       698        19  ARHM      C1              4.1532066203        4.9060025480       72.1803514454  LPSA1     19             13.0000000000
       699        19  ARHM      H1              3.9745929472        5.9534376556       72.3185909119  LPSA1     19             13.0000000000
       700        19  ARHM      C5              6.1055672762        3.5619370378       72.2512180912  LPSA1     19             13.0000000000
       701        19  ARHM      H5              5.8390825545        3.2343137240       71.2133247196  LPSA1     19             13.0000000000
       702        19  ARHM      O5              5.5680675046        4.8752647435       72.4162684983  LPSA1     19             13.0000000000
       703        19  ARHM      C2              3.4185526577        4.0126998475       73.1100514097  LPSA1     19             13.0000000000
       704        19  ARHM      H2              2.3760853026        3.9245347474       72.9420985559  LPSA1     19             13.0000000000
       705        19  ARHM      O2              3.6022046284        4.4463193126       74.4131644751  LPSA1     19             13.0000000000
       706        19  ARHM      C3              4.0339757662        2.5844212110       72.9859276785  LPSA1     19             13.0000000000
       707        19  ARHM      H3              3.9270251306        2.2826903005       71.9471750908  LPSA1     19             13.0000000000
       708        19  ARHM      O3              3.3457882532        1.6734706497       73.7644258584  LPSA1     19             13.0000000000
       709        19  ARHM      HO3             3.2791060476        2.0560787989       74.6464134549  LPSA1     19             13.0000000000
       710        19  ARHM      C4              5.4811612783        2.5558165633       73.2443334127  LPSA1     19             13.0000000000
       711        19  ARHM      H4              5.6091276593        2.9234768959       74.2703943704  LPSA1     19             13.0000000000
       712        19  ARHM      O4              6.0768506209        1.2989585825       73.1708570575  LPSA1     19             13.0000000000
       713        19  ARHM      HO4             5.9906216390        1.0156785737       72.2126258713  LPSA1     19             13.0000000000
       714        19  ARHM      C6              7.6439326038        3.5757740628       72.3031700958  LPSA1     19             13.0000000000
       715        19  ARHM      H61             7.8649009486        4.2819534578       71.5186681997  LPSA1     19             13.0000000000
       716        19  ARHM      H62             8.0987285595        3.9297720017       73.2001761489  LPSA1     19             13.0000000000
       717        19  ARHM      H63             8.0957262454        2.6034177845       72.0875448643  LPSA1     19             13.0000000000
       718        20  ARHM      C1              2.8327268875        5.5677471984       74.6981797177  LPSA1     20             14.0000000000
       719        20  ARHM      H1              2.0567916142        5.7853641022       73.8936196974  LPSA1     20             14.0000000000
       720        20  ARHM      C5              4.4166779775        6.8128028635       75.9960310464  LPSA1     20             14.0000000000
       721        20  ARHM      H5              5.0846942454        5.9338926478       75.8071112250  LPSA1     20             14.0000000000
       722        20  ARHM      O5              3.5253489235        6.8043996446       74.8741575474  LPSA1     20             14.0000000000
       723        20  ARHM      C2              1.9895286951        5.3058282093       75.9438944127  LPSA1     20             14.0000000000
       724        20  ARHM      H2              1.4993693113        4.2561039852       75.7904987900  LPSA1     20             14.0000000000
       725        20  ARHM      O2              1.0038222143        6.3284553769       76.2145535291  LPSA1     20             14.0000000000
       726        20  ARHM      C3              2.9255360537        5.3127117105       77.0746584307  LPSA1     20             14.0000000000
       727        20  ARHM      H3              3.7023982963        4.4691420725       76.9570890266  LPSA1     20             14.0000000000
       728        20  ARHM      O3              2.1411325161        4.9653248946       78.2431898216  LPSA1     20             14.0000000000
       729        20  ARHM      C4              3.6544425882        6.6070002998       77.2147849866  LPSA1     20             14.0000000000
       730        20  ARHM      H4              2.9996940804        7.4508324892       77.2882629629  LPSA1     20             14.0000000000
       731        20  ARHM      O4              4.4393432330        6.5732265417       78.4294019453  LPSA1     20             14.0000000000
       732        20  ARHM      HO4             5.1048485290        7.1281533115       78.0714846557  LPSA1     20             14.0000000000
       733        20  ARHM      C6              5.2321405422        8.0377420664       75.9818768401  LPSA1     20             14.0000000000
       734        20  ARHM      H61             4.7229444619        9.0456137386       76.0487105533  LPSA1     20             14.0000000000
       735        20  ARHM      H62             6.0062585361        7.9807332736       76.7492574554  LPSA1     20             14.0000000000
       736        20  ARHM      H63             5.8182615093        8.2013483691       75.0059134709  LPSA1     20             14.0000000000
       737        21  BMANNA    C1             -0.1007881635        6.0061117412       75.4501725836  LPSA1     21             15.0000000000
       738        21  BMANNA    H1              0.1478911870        5.1980203267       74.6495731600  LPSA1     21             15.0000000000
       739        21  BMANNA    C5             -1.5213752381        6.6617481945       73.6578092950  LPSA1     21             15.0000000000
       740        21  BMANNA    H5             -1.3140410212        5.6830384603       73.0422409194  LPSA1     21             15.0000000000
       741        21  BMANNA    O5             -0.4415977942        7.1122902665       74.5460975074  LPSA1     21             15.0000000000
       742        21  BMANNA    C2             -1.2572751214        5.6495046664       76.3268603500  LPSA1     21             15.0000000000
       743        21  BMANNA    H2             -0.8554693690        4.7899242288       76.8663433126  LPSA1     21             15.0000000000
       744        21  BMANNA    N              -1.5898057039        6.7224614255       77.2602735953  LPSA1     21             15.0000000000
       745        21  BMANNA    HN             -1.7333056989        7.5972233148       76.8630196157  LPSA1     21             15.0000000000
       746        21  BMANNA    C              -1.9843980026        6.5440155769       78.6142451918  LPSA1     21             15.0000000000
       747        21  BMANNA    O              -2.2536932179        5.4182510930       79.0340579138  LPSA1     21             15.0000000000
       748        21  BMANNA    CT             -2.1216352192        7.7934377904       79.5125915666  LPSA1     21             15.0000000000
       749        21  BMANNA    HT1            -3.1094924914        8.2662222768       79.3040814335  LPSA1     21             15.0000000000
       750        21  BMANNA    HT2            -1.2313066788        8.4157516254       79.3224353366  LPSA1     21             15.0000000000
       751        21  BMANNA    HT3            -2.1140443600        7.4919615976       80.6000991146  LPSA1     21             15.0000000000
       752        21  BMANNA    C3             -2.3725917866        5.2145396736       75.4428482744  LPSA1     21             15.0000000000
       753        21  BMANNA    H3             -1.9433177972        4.3222360619       75.0091666053  LPSA1     21             15.0000000000
       754        21  BMANNA    O3             -3.5222134783        4.8216390028       76.1769203835  LPSA1     21             15.0000000000
       755        21  BMANNA    HO3            -3.7569364425        5.5385797706       76.7354970047  LPSA1     21             15.0000000000
       756        21  BMANNA    C4             -2.7442577182        6.3185927589       74.4866217523  LPSA1     21             15.0000000000
       757        21  BMANNA    H4             -3.2091538449        7.2945153791       75.0002820064  LPSA1     21             15.0000000000
       758        21  BMANNA    O4             -3.7727654848        5.9448078276       73.6152290754  LPSA1     21             15.0000000000
       759        21  BMANNA    HO4            -4.5805574022        6.4826572320       73.7703874424  LPSA1     21             15.0000000000
       760        21  BMANNA    C6             -1.8132610923        7.6323755411       72.6348027846  LPSA1     21             15.0000000000
       761        21  BMANNA    H61            -2.5005971550        7.2548394667       71.8494922130  LPSA1     21             15.0000000000
       762        21  BMANNA    H62            -2.4851112406        8.4290018693       73.0558617198  LPSA1     21             15.0000000000
       763        21  BMANNA    O6             -0.7376973577        8.3156930201       72.0654385618  LPSA1     21             15.0000000000
       764        21  BMANNA    HO6            -0.2297735481        8.7011800240       72.7784055652  LPSA1     21             15.0000000000
       765        22  BGLCNA    C1              2.6794002978        4.1520996015       79.2248726046  LPSA1     22             15.0000000000
       766        22  BGLCNA    H1              3.8074977309        4.1691939727       79.2753119810  LPSA1     22             15.0000000000
       767        22  BGLCNA    C5              2.9563623200        1.9330999773       80.1145289529  LPSA1     22             15.0000000000
       768        22  BGLCNA    H5              4.1080263692        2.1399648635       80.0727605020  LPSA1     22             15.0000000000
       769        22  BGLCNA    O5              2.3689843942        2.7968569287       79.0803056561  LPSA1     22             15.0000000000
       770        22  BGLCNA    C2              2.1645748015        4.6236011193       80.5602818744  LPSA1     22             15.0000000000
       771        22  BGLCNA    H2              1.0341598184        4.4534913158       80.4633107900  LPSA1     22             15.0000000000
       772        22  BGLCNA    N               2.4800225182        6.0291116085       80.7025670875  LPSA1     22             15.0000000000
       773        22  BGLCNA    HN              3.3863088227        6.2924508696       80.4501896382  LPSA1     22             15.0000000000
       774        22  BGLCNA    C               1.7255399941        6.9080231477       81.3295640408  LPSA1     22             15.0000000000
       775        22  BGLCNA    O               0.6420374714        6.5767515661       81.8448112003  LPSA1     22             15.0000000000
       776        22  BGLCNA    CT              2.2333859839        8.3016008313       81.4359073222  LPSA1     22             15.0000000000
       777        22  BGLCNA    HT1             1.8343297326        8.7537462229       80.5353412834  LPSA1     22             15.0000000000
       778        22  BGLCNA    HT2             3.3352655327        8.2657984567       81.2752873926  LPSA1     22             15.0000000000
       779        22  BGLCNA    HT3             2.0609562376        8.7973891233       82.3679651303  LPSA1     22             15.0000000000
       780        22  BGLCNA    C3              2.7145640501        3.7772962782       81.6855161512  LPSA1     22             15.0000000000
       781        22  BGLCNA    H3              3.8314174946        3.8304561085       81.6419517197  LPSA1     22             15.0000000000
       782        22  BGLCNA    O3              2.2695885745        4.3936440437       82.8729300216  LPSA1     22             15.0000000000
       783        22  BGLCNA    C4              2.3617852078        2.3021420668       81.4704242134  LPSA1     22             15.0000000000
       784        22  BGLCNA    H4              1.3056675636        2.2663329981       81.4144045074  LPSA1     22             15.0000000000
       785        22  BGLCNA    O4              2.8163097474        1.4691617945       82.5140850489  LPSA1     22             15.0000000000
       786        22  BGLCNA    HO4             2.1282357783        0.8109671605       82.7130071916  LPSA1     22             15.0000000000
       787        22  BGLCNA    C6              2.6306167587        0.4971498081       79.7284495560  LPSA1     22             15.0000000000
       788        22  BGLCNA    H61             2.7782967395       -0.0732996506       80.6924177192  LPSA1     22             15.0000000000
       789        22  BGLCNA    H62             1.5579389121        0.3812517621       79.4648784538  LPSA1     22             15.0000000000
       790        22  BGLCNA    O6              3.5029335884       -0.0693444676       78.8100863794  LPSA1     22             15.0000000000
       791        22  BGLCNA    HO6             3.5047107562        0.4656782252       78.0328486455  LPSA1     22             15.0000000000
       792        23  AGAL      C1              2.9247547032        4.1426526951       84.0628261254  LPSA1     23             16.0000000000
       793        23  AGAL      H1              2.6594279696        3.1451214065       84.5106287163  LPSA1     23             16.0000000000
       794        23  AGAL      C5              4.8349425907        5.5315639030       83.7583018441  LPSA1     23             16.0000000000
       795        23  AGAL      H5              4.2917407246        5.9612919292       82.8366412438  LPSA1     23             16.0000000000
       796        23  AGAL      O5              4.3518705145        4.2293873216       83.9976212264  LPSA1     23             16.0000000000
       797        23  AGAL      C2              2.4536360585        5.0987745106       85.1427633740  LPSA1     23             16.0000000000
       798        23  AGAL      H2              3.0072318791        4.8125800384       86.0076373284  LPSA1     23             16.0000000000
       799        23  AGAL      O2              1.1014180303        4.9408847720       85.5000844886  LPSA1     23             16.0000000000
       800        23  AGAL      C3              2.9009429647        6.5020215164       84.9194901020  LPSA1     23             16.0000000000
       801        23  AGAL      H3              2.5736622951        6.7540062924       83.8641570193  LPSA1     23             16.0000000000
       802        23  AGAL      O3              2.3114895634        7.4666647414       85.7108298168  LPSA1     23             16.0000000000
       803        23  AGAL      HO3             2.3560971710        7.0946694077       86.6206525111  LPSA1     23             16.0000000000
       804        23  AGAL      C4              4.4001052140        6.4996896422       84.8901212015  LPSA1     23             16.0000000000
       805        23  AGAL      H4              4.8270232418        7.5000094505       84.6506069022  LPSA1     23             16.0000000000
       806        23  AGAL      O4              5.0518735312        6.1931549444       86.1132943683  LPSA1     23             16.0000000000
       807        23  AGAL      HO4             5.7824282029        5.7446080417       85.8278371007  LPSA1     23             16.0000000000
       808        23  AGAL      C6              6.2771350132        5.5042141651       83.3278962909  LPSA1     23             16.0000000000
       809        23  AGAL      H61             6.4202075885        4.7422222687       82.6074235255  LPSA1     23             16.0000000000
       810        23  AGAL      H62             6.5650035384        6.3949975279       82.7620574208  LPSA1     23             16.0000000000
       811        23  AGAL      O6              7.1011070933        5.1967373896       84.3845202183  LPSA1     23             16.0000000000
       812        23  AGAL      HO6             8.0200258662        5.1215041715       84.1740981585  LPSA1     23             16.0000000000
       813        24  ARHM      C1              0.5931621436        3.8754859886       86.2818185944  LPSA1     24             17.0000000000
       814        24  ARHM      H1              1.3696937174        3.1401463529       86.3680542693  LPSA1     24             17.0000000000
       815        24  ARHM      C5             -1.7110600451        3.9962245915       85.6157638072  LPSA1     24             17.0000000000
       816        24  ARHM      H5             -1.4545266442        4.8372271890       85.0070975499  LPSA1     24             17.0000000000
       817        24  ARHM      O5             -0.6094948313        3.1282895254       85.8657410059  LPSA1     24             17.0000000000
       818        24  ARHM      C2              0.3251760268        4.5380188147       87.5921581840  LPSA1     24             17.0000000000
       819        24  ARHM      H2              1.1349523290        5.1738234842       87.8984046741  LPSA1     24             17.0000000000
       820        24  ARHM      O2             -0.0781497254        3.5994499318       88.6075763533  LPSA1     24             17.0000000000
       821        24  ARHM      C3             -0.8924664773        5.4575277268       87.4133527752  LPSA1     24             17.0000000000
       822        24  ARHM      H3             -0.5852258184        6.1941812970       86.6640279609  LPSA1     24             17.0000000000
       823        24  ARHM      O3             -1.1854644135        6.2963108071       88.5620392964  LPSA1     24             17.0000000000
       824        24  ARHM      HO3            -1.7595272113        5.7556947405       89.1463757531  LPSA1     24             17.0000000000
       825        24  ARHM      C4             -2.1160654815        4.6841743084       86.9402325015  LPSA1     24             17.0000000000
       826        24  ARHM      H4             -2.3067407074        3.8317923240       87.7071552895  LPSA1     24             17.0000000000
       827        24  ARHM      O4             -3.2963103078        5.4509767741       86.8379508285  LPSA1     24             17.0000000000
       828        24  ARHM      HO4            -4.0898790186        4.9748987098       87.0219124236  LPSA1     24             17.0000000000
       829        24  ARHM      C6             -2.9307225366        3.2649274226       84.9175891319  LPSA1     24             17.0000000000
       830        24  ARHM      H61            -3.5214318235        4.0088102905       84.3853494017  LPSA1     24             17.0000000000
       831        24  ARHM      H62            -2.4990979038        2.5732038146       84.2649634992  LPSA1     24             17.0000000000
       832        24  ARHM      H63            -3.5073683990        2.6439357150       85.6811466487  LPSA1     24             17.0000000000
       833        25  ARHM      C1              1.0528492963        2.9341310332       89.1588742089  LPSA1     25             18.0000000000
       834        25  ARHM      H1              1.8618033799        2.9765812968       88.4722246341  LPSA1     25             18.0000000000
       835        25  ARHM      C5             -0.1966844021        1.1604608310       90.1670531641  LPSA1     25             18.0000000000
       836        25  ARHM      H5             -1.1385939273        1.5506424380       89.8870230824  LPSA1     25             18.0000000000
       837        25  ARHM      O5              0.8469967787        1.5094666226       89.2315309535  LPSA1     25             18.0000000000
       838        25  ARHM      C2              1.3773062773        3.5377415619       90.4685713243  LPSA1     25             18.0000000000
       839        25  ARHM      H2              1.4016807930        4.6722892881       90.3413143991  LPSA1     25             18.0000000000
       840        25  ARHM      O2              2.6716735726        3.0436921933       90.9328696740  LPSA1     25             18.0000000000
       841        25  ARHM      C3              0.2493653299        3.0951559144       91.4562257518  LPSA1     25             18.0000000000
       842        25  ARHM      H3             -0.7050934344        3.5316031688       91.0689171631  LPSA1     25             18.0000000000
       843        25  ARHM      O3              0.5580574078        3.7053604762       92.6920647463  LPSA1     25             18.0000000000
       844        25  ARHM      C4              0.1004697008        1.6781345516       91.5960769721  LPSA1     25             18.0000000000
       845        25  ARHM      H4              1.1053252185        1.1589615604       91.8876801091  LPSA1     25             18.0000000000
       846        25  ARHM      O4             -0.9049690138        1.4613407086       92.5862492282  LPSA1     25             18.0000000000
       847        25  ARHM      HO4            -0.6141818473        0.6767875508       93.0149361445  LPSA1     25             18.0000000000
       848        25  ARHM      C6             -0.4465615809       -0.3463286549       90.2083352735  LPSA1     25             18.0000000000
       849        25  ARHM      H61            -0.5680803898       -0.7778571169       89.1912344565  LPSA1     25             18.0000000000
       850        25  ARHM      H62             0.3979862105       -0.9270356308       90.6686969550  LPSA1     25             18.0000000000
       851        25  ARHM      H63            -1.3800284326       -0.6393776863       90.8233913566  LPSA1     25             18.0000000000
       852        26  BMANNA    C1              3.7756527840        3.6601823147       90.3138108879  LPSA1     26             19.0000000000
       853        26  BMANNA    H1              3.4969977997        4.6465776454       89.8388342826  LPSA1     26             19.0000000000
       854        26  BMANNA    C5              5.4682698216        3.6408626841       88.6312665858  LPSA1     26             19.0000000000
       855        26  BMANNA    H5              5.0307226850        4.5303102935       88.1771240033  LPSA1     26             19.0000000000
       856        26  BMANNA    O5              4.3943139965        2.9080113026       89.2346891933  LPSA1     26             19.0000000000
       857        26  BMANNA    C2              4.7590661384        3.9154581133       91.3475147821  LPSA1     26             19.0000000000
       858        26  BMANNA    H2              4.2114991574        4.5632467788       92.1081287357  LPSA1     26             19.0000000000
       859        26  BMANNA    N               5.1781808347        2.6184283302       91.9238920796  LPSA1     26             19.0000000000
       860        26  BMANNA    HN              5.5229238238        1.9717820687       91.3050515894  LPSA1     26             19.0000000000
       861        26  BMANNA    C               5.2029946200        2.3350529367       93.1798471680  LPSA1     26             19.0000000000
       862        26  BMANNA    O               4.6765001023        3.1073121814       94.0003587425  LPSA1     26             19.0000000000
       863        26  BMANNA    CT              5.8958505199        1.0665541187       93.6758917343  LPSA1     26             19.0000000000
       864        26  BMANNA    HT1             5.9366349833        0.4028631392       92.8666282051  LPSA1     26             19.0000000000
       865        26  BMANNA    HT2             5.6291715453        0.5665449880       94.6620984389  LPSA1     26             19.0000000000
       866        26  BMANNA    HT3             6.9365111447        1.3665503355       93.8484898219  LPSA1     26             19.0000000000
       867        26  BMANNA    C3              5.8870339038        4.7317216965       90.7100883268  LPSA1     26             19.0000000000
       868        26  BMANNA    H3              5.4459555619        5.6901439630       90.3384445889  LPSA1     26             19.0000000000
       869        26  BMANNA    O3              6.8187714330        5.0977201959       91.7636866611  LPSA1     26             19.0000000000
       870        26  BMANNA    HO3             6.3440909680        5.7778232567       92.2265744207  LPSA1     26             19.0000000000
       871        26  BMANNA    C4              6.4637253095        3.9717275470       89.6481622736  LPSA1     26             19.0000000000
       872        26  BMANNA    H4              6.9256766502        2.9738914078       89.9013799111  LPSA1     26             19.0000000000
       873        26  BMANNA    O4              7.5418181198        4.6702775833       89.0416847738  LPSA1     26             19.0000000000
       874        26  BMANNA    HO4             8.3304815335        4.5134135617       89.5591157304  LPSA1     26             19.0000000000
       875        26  BMANNA    C6              5.8724909110        2.7893026704       87.3900617492  LPSA1     26             19.0000000000
       876        26  BMANNA    H61             4.9975601615        2.3071909405       86.9191763972  LPSA1     26             19.0000000000
       877        26  BMANNA    H62             6.3572277172        3.3716124878       86.6504270337  LPSA1     26             19.0000000000
       878        26  BMANNA    O6              6.7877253240        1.7545507123       87.7329108337  LPSA1     26             19.0000000000
       879        26  BMANNA    HO6             7.5291530478        2.1205443583       88.1688153196  LPSA1     26             19.0000000000
       880        27  BGLCNA    C1             -0.3392875641        4.3593485104       93.4616184899  LPSA1     27             19.0000000000
       881        27  BGLCNA    H1             -1.3016540692        3.8576185683       93.4392217979  LPSA1     27             19.0000000000
       882        27  BGLCNA    C5             -1.5876067863        6.3162670112       93.9656603721  LPSA1     27             19.0000000000
       883        27  BGLCNA    H5             -2.4954323824        5.6601021163       93.9564344452  LPSA1     27             19.0000000000
       884        27  BGLCNA    O5             -0.6562825314        5.7074884424       93.0607755266  LPSA1     27             19.0000000000
       885        27  BGLCNA    C2              0.2331261488        4.3291229365       94.8806799918  LPSA1     27             19.0000000000
       886        27  BGLCNA    H2              1.1429829807        4.9540075751       94.8757458582  LPSA1     27             19.0000000000
       887        27  BGLCNA    N               0.5904345874        2.9722751784       95.2501113516  LPSA1     27             19.0000000000
       888        27  BGLCNA    HN             -0.1500042451        2.2409109554       95.0827132934  LPSA1     27             19.0000000000
       889        27  BGLCNA    C               1.7828728260        2.8290652895       95.9523160909  LPSA1     27             19.0000000000
       890        27  BGLCNA    O               2.4262805594        3.7608577150       96.5238801166  LPSA1     27             19.0000000000
       891        27  BGLCNA    CT              2.2947251261        1.3572555777       96.0293745529  LPSA1     27             19.0000000000
       892        27  BGLCNA    HT1             1.6821660347        0.6903968686       95.3635606282  LPSA1     27             19.0000000000
       893        27  BGLCNA    HT2             2.3693370310        0.9590229669       97.0167906789  LPSA1     27             19.0000000000
       894        27  BGLCNA    HT3             3.4075862608        1.3823476283       95.7039804309  LPSA1     27             19.0000000000
       895        27  BGLCNA    C3             -0.7384183708        4.9589765145       95.7540348103  LPSA1     27             19.0000000000
       896        27  BGLCNA    H3             -1.7240406501        4.4305564038       95.7401190096  LPSA1     27             19.0000000000
       897        27  BGLCNA    O3             -0.1137964236        4.8411083590       97.0775356047  LPSA1     27             19.0000000000
       898        27  BGLCNA    C4             -1.0547552971        6.4118710387       95.3486864533  LPSA1     27             19.0000000000
       899        27  BGLCNA    H4             -0.1082261171        6.9986121471       95.3090014479  LPSA1     27             19.0000000000
       900        27  BGLCNA    O4             -1.9533323664        7.0001649396       96.2156872787  LPSA1     27             19.0000000000
       901        27  BGLCNA    HO4            -2.7582104348        6.5655174494       96.0162444362  LPSA1     27             19.0000000000
       902        27  BGLCNA    C6             -2.0139019719        7.6616378043       93.2852949846  LPSA1     27             19.0000000000
       903        27  BGLCNA    H61            -2.8820161343        8.0047671824       93.8557506920  LPSA1     27             19.0000000000
       904        27  BGLCNA    H62            -1.2364583252        8.4393571710       93.4725180191  LPSA1     27             19.0000000000
       905        27  BGLCNA    O6             -2.2965970652        7.4814370929       91.9076175409  LPSA1     27             19.0000000000
       906        27  BGLCNA    HO6            -2.5316762928        8.3561390803       91.5273290588  LPSA1     27             19.0000000000
       907        28  AGAL      C1             -0.9254639051        5.0240297015       98.2622020222  LPSA1     28             20.0000000000
       908        28  AGAL      H1             -1.2073083431        6.0416160345       98.3007149491  LPSA1     28             20.0000000000
       909        28  AGAL      C5             -1.9587138634        2.8325996165       98.1710438288  LPSA1     28             20.0000000000
       910        28  AGAL      H5             -1.0604377248        2.4901108222       97.4646141937  LPSA1     28             20.0000000000
       911        28  AGAL      O5             -2.1482661508        4.3054911720       98.1147365872  LPSA1     28             20.0000000000
       912        28  AGAL      C2             -0.3310814861        4.6102417505       99.6197190629  LPSA1     28             20.0000000000
       913        28  AGAL      H2             -1.1470781051        4.8547182156      100.2965066153  LPSA1     28             20.0000000000
       914        28  AGAL      O2              0.7933424774        5.3449525934      100.0788731798  LPSA1     28             20.0000000000
       915        28  AGAL      C3             -0.1230698460        3.1332113444       99.7396972452  LPSA1     28             20.0000000000
       916        28  AGAL      H3              0.5177813999        2.8081579672       98.8607737785  LPSA1     28             20.0000000000
       917        28  AGAL      O3              0.5458341172        2.6111609220      100.9043404272  LPSA1     28             20.0000000000
       918        28  AGAL      HO3             1.3638148855        2.2021874787      100.5606486229  LPSA1     28             20.0000000000
       919        28  AGAL      C4             -1.4101359221        2.4475502014       99.5102226768  LPSA1     28             20.0000000000
       920        28  AGAL      H4             -1.2215692729        1.4009280308       99.4798298294  LPSA1     28             20.0000000000
       921        28  AGAL      O4             -2.3745479006        2.7214337080      100.4757933835  LPSA1     28             20.0000000000
       922        28  AGAL      HO4            -2.3893844440        1.9805092968      101.0376442747  LPSA1     28             20.0000000000
       923        28  AGAL      C6             -3.1379777297        2.0152939259       97.6362902244  LPSA1     28             20.0000000000
       924        28  AGAL      H61            -3.2772331757        2.2406149138       96.5809275898  LPSA1     28             20.0000000000
       925        28  AGAL      H62            -3.0797157509        0.8728408737       97.7651048223  LPSA1     28             20.0000000000
       926        28  AGAL      O6             -4.3107901189        2.3569336709       98.3456070822  LPSA1     28             20.0000000000
       927        28  AGAL      HO6            -4.7327549199        3.1163252131       97.9416813930  LPSA1     28             20.0000000000
       928        29  ARHM      C1              0.6113553161        5.6537202462      101.4808913342  LPSA1     29             21.0000000000
       929        29  ARHM      H1             -0.0337864841        4.8708539007      101.9964955809  LPSA1     29             21.0000000000
       930        29  ARHM      C5              0.7779956592        7.9721764965      101.1486206043  LPSA1     29             21.0000000000
       931        29  ARHM      H5              0.9740050609        7.6953600971      100.0935446791  LPSA1     29             21.0000000000
       932        29  ARHM      O5              0.0356424673        6.9132680903      101.6833506475  LPSA1     29             21.0000000000
       933        29  ARHM      C2              1.9128701538        5.5537856722      102.1437305515  LPSA1     29             21.0000000000
       934        29  ARHM      H2              2.4095430897        4.6352969328      101.9067628034  LPSA1     29             21.0000000000
       935        29  ARHM      O2              1.8019425016        5.6446539748      103.5748524404  LPSA1     29             21.0000000000
       936        29  ARHM      C3              2.7697821905        6.6753061826      101.6289418068  LPSA1     29             21.0000000000
       937        29  ARHM      H3              2.9720876633        6.5042832817      100.4952263366  LPSA1     29             21.0000000000
       938        29  ARHM      O3              4.0442076155        6.5514929186      102.1995749427  LPSA1     29             21.0000000000
       939        29  ARHM      HO3             4.3842080151        7.3809733796      102.2092645043  LPSA1     29             21.0000000000
       940        29  ARHM      C4              2.1863413476        8.0052701715      101.8247918557  LPSA1     29             21.0000000000
       941        29  ARHM      H4              2.0730202019        8.2583112846      102.9338171738  LPSA1     29             21.0000000000
       942        29  ARHM      O4              2.9397570667        9.1420357047      101.3452167393  LPSA1     29             21.0000000000
       943        29  ARHM      HO4             3.3462656020        9.0102648856      100.4362974805  LPSA1     29             21.0000000000
       944        29  ARHM      C6             -0.1168424293        9.2224173673      101.2162231226  LPSA1     29             21.0000000000
       945        29  ARHM      H61            -1.1072958488        8.8471629719      100.7685423143  LPSA1     29             21.0000000000
       946        29  ARHM      H62            -0.2893224462        9.4839696361      102.3013153741  LPSA1     29             21.0000000000
       947        29  ARHM      H63             0.3355334782       10.0125693146      100.6072571094  LPSA1     29             21.0000000000
       948        30  ARHM      C1              1.7767012049        4.5195783633      104.3945976075  LPSA1     30             22.0000000000
       949        30  ARHM      H1              2.6993412590        3.9268020278      104.2094096401  LPSA1     30             22.0000000000
       950        30  ARHM      C5             -0.6507483004        4.3893209861      104.5143062533  LPSA1     30             22.0000000000
       951        30  ARHM      H5             -0.5442536853        5.3427382692      103.8668162917  LPSA1     30             22.0000000000
       952        30  ARHM      O5              0.5978938189        3.7085976257      104.2052433351  LPSA1     30             22.0000000000
       953        30  ARHM      C2              1.8034901894        4.9597522886      105.8471183130  LPSA1     30             22.0000000000
       954        30  ARHM      H2              2.6311109249        5.5648135268      106.0289718167  LPSA1     30             22.0000000000
       955        30  ARHM      O2              1.7855620190        3.7829645491      106.5813641610  LPSA1     30             22.0000000000
       956        30  ARHM      C3              0.5671942897        5.6389301723      106.2079894766  LPSA1     30             22.0000000000
       957        30  ARHM      H3              0.4049817313        6.4299125081      105.5270001340  LPSA1     30             22.0000000000
       958        30  ARHM      O3              0.5897658597        6.2308533613      107.5373891676  LPSA1     30             22.0000000000
       959        30  ARHM      C4             -0.6698798593        4.7664034904      105.9708288384  LPSA1     30             22.0000000000
       960        30  ARHM      H4             -0.6517515400        3.8347385381      106.5400372406  LPSA1     30             22.0000000000
       961        30  ARHM      O4             -1.8634794169        5.3252702533      106.2997755749  LPSA1     30             22.0000000000
       962        30  ARHM      HO4            -2.2831991615        5.9520489493      105.6964454668  LPSA1     30             22.0000000000
       963        30  ARHM      C6             -1.8216072490        3.5426655848      104.0930490251  LPSA1     30             22.0000000000
       964        30  ARHM      H61            -2.7437605474        4.1764315950      104.2143179997  LPSA1     30             22.0000000000
       965        30  ARHM      H62            -1.7773225981        3.3946889360      103.0019050467  LPSA1     30             22.0000000000
       966        30  ARHM      H63            -1.8996717363        2.5552839732      104.6493652223  LPSA1     30             22.0000000000
       967        31  BMANNA    C1              3.0440928941        3.2642533150      106.9502319096  LPSA1     31             23.0000000000
       968        31  BMANNA    H1              3.7179460458        4.1261844124      107.1550799008  LPSA1     31             23.0000000000
       969        31  BMANNA    C5              4.9737656646        1.9817628108      106.2136717625  LPSA1     31             23.0000000000
       970        31  BMANNA    H5              5.5287751073        2.8701963505      106.5467054000  LPSA1     31             23.0000000000
       971        31  BMANNA    O5              3.6410394670        2.4646181043      105.8742289322  LPSA1     31             23.0000000000
       972        31  BMANNA    C2              2.9021401287        2.4030241215      108.0830629221  LPSA1     31             23.0000000000
       973        31  BMANNA    H2              2.5583785264        3.0620002834      108.9031915743  LPSA1     31             23.0000000000
       974        31  BMANNA    N               1.8777361730        1.4509203158      107.8252935315  LPSA1     31             23.0000000000
       975        31  BMANNA    HN              1.6903383303        1.2173469099      106.8111160773  LPSA1     31             23.0000000000
       976        31  BMANNA    C               1.1334546364        0.8986051789      108.7868858964  LPSA1     31             23.0000000000
       977        31  BMANNA    O               1.2328797823        1.2335614876      109.9536662434  LPSA1     31             23.0000000000
       978        31  BMANNA    CT              0.1327300340       -0.1712391602      108.3237946568  LPSA1     31             23.0000000000
       979        31  BMANNA    HT1             0.6017450901       -0.7559021413      107.5739831696  LPSA1     31             23.0000000000
       980        31  BMANNA    HT2            -0.7502571509        0.3472609836      107.9347099034  LPSA1     31             23.0000000000
       981        31  BMANNA    HT3            -0.2545575562       -0.7503326609      109.1768357935  LPSA1     31             23.0000000000
       982        31  BMANNA    C3              4.2446435230        1.8887964375      108.4884560283  LPSA1     31             23.0000000000
       983        31  BMANNA    H3              4.9883773804        2.7453204625      108.6988550870  LPSA1     31             23.0000000000
       984        31  BMANNA    O3              4.1953619624        1.2039408686      109.7404994872  LPSA1     31             23.0000000000
       985        31  BMANNA    HO3             3.3713472219        1.5646823291      110.0111610137  LPSA1     31             23.0000000000
       986        31  BMANNA    C4              4.8235326753        1.0515625965      107.4199857710  LPSA1     31             23.0000000000
       987        31  BMANNA    H4              4.1750697762        0.1217679489      107.0572414185  LPSA1     31             23.0000000000
       988        31  BMANNA    O4              6.0618198120        0.5074242233      107.8525671122  LPSA1     31             23.0000000000
       989        31  BMANNA    HO4             6.6733362633        1.1976277968      108.1943429300  LPSA1     31             23.0000000000
       990        31  BMANNA    C6              5.6711164182        1.2562219180      105.0512686782  LPSA1     31             23.0000000000
       991        31  BMANNA    H61             6.7878657755        1.1078542674      105.3397811046  LPSA1     31             23.0000000000
       992        31  BMANNA    H62             5.2644831910        0.2654726311      104.8698551944  LPSA1     31             23.0000000000
       993        31  BMANNA    O6              5.5913214770        2.0075924377      103.8241467834  LPSA1     31             23.0000000000
       994        31  BMANNA    HO6             6.1545335085        2.8328391627      103.8134147631  LPSA1     31             23.0000000000
       995        32  BGLCNA    C1              0.3356271454        5.3864469431      108.6103969990  LPSA1     32             23.0000000000
       996        32  BGLCNA    H1              0.7556504071        4.3455340042      108.4325564695  LPSA1     32             23.0000000000
       997        32  BGLCNA    C5             -1.3315116556        4.2337334432      109.9277617404  LPSA1     32             23.0000000000
       998        32  BGLCNA    H5             -0.8469847809        3.2667057283      109.5374749077  LPSA1     32             23.0000000000
       999        32  BGLCNA    O5             -1.0445971303        5.2294670455      108.9423333575  LPSA1     32             23.0000000000
      1000        32  BGLCNA    C2              1.0190456858        5.8559915591      109.8194522937  LPSA1     32             23.0000000000
      1001        32  BGLCNA    H2              0.4807807128        6.7287061749      110.1044894257  LPSA1     32             23.0000000000
      1002        32  BGLCNA    N               2.3902689261        6.1659122090      109.5956973249  LPSA1     32             23.0000000000
      1003        32  BGLCNA    HN              2.7588457236        5.5377085102      108.8809076996  LPSA1     32             23.0000000000
      1004        32  BGLCNA    C               3.1380789856        7.1800739633      110.0864625708  LPSA1     32             23.0000000000
      1005        32  BGLCNA    O               2.7079717788        7.9664477711      110.9304085025  LPSA1     32             23.0000000000
      1006        32  BGLCNA    CT              4.5946533563        7.2911619724      109.5841031968  LPSA1     32             23.0000000000
      1007        32  BGLCNA    HT1             4.5257826211        6.6170593008      108.6281101354  LPSA1     32             23.0000000000
      1008        32  BGLCNA    HT2             5.3441562382        6.8474044676      110.1898124037  LPSA1     32             23.0000000000
      1009        32  BGLCNA    HT3             4.8794874484        8.3367827837      109.3122359934  LPSA1     32             23.0000000000
      1010        32  BGLCNA    C3              0.8482680120        4.8225544806      110.8930231790  LPSA1     32             23.0000000000
      1011        32  BGLCNA    H3              1.1637019448        3.9165265153      110.4606187373  LPSA1     32             23.0000000000
      1012        32  BGLCNA    O3              1.6477778063        5.0470599132      112.0657798240  LPSA1     32             23.0000000000
      1013        32  BGLCNA    C4             -0.6257952171        4.7090086179      111.1707572500  LPSA1     32             23.0000000000
      1014        32  BGLCNA    H4             -0.9726443805        5.7153168180      111.5318289610  LPSA1     32             23.0000000000
      1015        32  BGLCNA    O4             -0.8889426147        3.8000236723      112.2070236435  LPSA1     32             23.0000000000
      1016        32  BGLCNA    HO4            -0.9079884305        4.2290860338      113.0745323218  LPSA1     32             23.0000000000
      1017        32  BGLCNA    C6             -2.8274038267        4.0174881192      110.0229508171  LPSA1     32             23.0000000000
      1018        32  BGLCNA    H61            -3.0819331663        3.1357371515      110.7194343748  LPSA1     32             23.0000000000
      1019        32  BGLCNA    H62            -3.3063349063        4.9226993460      110.5717638480  LPSA1     32             23.0000000000
      1020        32  BGLCNA    O6             -3.4095784550        3.7177987731      108.7709294272  LPSA1     32             23.0000000000
      1021        32  BGLCNA    HO6            -2.7885277975        3.1605419572      108.2360311317  LPSA1     32             23.0000000000
      1022        33  AGAL      C1              2.1761839963        3.8434360159      112.6842874521  LPSA1     33             24.0000000000
      1023        33  AGAL      H1              1.3944478277        3.0847701598      112.5979959475  LPSA1     33             24.0000000000
      1024        33  AGAL      C5              4.4466926754        4.3506482044      112.2149219831  LPSA1     33             24.0000000000
      1025        33  AGAL      H5              3.9975008424        5.3023195240      111.8792915250  LPSA1     33             24.0000000000
      1026        33  AGAL      O5              3.4237334816        3.3869522552      112.0726784748  LPSA1     33             24.0000000000
      1027        33  AGAL      C2              2.4551586229        4.1765570317      114.1482787662  LPSA1     33             24.0000000000
      1028        33  AGAL      H2              2.9684390891        3.2302521614      114.5751854976  LPSA1     33             24.0000000000
      1029        33  AGAL      O2              1.2275593919        4.2501486599      114.8486222260  LPSA1     33             24.0000000000
      1030        33  AGAL      C3              3.5684258021        5.1839791021      114.2945545625  LPSA1     33             24.0000000000
      1031        33  AGAL      H3              3.3052054246        6.1490234321      113.7405815065  LPSA1     33             24.0000000000
      1032        33  AGAL      O3              3.7386353201        5.6548503857      115.5672660328  LPSA1     33             24.0000000000
      1033        33  AGAL      HO3             3.8452625343        5.0159483721      116.2400186851  LPSA1     33             24.0000000000
      1034        33  AGAL      C4              4.8442797891        4.6671129283      113.6708488317  LPSA1     33             24.0000000000
      1035        33  AGAL      H4              5.6281899727        5.4341420472      113.6729875792  LPSA1     33             24.0000000000
      1036        33  AGAL      O4              5.4594141301        3.4901806937      114.2435538900  LPSA1     33             24.0000000000
      1037        33  AGAL      HO4             4.9226628627        3.0753658059      114.9085525172  LPSA1     33             24.0000000000
      1038        33  AGAL      C6              5.6159591950        4.0759583002      111.2992528405  LPSA1     33             24.0000000000
      1039        33  AGAL      H61             5.1880493149        4.1411596280      110.2783408757  LPSA1     33             24.0000000000
      1040        33  AGAL      H62             6.4634784733        4.7856656636      111.3458027743  LPSA1     33             24.0000000000
      1041        33  AGAL      O6              6.2614674230        2.8466560301      111.4129476537  LPSA1     33             24.0000000000
      1042        33  AGAL      HO6             5.8643702801        2.1389625579      110.8444757795  LPSA1     33             24.0000000000
      1043        34  ARHM      C1              1.1705362478        3.4881470786      116.0109133884  LPSA1     34             25.0000000000
      1044        34  ARHM      H1              2.0698653068        3.6079030263      116.6389743656  LPSA1     34             25.0000000000
      1045        34  ARHM      C5             -0.0839997385        1.6457422162      115.0727799907  LPSA1     34             25.0000000000
      1046        34  ARHM      H5              0.0201856354        2.1152947965      114.0209633333  LPSA1     34             25.0000000000
      1047        34  ARHM      O5              1.0683228298        2.0543627089      115.8926868953  LPSA1     34             25.0000000000
      1048        34  ARHM      C2             -0.0121583817        4.0351188924      116.7601555753  LPSA1     34             25.0000000000
      1049        34  ARHM      H2             -0.0489154787        5.1528764346      116.8710959342  LPSA1     34             25.0000000000
      1050        34  ARHM      O2             -0.1661214826        3.5137316868      118.1592972339  LPSA1     34             25.0000000000
      1051        34  ARHM      C3             -1.2734690070        3.6538529698      115.9988665506  LPSA1     34             25.0000000000
      1052        34  ARHM      H3             -1.2549572442        4.0503473436      114.9724172480  LPSA1     34             25.0000000000
      1053        34  ARHM      O3             -2.5218434920        4.0925207473      116.5878695042  LPSA1     34             25.0000000000
      1054        34  ARHM      HO3            -3.1722241220        4.3822855868      115.9559434517  LPSA1     34             25.0000000000
      1055        34  ARHM      C4             -1.3947137011        2.1185067683      115.7987835878  LPSA1     34             25.0000000000
      1056        34  ARHM      H4             -1.3251198678        1.5646657527      116.7495315617  LPSA1     34             25.0000000000
      1057        34  ARHM      O4             -2.5465496021        1.7456319099      115.1362621200  LPSA1     34             25.0000000000
      1058        34  ARHM      HO4            -3.3194132605        1.7793436489      115.6953140327  LPSA1     34             25.0000000000
      1059        34  ARHM      C6             -0.1099049062        0.0923075147      114.8413279703  LPSA1     34             25.0000000000
      1060        34  ARHM      H61            -0.2425239281       -0.5081102274      115.7172490283  LPSA1     34             25.0000000000
      1061        34  ARHM      H62            -1.0923853436       -0.1505236610      114.3996926230  LPSA1     34             25.0000000000
      1062        34  ARHM      H63             0.6561722001       -0.3203256249      114.1590834060  LPSA1     34             25.0000000000
      1063        35  ARHM      C1              0.9222441189        3.7354637996      119.0795908573  LPSA1     35             26.0000000000
      1064        35  ARHM      H1              1.3565466229        4.8015584527      118.8787348947  LPSA1     35             26.0000000000
      1065        35  ARHM      C5              1.5367257662        1.3906968977      119.2408916176  LPSA1     35             26.0000000000
      1066        35  ARHM      H5              0.6699452434        1.0868002252      118.5254732223  LPSA1     35             26.0000000000
      1067        35  ARHM      O5              2.0293079326        2.7497837592      118.9290334222  LPSA1     35             26.0000000000
      1068        35  ARHM      C2              0.4041564901        3.7003588071      120.5365485050  LPSA1     35             26.0000000000
      1069        35  ARHM      H2             -0.3502421189        4.5188276110      120.7134209997  LPSA1     35             26.0000000000
      1070        35  ARHM      O2              1.4420933735        3.9407678201      121.4126203716  LPSA1     35             26.0000000000
      1071        35  ARHM      C3             -0.1726500382        2.3066540517      120.8720061906  LPSA1     35             26.0000000000
      1072        35  ARHM      H3             -1.0248253991        2.1414579433      120.1344793452  LPSA1     35             26.0000000000
      1073        35  ARHM      O3             -0.7651244561        2.2859351371      122.1540075829  LPSA1     35             26.0000000000
      1074        35  ARHM      HO3            -0.2694107959        2.8731541783      122.7288731339  LPSA1     35             26.0000000000
      1075        35  ARHM      C4              0.9349130431        1.3075770504      120.6788917534  LPSA1     35             26.0000000000
      1076        35  ARHM      H4              1.8336064924        1.4888737578      121.3307119103  LPSA1     35             26.0000000000
      1077        35  ARHM      O4              0.3685302946        0.0110192595      120.9693790153  LPSA1     35             26.0000000000
      1078        35  ARHM      HO4            -0.5145387879       -0.1391318356      120.5581709812  LPSA1     35             26.0000000000
      1079        35  ARHM      C6              2.6370766807        0.3397745820      118.8642347863  LPSA1     35             26.0000000000
      1080        35  ARHM      H61             2.8189328959        0.3236160571      117.7433556958  LPSA1     35             26.0000000000
      1081        35  ARHM      H62             3.4903555680        0.7002039043      119.4176110492  LPSA1     35             26.0000000000
      1082        35  ARHM      H63             2.1959255110       -0.6790400142      119.0633705917  LPSA1     35             26.0000000000
      1083        36  BMANNA    C1              1.9399526985        5.2443314027      121.4471464502  LPSA1     36             27.0000000000
      1084        36  BMANNA    H1              1.1777654408        5.9805733874      121.0972061898  LPSA1     36             27.0000000000
      1085        36  BMANNA    C5              3.4448518918        6.9980131955      120.7299884793  LPSA1     36             27.0000000000
      1086        36  BMANNA    H5              2.5553937554        7.5652039803      120.4610684421  LPSA1     36             27.0000000000
      1087        36  BMANNA    O5              3.1216146424        5.5723796608      120.6641532654  LPSA1     36             27.0000000000
      1088        36  BMANNA    C2              2.2560337072        5.5986412002      122.8920138725  LPSA1     36             27.0000000000
      1089        36  BMANNA    H2              1.3282077969        5.4366300011      123.4719477421  LPSA1     36             27.0000000000
      1090        36  BMANNA    N               3.2760533512        4.7048018704      123.4395449790  LPSA1     36             27.0000000000
      1091        36  BMANNA    HN              4.0699218152        4.4598598536      122.8746519580  LPSA1     36             27.0000000000
      1092        36  BMANNA    C               3.3321831669        4.4450302483      124.7737151700  LPSA1     36             27.0000000000
      1093        36  BMANNA    O               2.4917842846        4.7688910687      125.6190347561  LPSA1     36             27.0000000000
      1094        36  BMANNA    CT              4.5269452192        3.7432648100      125.3570716528  LPSA1     36             27.0000000000
      1095        36  BMANNA    HT1             5.4466920334        4.0959607118      124.8802869227  LPSA1     36             27.0000000000
      1096        36  BMANNA    HT2             4.5305924756        2.6319196934      125.1731404614  LPSA1     36             27.0000000000
      1097        36  BMANNA    HT3             4.6323924665        3.7950426689      126.4547536948  LPSA1     36             27.0000000000
      1098        36  BMANNA    C3              2.6421426718        7.0530584860      122.9763638711  LPSA1     36             27.0000000000
      1099        36  BMANNA    H3              1.8144401533        7.6905782591      122.6403873786  LPSA1     36             27.0000000000
      1100        36  BMANNA    O3              2.9028313207        7.4715820307      124.3414054450  LPSA1     36             27.0000000000
      1101        36  BMANNA    HO3             2.3217858596        8.1245683077      124.7171830083  LPSA1     36             27.0000000000
      1102        36  BMANNA    C4              3.8087796051        7.3621686485      122.1146940524  LPSA1     36             27.0000000000
      1103        36  BMANNA    H4              4.6893467458        6.8461268326      122.4263894750  LPSA1     36             27.0000000000
      1104        36  BMANNA    O4              4.1831096936        8.7345043492      122.2172873890  LPSA1     36             27.0000000000
      1105        36  BMANNA    HO4             4.3132927766        8.7534802738      123.1985163392  LPSA1     36             27.0000000000
      1106        36  BMANNA    C6              4.4998138930        7.2950449652      119.7412642597  LPSA1     36             27.0000000000
      1107        36  BMANNA    H61             4.1609643575        7.0851954077      118.6946701192  LPSA1     36             27.0000000000
      1108        36  BMANNA    H62             4.5635627708        8.3869864662      119.7045442506  LPSA1     36             27.0000000000
      1109        36  BMANNA    O6              5.7891093914        6.6746466931      120.0914698020  LPSA1     36             27.0000000000
      1110        36  BMANNA    HO6             6.2440596617        7.3175329054      120.6476247167  LPSA1     36             27.0000000000
      1111        37  ECLIPA    HB6S           -7.2338945920       -8.2558404785       20.4612168218  LPSA2     1               0.0000000000
      1112        37  ECLIPA    OB6            -8.7321116280       -7.7580342200       21.7140249152  LPSA2     1               0.0000000000
      1113        37  ECLIPA    CB6            -8.1733001644       -8.6740950432       20.7042159014  LPSA2     1               0.0000000000
      1114        37  ECLIPA    HB6R           -8.1893610405       -9.6900811009       21.0541931349  LPSA2     1               0.0000000000
      1115        37  ECLIPA    CB5            -9.0714763729       -8.7520851517       19.3988764877  LPSA2     1               0.0000000000
      1116        37  ECLIPA    OB5            -9.2176809202       -7.3382667768       18.9716901872  LPSA2     1               0.0000000000
      1117        37  ECLIPA    HB5           -10.0510027117       -9.0999280818       19.7771798410  LPSA2     1               0.0000000000
      1118        37  ECLIPA    CB1           -10.0225906275       -7.2682401341       17.7717324898  LPSA2     1               0.0000000000
      1119        37  ECLIPA    HB1           -11.0485285878       -7.6778825807       17.9003641080  LPSA2     1               0.0000000000
      1120        37  ECLIPA    OA6           -10.1125026667       -5.9498992502       17.3217246577  LPSA2     1               0.0000000000
      1121        37  ECLIPA    CA6            -9.0245206647       -5.0354530312       17.5745106853  LPSA2     1               0.0000000000
      1122        37  ECLIPA    HA6R           -8.0992991041       -5.6285076737       17.7226451425  LPSA2     1               0.0000000000
      1123        37  ECLIPA    HA6S           -9.3403739404       -4.3514068455       18.4598965841  LPSA2     1               0.0000000000
      1124        37  ECLIPA    CB4            -8.4409697116       -9.6550109987       18.3206521937  LPSA2     1               0.0000000000
      1125        37  ECLIPA    HB4            -7.4441063589       -9.2786161708       18.0085584641  LPSA2     1               0.0000000000
      1126        37  ECLIPA    OB4            -8.5571563621      -10.9722800057       18.9017319965  LPSA2     1               0.0000000000
      1127        37  ECLIPA    PB             -7.2252951287      -11.7723501833       19.3234616795  LPSA2     1               0.0000000000
      1128        37  ECLIPA    OPB4           -7.5793148545      -12.6222889862       20.5579515876  LPSA2     1               0.0000000000
      1129        37  ECLIPA    OPB3           -6.2716645124      -10.6006159614       19.6614545037  LPSA2     1               0.0000000000
      1130        37  ECLIPA    OPB2           -6.7432742921      -12.5390814479       18.0829495795  LPSA2     1               0.0000000000
      1131        37  ECLIPA    CB3            -9.3254893887       -9.5257084936       17.0955893951  LPSA2     1               0.0000000000
      1132        37  ECLIPA    OB3            -8.8685373627      -10.2151935851       15.9186528231  LPSA2     1               0.0000000000
      1133        37  ECLIPA    HB3           -10.4158266355       -9.7244022515       17.3284540628  LPSA2     1               0.0000000000
      1134        37  ECLIPA    C71            -9.3022051087      -11.4101954926       15.6929469039  LPSA2     1               0.0000000000
      1135        37  ECLIPA    O71           -10.1796813399      -11.9787774140       16.3832172580  LPSA2     1               0.0000000000
      1136        37  ECLIPA    C72            -8.6819099317      -11.8909323030       14.3548430386  LPSA2     1               0.0000000000
      1137        37  ECLIPA    H72R           -8.9514925684      -11.1780435490       13.5774555414  LPSA2     1               0.0000000000
      1138        37  ECLIPA    H72S           -9.0284545405      -12.9895503284       14.1464415926  LPSA2     1               0.0000000000
      1139        37  ECLIPA    CB2            -9.3845212014       -8.0445870096       16.6720734084  LPSA2     1               0.0000000000
      1140        37  ECLIPA    HB2            -8.2612092827       -7.7052733528       16.5298168153  LPSA2     1               0.0000000000
      1141        37  ECLIPA    NB2           -10.1987783543       -7.8244171327       15.4577284722  LPSA2     1               0.0000000000
      1142        37  ECLIPA    HNB2          -11.1826587970       -7.7206281941       15.5965609326  LPSA2     1               0.0000000000
      1143        37  ECLIPA    CA4           -10.1280534844       -3.6674727555       15.7929312798  LPSA2     1               0.0000000000
      1144        37  ECLIPA    HA4           -10.7664213804       -4.5363657175       15.4903430209  LPSA2     1               0.0000000000
      1145        37  ECLIPA    OA4           -10.7647159902       -2.9422513371       16.8012065728  LPSA2     1               0.0000000000
      1146        37  ECLIPA    HOA4          -10.7946386073       -3.3978310324       17.5928838569  LPSA2     1               0.0000000000
      1147        37  ECLIPA    CA5            -8.8636140594       -4.1681510078       16.3547806008  LPSA2     1               0.0000000000
      1148        37  ECLIPA    HA5            -8.0306235170       -3.3838596048       16.5880746347  LPSA2     1               0.0000000000
      1149        37  ECLIPA    OA5            -8.2563265800       -5.0146809844       15.3689671688  LPSA2     1               0.0000000000
      1150        37  ECLIPA    CA1            -8.0198155764       -4.2936362771       14.1076640156  LPSA2     1               0.0000000000
      1151        37  ECLIPA    HA1            -7.8772910746       -5.1659569245       13.4118188108  LPSA2     1               0.0000000000
      1152        37  ECLIPA    OA1            -6.8468417420       -3.5042119722       14.1359876212  LPSA2     1               0.0000000000
      1153        37  ECLIPA    OPA2           -5.2997888444       -3.2865787103       15.9734101064  LPSA2     1               0.0000000000
      1154        37  ECLIPA    OPA3           -5.5028003315       -5.5562749772       14.8300177673  LPSA2     1               0.0000000000
      1155        37  ECLIPA    OPA4           -4.4201703520       -3.6917965562       13.6615320840  LPSA2     1               0.0000000000
      1156        37  ECLIPA    PA             -5.4776764753       -4.0637526434       14.6765383084  LPSA2     1               0.0000000000
      1157        37  ECLIPA    CA3            -9.9494597497       -2.8495085560       14.5219348229  LPSA2     1               0.0000000000
      1158        37  ECLIPA    HA3            -9.3418774684       -1.8853043660       14.7377032538  LPSA2     1               0.0000000000
      1159        37  ECLIPA    OA3           -11.2441040031       -2.3442246096       14.2498111976  LPSA2     1               0.0000000000
      1160        37  ECLIPA    C31           -12.0630522751       -3.1494752440       13.5006246295  LPSA2     1               0.0000000000
      1161        37  ECLIPA    O31           -12.0150869556       -3.3089799716       12.2941239937  LPSA2     1               0.0000000000
      1162        37  ECLIPA    C32           -13.3640136763       -3.3965325691       14.2780289507  LPSA2     1               0.0000000000
      1163        37  ECLIPA    H32R          -14.1971098507       -2.9349980230       13.7149713840  LPSA2     1               0.0000000000
      1164        37  ECLIPA    H32S          -13.2896167319       -2.9648234687       15.2729523512  LPSA2     1               0.0000000000
      1165        37  ECLIPA    CA2            -9.2940988092       -3.7568950764       13.4984733916  LPSA2     1               0.0000000000
      1166        37  ECLIPA    HA2            -9.9265418817       -4.6428080451       13.3982259915  LPSA2     1               0.0000000000
      1167        37  ECLIPA    NA2            -9.0299800370       -3.0945926132       12.2035087571  LPSA2     1               0.0000000000
      1168        37  ECLIPA    HNA2           -9.4295536682       -2.2176538469       12.0865030408  LPSA2     1               0.0000000000
      1169        37  ECLIPA    C73            -7.1774954144      -11.9725866043       14.3319064372  LPSA2     1               0.0000000000
      1170        37  ECLIPA    H73R           -6.7651586037      -12.4317093699       15.2227416964  LPSA2     1               0.0000000000
      1171        37  ECLIPA    O73            -6.6934138172      -10.6082216985       14.2644256719  LPSA2     1               0.0000000000
      1172        37  ECLIPA    C81            -5.5690615609      -10.1707900246       14.8555734565  LPSA2     1               0.0000000000
      1173        37  ECLIPA    O81            -4.9668542632      -10.9396549451       15.6690894779  LPSA2     1               0.0000000000
      1174        37  ECLIPA    C82            -5.1638594019       -8.7709410850       14.3536111794  LPSA2     1               0.0000000000
      1175        37  ECLIPA    H82R           -4.2702589652       -8.4105050115       14.8531840528  LPSA2     1               0.0000000000
      1176        37  ECLIPA    H82S           -5.9708888681       -8.0236587918       14.5323473422  LPSA2     1               0.0000000000
      1177        37  ECLIPA    C83            -4.9176287398       -8.8099788195       12.8301722806  LPSA2     1               0.0000000000
      1178        37  ECLIPA    H83R           -5.9043634316       -8.7398863353       12.2351841548  LPSA2     1               0.0000000000
      1179        37  ECLIPA    H83S           -4.5594585215       -9.8128787597       12.5911296392  LPSA2     1               0.0000000000
      1180        37  ECLIPA    C84            -4.0679650102       -7.6346078333       12.3050927261  LPSA2     1               0.0000000000
      1181        37  ECLIPA    H84R           -3.0211029163       -7.8176548840       12.5767117503  LPSA2     1               0.0000000000
      1182        37  ECLIPA    H84S           -4.5263646999       -6.7706551529       12.7369555497  LPSA2     1               0.0000000000
      1183        37  ECLIPA    C85            -4.1901726921       -7.4989874958       10.7695484051  LPSA2     1               0.0000000000
      1184        37  ECLIPA    H85R           -5.2578216660       -7.6291665156       10.5503608829  LPSA2     1               0.0000000000
      1185        37  ECLIPA    H85S           -3.6697592631       -8.3522443563       10.2367999955  LPSA2     1               0.0000000000
      1186        37  ECLIPA    C86            -3.7954015715       -6.0701149202       10.3034592726  LPSA2     1               0.0000000000
      1187        37  ECLIPA    H86R           -2.7017126765       -5.9793411541        9.9932223571  LPSA2     1               0.0000000000
      1188        37  ECLIPA    H86S           -3.9418015683       -5.3436073452       11.0807540114  LPSA2     1               0.0000000000
      1189        37  ECLIPA    C87            -4.7267307539       -5.5389934747        9.1601018854  LPSA2     1               0.0000000000
      1190        37  ECLIPA    H87R           -4.4010774805       -4.5666173375        8.8049419625  LPSA2     1               0.0000000000
      1191        37  ECLIPA    H87S           -5.7709186736       -5.3740529615        9.5406723883  LPSA2     1               0.0000000000
      1192        37  ECLIPA    C88            -4.8593656563       -6.5318915932        8.0318999685  LPSA2     1               0.0000000000
      1193        37  ECLIPA    H88R           -5.5311716726       -7.3956525463        8.3479828359  LPSA2     1               0.0000000000
      1194        37  ECLIPA    H88S           -3.8940098033       -7.1071858615        7.9254521495  LPSA2     1               0.0000000000
      1195        37  ECLIPA    C89            -5.4573697431       -5.9475625274        6.7101000712  LPSA2     1               0.0000000000
      1196        37  ECLIPA    H89R           -5.9815850031       -4.9815393757        6.8746682686  LPSA2     1               0.0000000000
      1197        37  ECLIPA    H89S           -6.1847944210       -6.5748872880        6.2317001698  LPSA2     1               0.0000000000
      1198        37  ECLIPA    C810           -4.3058348885       -5.7692535983        5.7047246593  LPSA2     1               0.0000000000
      1199        37  ECLIPA    H810R          -3.6190763487       -6.5794050691        6.0108430704  LPSA2     1               0.0000000000
      1200        37  ECLIPA    H810S          -3.8502134932       -4.8095171985        5.8554647029  LPSA2     1               0.0000000000
      1201        37  ECLIPA    C811           -4.6835859356       -5.8878681625        4.2179945741  LPSA2     1               0.0000000000
      1202        37  ECLIPA    H811R          -4.0225836899       -5.4730652598        3.5081125689  LPSA2     1               0.0000000000
      1203        37  ECLIPA    H811S          -5.7463670447       -5.4414242605        4.1819101877  LPSA2     1               0.0000000000
      1204        37  ECLIPA    C812           -5.0120882637       -7.3111761251        3.7413673409  LPSA2     1               0.0000000000
      1205        37  ECLIPA    H812R          -5.4331694256       -7.2151368069        2.6403157337  LPSA2     1               0.0000000000
      1206        37  ECLIPA    H812S          -5.6530847627       -7.8667480281        4.4144737196  LPSA2     1               0.0000000000
      1207        37  ECLIPA    C813           -3.7980969535       -8.2563378957        3.6785234959  LPSA2     1               0.0000000000
      1208        37  ECLIPA    H813R          -3.0904479995       -7.8107784264        2.9398073555  LPSA2     1               0.0000000000
      1209        37  ECLIPA    H813S          -3.2092605381       -8.3862512949        4.6616087352  LPSA2     1               0.0000000000
      1210        37  ECLIPA    C814           -4.1269344959       -9.6325751571        3.1377409857  LPSA2     1               0.0000000000
      1211        37  ECLIPA    H814R          -4.7889764839       -9.6655629247        2.1719074593  LPSA2     1               0.0000000000
      1212        37  ECLIPA    H814S          -4.6414989498      -10.2115032002        3.9166242729  LPSA2     1               0.0000000000
      1213        37  ECLIPA    H814T          -3.1966000806      -10.1954541094        2.8964685373  LPSA2     1               0.0000000000
      1214        37  ECLIPA    C74            -6.4950792432      -12.6706155784       13.1792855021  LPSA2     1               0.0000000000
      1215        37  ECLIPA    H74R           -6.6906315952      -13.7252494132       12.9935747315  LPSA2     1               0.0000000000
      1216        37  ECLIPA    H74S           -5.3466052321      -12.5724198765       13.3086690609  LPSA2     1               0.0000000000
      1217        37  ECLIPA    C75            -6.7348480823      -11.8896735770       11.8151371119  LPSA2     1               0.0000000000
      1218        37  ECLIPA    H75R           -5.7624285831      -11.9938527628       11.2107603889  LPSA2     1               0.0000000000
      1219        37  ECLIPA    H75S           -6.8984574890      -10.8120519624       12.0082837783  LPSA2     1               0.0000000000
      1220        37  ECLIPA    C76            -7.8963375589      -12.4114632695       10.9251453624  LPSA2     1               0.0000000000
      1221        37  ECLIPA    H76R           -8.8650345909      -12.0352107711       11.3555905686  LPSA2     1               0.0000000000
      1222        37  ECLIPA    H76S           -8.0125888768      -13.5730189437       10.9731137071  LPSA2     1               0.0000000000
      1223        37  ECLIPA    C77            -7.8688990518      -12.0476972689        9.4191603634  LPSA2     1               0.0000000000
      1224        37  ECLIPA    H77R           -6.9689642868      -12.4678675302        9.0408775908  LPSA2     1               0.0000000000
      1225        37  ECLIPA    H77S           -7.6890143106      -10.9560596307        9.2852383479  LPSA2     1               0.0000000000
      1226        37  ECLIPA    C78            -9.2288244407      -12.4425947828        8.8297405752  LPSA2     1               0.0000000000
      1227        37  ECLIPA    H78R           -9.4403642047      -13.4602253052        9.1562620580  LPSA2     1               0.0000000000
      1228        37  ECLIPA    H78S           -9.9550342510      -11.7347347978        9.3169442960  LPSA2     1               0.0000000000
      1229        37  ECLIPA    C79            -9.3735415478      -12.0839336529        7.2570767761  LPSA2     1               0.0000000000
      1230        37  ECLIPA    H79R           -9.9089401660      -11.0884455882        7.1763205913  LPSA2     1               0.0000000000
      1231        37  ECLIPA    H79S          -10.0051706190      -12.8446387646        6.7882549413  LPSA2     1               0.0000000000
      1232        37  ECLIPA    C710           -8.1257166669      -12.2185565572        6.3785096220  LPSA2     1               0.0000000000
      1233        37  ECLIPA    H710R          -7.3770328880      -11.5371579120        6.8460783027  LPSA2     1               0.0000000000
      1234        37  ECLIPA    H710S          -7.7816924592      -13.1774646870        6.4843026416  LPSA2     1               0.0000000000
      1235        37  ECLIPA    C711           -8.3321244914      -11.7970806955        4.9384125046  LPSA2     1               0.0000000000
      1236        37  ECLIPA    H711R          -9.0809205368      -12.4996431598        4.5670708729  LPSA2     1               0.0000000000
      1237        37  ECLIPA    H711S          -8.6707546656      -10.7298434449        4.9306188492  LPSA2     1               0.0000000000
      1238        37  ECLIPA    C712           -7.0012786756      -11.8989871581        4.2148670498  LPSA2     1               0.0000000000
      1239        37  ECLIPA    H712R          -6.6806418882      -12.9419948611        4.3130666899  LPSA2     1               0.0000000000
      1240        37  ECLIPA    H712S          -6.3069621617      -11.3261889902        4.8522839389  LPSA2     1               0.0000000000
      1241        37  ECLIPA    C713           -7.0858492518      -11.3196550124        2.7357390519  LPSA2     1               0.0000000000
      1242        37  ECLIPA    H713R          -7.3482687398      -10.2346019488        2.8800411466  LPSA2     1               0.0000000000
      1243        37  ECLIPA    H713S          -6.0400954002      -11.4686143427        2.2750064041  LPSA2     1               0.0000000000
      1244        37  ECLIPA    C714           -8.0619497537      -12.1560405434        1.8879763961  LPSA2     1               0.0000000000
      1245        37  ECLIPA    H714R          -7.7022262811      -13.1870762537        1.7626189762  LPSA2     1               0.0000000000
      1246        37  ECLIPA    H714S          -9.1039107525      -12.0339773344        2.2081901572  LPSA2     1               0.0000000000
      1247        37  ECLIPA    H714T          -7.9466349061      -11.6952884792        0.9249202435  LPSA2     1               0.0000000000
      1248        37  ECLIPA    C51            -9.6639112096       -7.9974115975       14.2380633031  LPSA2     1               0.0000000000
      1249        37  ECLIPA    O51            -8.4194910516       -7.9606681013       14.1304636378  LPSA2     1               0.0000000000
      1250        37  ECLIPA    C52           -10.5969512054       -8.3234276713       13.0157035712  LPSA2     1               0.0000000000
      1251        37  ECLIPA    H52R          -10.8256393814       -9.3725793971       12.8950255930  LPSA2     1               0.0000000000
      1252        37  ECLIPA    H52S          -11.4828399912       -7.7655278080       13.2222025935  LPSA2     1               0.0000000000
      1253        37  ECLIPA    C53            -9.9487305236       -7.6387938562       11.7526064304  LPSA2     1               0.0000000000
      1254        37  ECLIPA    H53R           -9.3274905579       -6.7867199611       12.0082431084  LPSA2     1               0.0000000000
      1255        37  ECLIPA    O53           -11.0343353064       -7.3970659192       10.8431816314  LPSA2     1               0.0000000000
      1256        37  ECLIPA    C61           -11.3080166121       -6.1466882992       10.5090573566  LPSA2     1               0.0000000000
      1257        37  ECLIPA    O61           -10.7150185616       -5.1773746243       10.8659713306  LPSA2     1               0.0000000000
      1258        37  ECLIPA    C62           -12.5260975547       -6.1311917922        9.5765835255  LPSA2     1               0.0000000000
      1259        37  ECLIPA    H62R          -13.4278105975       -6.2413823528       10.2152837125  LPSA2     1               0.0000000000
      1260        37  ECLIPA    H62S          -12.5170015037       -7.1080335519        9.0470049452  LPSA2     1               0.0000000000
      1261        37  ECLIPA    C63           -12.5485416616       -4.8664857902        8.6803029234  LPSA2     1               0.0000000000
      1262        37  ECLIPA    H63R          -11.5296804106       -4.7400681839        8.2798705976  LPSA2     1               0.0000000000
      1263        37  ECLIPA    H63S          -12.7949966871       -3.9139857388        9.3252199642  LPSA2     1               0.0000000000
      1264        37  ECLIPA    C64           -13.4763688780       -4.8445587073        7.5279067597  LPSA2     1               0.0000000000
      1265        37  ECLIPA    H64R          -13.4841379288       -3.8455274618        6.9620099216  LPSA2     1               0.0000000000
      1266        37  ECLIPA    H64S          -14.5190126973       -5.0609585197        7.9657393466  LPSA2     1               0.0000000000
      1267        37  ECLIPA    C65           -13.1275776641       -6.0139216613        6.5414948800  LPSA2     1               0.0000000000
      1268        37  ECLIPA    H65R          -13.2622536668       -6.8762585853        7.2423230371  LPSA2     1               0.0000000000
      1269        37  ECLIPA    H65S          -12.0813486960       -5.8956901795        6.1828980290  LPSA2     1               0.0000000000
      1270        37  ECLIPA    C66           -14.0154715565       -6.1534132727        5.2222643966  LPSA2     1               0.0000000000
      1271        37  ECLIPA    H66R          -15.0429075005       -6.3185027504        5.5395647249  LPSA2     1               0.0000000000
      1272        37  ECLIPA    H66S          -13.5684404924       -7.1066756403        4.8113963288  LPSA2     1               0.0000000000
      1273        37  ECLIPA    C67           -13.9287975761       -5.0773463350        4.1696839457  LPSA2     1               0.0000000000
      1274        37  ECLIPA    H67R          -14.0651794969       -4.0739387512        4.5058181646  LPSA2     1               0.0000000000
      1275        37  ECLIPA    H67S          -14.6718379993       -5.2847077174        3.3478820057  LPSA2     1               0.0000000000
      1276        37  ECLIPA    C68           -12.5801711381       -4.9680612965        3.5077075145  LPSA2     1               0.0000000000
      1277        37  ECLIPA    H68R          -12.1515082125       -5.8711092024        3.0112508411  LPSA2     1               0.0000000000
      1278        37  ECLIPA    H68S          -11.9688851333       -4.5930072442        4.3087918325  LPSA2     1               0.0000000000
      1279        37  ECLIPA    C69           -12.6731163938       -4.0415465507        2.2963532923  LPSA2     1               0.0000000000
      1280        37  ECLIPA    H69R          -13.4698487093       -3.2731357217        2.3203210098  LPSA2     1               0.0000000000
      1281        37  ECLIPA    H69S          -13.0085296224       -4.6641626205        1.4693744207  LPSA2     1               0.0000000000
      1282        37  ECLIPA    C610          -11.3916197202       -3.3811906232        1.9396251084  LPSA2     1               0.0000000000
      1283        37  ECLIPA    H610R         -10.5379805336       -4.1037546440        2.0603347121  LPSA2     1               0.0000000000
      1284        37  ECLIPA    H610S         -11.1615179177       -2.5590046387        2.6933643884  LPSA2     1               0.0000000000
      1285        37  ECLIPA    C611          -11.4158026814       -2.6898346194        0.5312153135  LPSA2     1               0.0000000000
      1286        37  ECLIPA    H611R         -12.2356229533       -1.9464380976        0.5735373188  LPSA2     1               0.0000000000
      1287        37  ECLIPA    H611S         -10.5935601705       -2.0111340547        0.3609598123  LPSA2     1               0.0000000000
      1288        37  ECLIPA    C612          -11.4977677561       -3.7241141799       -0.5788949292  LPSA2     1               0.0000000000
      1289        37  ECLIPA    H612R         -10.5245965631       -4.2903840378       -0.6060949542  LPSA2     1               0.0000000000
      1290        37  ECLIPA    H612S         -12.2482468860       -4.4789093096       -0.3132441764  LPSA2     1               0.0000000000
      1291        37  ECLIPA    H612T         -11.6696358678       -3.2669492183       -1.5574606966  LPSA2     1               0.0000000000
      1292        37  ECLIPA    C54            -9.0402467808       -8.7408876778       11.1776054589  LPSA2     1               0.0000000000
      1293        37  ECLIPA    H54R           -9.6895465340       -9.6197989465       10.8869876633  LPSA2     1               0.0000000000
      1294        37  ECLIPA    H54S           -8.3667273265       -9.1315550734       11.9574517429  LPSA2     1               0.0000000000
      1295        37  ECLIPA    C55            -8.1405458997       -8.4145447704        9.9916770240  LPSA2     1               0.0000000000
      1296        37  ECLIPA    H55R           -7.3458711743       -9.1669347284        9.7856946516  LPSA2     1               0.0000000000
      1297        37  ECLIPA    H55S           -7.6011005177       -7.4330707546       10.2436295858  LPSA2     1               0.0000000000
      1298        37  ECLIPA    C56            -8.9940826569       -8.4266644203        8.7515486822  LPSA2     1               0.0000000000
      1299        37  ECLIPA    H56R           -9.8137763886       -7.6493571933        8.8382497819  LPSA2     1               0.0000000000
      1300        37  ECLIPA    H56S           -9.4487052641       -9.3294673205        8.4741334449  LPSA2     1               0.0000000000
      1301        37  ECLIPA    C57            -8.3351278073       -7.8553740423        7.4395707935  LPSA2     1               0.0000000000
      1302        37  ECLIPA    H57R           -7.3979408264       -8.3523749922        7.1827428724  LPSA2     1               0.0000000000
      1303        37  ECLIPA    H57S           -8.0575005453       -6.7829913023        7.5196553379  LPSA2     1               0.0000000000
      1304        37  ECLIPA    C58            -9.3612128779       -7.9055569802        6.2350750625  LPSA2     1               0.0000000000
      1305        37  ECLIPA    H58R           -9.9080985219       -8.8885583172        6.2095761879  LPSA2     1               0.0000000000
      1306        37  ECLIPA    H58S          -10.2107634270       -7.2271671641        6.5224540661  LPSA2     1               0.0000000000
      1307        37  ECLIPA    C59            -8.6587222137       -7.6809520730        4.8667186835  LPSA2     1               0.0000000000
      1308        37  ECLIPA    H59R           -7.8693623562       -8.4254749547        4.6589989540  LPSA2     1               0.0000000000
      1309        37  ECLIPA    H59S           -8.2398520083       -6.6783827396        5.0825555512  LPSA2     1               0.0000000000
      1310        37  ECLIPA    C510           -9.6156835242       -7.8679750718        3.6752379292  LPSA2     1               0.0000000000
      1311        37  ECLIPA    H510R         -10.6401267418       -7.3732060742        3.7937959224  LPSA2     1               0.0000000000
      1312        37  ECLIPA    H510S          -9.8329721397       -9.0097814257        3.4613250382  LPSA2     1               0.0000000000
      1313        37  ECLIPA    C511           -9.0933374373       -7.4001456905        2.3004848829  LPSA2     1               0.0000000000
      1314        37  ECLIPA    H511R          -9.2427385389       -6.3038165397        2.2679211996  LPSA2     1               0.0000000000
      1315        37  ECLIPA    H511S          -7.9796401551       -7.5495778207        2.1940961976  LPSA2     1               0.0000000000
      1316        37  ECLIPA    C512           -9.8075314588       -7.9675895346        1.0189424135  LPSA2     1               0.0000000000
      1317        37  ECLIPA    H512R          -9.2008982789       -7.7345978373        0.0815295424  LPSA2     1               0.0000000000
      1318        37  ECLIPA    H512S          -9.9175577465       -9.0550559944        1.1129704346  LPSA2     1               0.0000000000
      1319        37  ECLIPA    C513          -11.1876422477       -7.2581331074        0.6457389972  LPSA2     1               0.0000000000
      1320        37  ECLIPA    H513R         -11.0503885089       -6.1416703344        0.5010832175  LPSA2     1               0.0000000000
      1321        37  ECLIPA    H513S         -11.8634599039       -7.3600949047        1.4088770719  LPSA2     1               0.0000000000
      1322        37  ECLIPA    C514          -11.7225499672       -7.7874001577       -0.6567184026  LPSA2     1               0.0000000000
      1323        37  ECLIPA    H514R         -11.8068474845       -8.8735273095       -0.6273993866  LPSA2     1               0.0000000000
      1324        37  ECLIPA    H514S         -12.7472275033       -7.4119483356       -0.7024724270  LPSA2     1               0.0000000000
      1325        37  ECLIPA    H514T         -11.0626541343       -7.4658419131       -1.5427815912  LPSA2     1               0.0000000000
      1326        37  ECLIPA    C33           -13.8165059719       -4.9123220600       14.4880792826  LPSA2     1               0.0000000000
      1327        37  ECLIPA    H33R          -14.8861072921       -4.8903456733       14.8828993596  LPSA2     1               0.0000000000
      1328        37  ECLIPA    O33           -13.0170408720       -5.5456499725       15.4699768821  LPSA2     1               0.0000000000
      1329        37  ECLIPA    HO33          -13.2575266362       -5.2122818701       16.2926205744  LPSA2     1               0.0000000000
      1330        37  ECLIPA    C34           -13.8254445082       -5.8140193755       13.2255459338  LPSA2     1               0.0000000000
      1331        37  ECLIPA    H34R          -12.8281672950       -5.8502004688       12.8010908313  LPSA2     1               0.0000000000
      1332        37  ECLIPA    H34S          -14.4383647565       -5.3177068002       12.3772221142  LPSA2     1               0.0000000000
      1333        37  ECLIPA    C35           -14.3083800767       -7.2621483917       13.4256256262  LPSA2     1               0.0000000000
      1334        37  ECLIPA    H35R          -15.3612956962       -7.2306757506       13.6963698038  LPSA2     1               0.0000000000
      1335        37  ECLIPA    H35S          -13.7583094580       -7.7033984775       14.2668166019  LPSA2     1               0.0000000000
      1336        37  ECLIPA    C36           -14.3019779109       -8.1806262524       12.1865608177  LPSA2     1               0.0000000000
      1337        37  ECLIPA    H36R          -13.3860488861       -7.7386817895       11.7430812241  LPSA2     1               0.0000000000
      1338        37  ECLIPA    H36S          -15.1827610014       -8.0645341348       11.4785220412  LPSA2     1               0.0000000000
      1339        37  ECLIPA    C37           -13.9328244105       -9.6124997538       12.5255831563  LPSA2     1               0.0000000000
      1340        37  ECLIPA    H37R          -14.9808438369      -10.1381656249       12.6765215637  LPSA2     1               0.0000000000
      1341        37  ECLIPA    H37S          -13.4422741780       -9.6996033979       13.5128993321  LPSA2     1               0.0000000000
      1342        37  ECLIPA    C38           -13.1641297564      -10.4048169899       11.4317274953  LPSA2     1               0.0000000000
      1343        37  ECLIPA    H38R          -12.0849366151      -10.1797184149       11.4067421357  LPSA2     1               0.0000000000
      1344        37  ECLIPA    H38S          -13.1935546117      -11.4703749461       11.7230999881  LPSA2     1               0.0000000000
      1345        37  ECLIPA    C39           -13.7159374807      -10.1139294831       10.0213367345  LPSA2     1               0.0000000000
      1346        37  ECLIPA    H39R          -13.7124434180       -9.0111189946        9.8128797222  LPSA2     1               0.0000000000
      1347        37  ECLIPA    H39S          -14.7256526744      -10.6011663295        9.9697980947  LPSA2     1               0.0000000000
      1348        37  ECLIPA    C310          -12.9956264778      -10.7982747570        8.8401719124  LPSA2     1               0.0000000000
      1349        37  ECLIPA    H310R         -13.1687485719      -11.9166202257        9.0626900142  LPSA2     1               0.0000000000
      1350        37  ECLIPA    H310S         -11.8887644658      -10.5819099603        8.8945759064  LPSA2     1               0.0000000000
      1351        37  ECLIPA    C311          -13.3422220653      -10.1740504174        7.5676235846  LPSA2     1               0.0000000000
      1352        37  ECLIPA    H311R         -14.4269641441       -9.8970260920        7.5507520616  LPSA2     1               0.0000000000
      1353        37  ECLIPA    H311S         -12.7656403323       -9.2396719350        7.2851462164  LPSA2     1               0.0000000000
      1354        37  ECLIPA    C312          -13.0290100529      -11.0408636761        6.3280121142  LPSA2     1               0.0000000000
      1355        37  ECLIPA    H312R         -12.0945604274      -11.6362587439        6.4861373960  LPSA2     1               0.0000000000
      1356        37  ECLIPA    H312S         -13.8881166757      -11.7427583262        6.1820758986  LPSA2     1               0.0000000000
      1357        37  ECLIPA    C313          -12.8872570547      -10.2456243516        4.9895779706  LPSA2     1               0.0000000000
      1358        37  ECLIPA    H313R         -13.8718186076       -9.9589672808        4.7825120466  LPSA2     1               0.0000000000
      1359        37  ECLIPA    H313S         -12.2713383238       -9.3182034826        5.1572698764  LPSA2     1               0.0000000000
      1360        37  ECLIPA    C314          -12.3350459083      -10.9786952828        3.8116661598  LPSA2     1               0.0000000000
      1361        37  ECLIPA    H314R         -12.9731868528      -11.8810101508        3.6067793993  LPSA2     1               0.0000000000
      1362        37  ECLIPA    H314S         -12.2519858791      -10.4049052137        2.8849361441  LPSA2     1               0.0000000000
      1363        37  ECLIPA    H314T         -11.2921662165      -11.3933115255        4.0446347774  LPSA2     1               0.0000000000
      1364        37  ECLIPA    C11            -8.1782038675       -3.4897813406       11.2900808200  LPSA2     1               0.0000000000
      1365        37  ECLIPA    O11            -7.6550210683       -4.5870180452       11.1394597694  LPSA2     1               0.0000000000
      1366        37  ECLIPA    C12            -7.7402229905       -2.3831671833       10.2853014675  LPSA2     1               0.0000000000
      1367        37  ECLIPA    H12R           -6.6910562241       -2.0464581785       10.4852637814  LPSA2     1               0.0000000000
      1368        37  ECLIPA    H12S           -8.4502574498       -1.5469867316       10.5222272274  LPSA2     1               0.0000000000
      1369        37  ECLIPA    C13            -7.8644099205       -2.7440620781        8.8110583416  LPSA2     1               0.0000000000
      1370        37  ECLIPA    H13R           -7.4817108612       -3.8096228569        8.5839874118  LPSA2     1               0.0000000000
      1371        37  ECLIPA    O13            -6.9776419392       -1.8177737908        8.1311342176  LPSA2     1               0.0000000000
      1372        37  ECLIPA    HO13           -6.7086905979       -2.1784381644        7.3064966676  LPSA2     1               0.0000000000
      1373        37  ECLIPA    C14            -9.3312249194       -2.6624321290        8.4581579993  LPSA2     1               0.0000000000
      1374        37  ECLIPA    H14R           -9.8573127185       -1.7764420640        8.9706443184  LPSA2     1               0.0000000000
      1375        37  ECLIPA    H14S           -9.7875174127       -3.6386228580        8.7243868424  LPSA2     1               0.0000000000
      1376        37  ECLIPA    C15            -9.6043458097       -2.4849303916        6.9526486677  LPSA2     1               0.0000000000
      1377        37  ECLIPA    H15R           -9.0376654701       -1.6619493956        6.5500123177  LPSA2     1               0.0000000000
      1378        37  ECLIPA    H15S          -10.6803908058       -2.3196363740        6.8782608049  LPSA2     1               0.0000000000
      1379        37  ECLIPA    C16            -9.1779741076       -3.7473586049        6.1622847334  LPSA2     1               0.0000000000
      1380        37  ECLIPA    H16R           -9.9528844218       -4.5908660370        6.2733383262  LPSA2     1               0.0000000000
      1381        37  ECLIPA    H16S           -8.3493623710       -4.2186548591        6.7182496574  LPSA2     1               0.0000000000
      1382        37  ECLIPA    C17            -8.9316578239       -3.4747647679        4.6801229578  LPSA2     1               0.0000000000
      1383        37  ECLIPA    H17R           -9.8243127866       -2.8255107052        4.4246758429  LPSA2     1               0.0000000000
      1384        37  ECLIPA    H17S           -8.9745005418       -4.3355065855        4.0046542873  LPSA2     1               0.0000000000
      1385        37  ECLIPA    C18            -7.6332469037       -2.7504552047        4.4504458171  LPSA2     1               0.0000000000
      1386        37  ECLIPA    H18R           -7.7341482708       -1.9118113404        5.0865821920  LPSA2     1               0.0000000000
      1387        37  ECLIPA    H18S           -6.7955573479       -3.4318550195        4.7749867078  LPSA2     1               0.0000000000
      1388        37  ECLIPA    C19            -7.4440892908       -2.3458268067        3.0097966450  LPSA2     1               0.0000000000
      1389        37  ECLIPA    H19R           -6.5633980299       -1.7249563288        2.9245509529  LPSA2     1               0.0000000000
      1390        37  ECLIPA    H19S           -8.3562819796       -1.7817879809        2.6238151240  LPSA2     1               0.0000000000
      1391        37  ECLIPA    C110           -7.1765241657       -3.5732487035        2.1045801788  LPSA2     1               0.0000000000
      1392        37  ECLIPA    H110R          -6.3862829621       -4.2460801050        2.4416701971  LPSA2     1               0.0000000000
      1393        37  ECLIPA    H110S          -8.1730135749       -4.0643905421        2.1583327743  LPSA2     1               0.0000000000
      1394        37  ECLIPA    C111           -6.9212943987       -3.0997649683        0.7563571155  LPSA2     1               0.0000000000
      1395        37  ECLIPA    H111R          -7.6013263264       -2.2763449125        0.3999767799  LPSA2     1               0.0000000000
      1396        37  ECLIPA    H111S          -5.9685211863       -2.6393368576        0.7977177860  LPSA2     1               0.0000000000
      1397        37  ECLIPA    C112           -6.8492239808       -4.2194023699       -0.2937360943  LPSA2     1               0.0000000000
      1398        37  ECLIPA    H112R          -6.0669669954       -4.8553608083        0.1973446929  LPSA2     1               0.0000000000
      1399        37  ECLIPA    H112S          -7.7104693466       -4.8879487131       -0.2177998937  LPSA2     1               0.0000000000
      1400        37  ECLIPA    C113           -6.7955467390       -3.7203662404       -1.7468031795  LPSA2     1               0.0000000000
      1401        37  ECLIPA    H113R          -7.7699902630       -3.2323454199       -1.9802017524  LPSA2     1               0.0000000000
      1402        37  ECLIPA    H113S          -6.0699522956       -2.9076760329       -1.8531093719  LPSA2     1               0.0000000000
      1403        37  ECLIPA    C114           -6.3721440363       -4.6749953892       -2.8344928043  LPSA2     1               0.0000000000
      1404        37  ECLIPA    H114R          -5.4578970892       -5.2599124296       -2.7829422503  LPSA2     1               0.0000000000
      1405        37  ECLIPA    H114S          -7.1815914966       -5.4409348305       -2.9951089580  LPSA2     1               0.0000000000
      1406        37  ECLIPA    H114T          -6.1065526093       -4.0952188653       -3.7399523103  LPSA2     1               0.0000000000
      1407        38  AKDO      C1            -10.4774232752       -9.1388793260       22.4410509549  LPSA2     2               0.0000000000
      1408        38  AKDO      O11           -10.3680427625      -10.4119748952       22.4913720772  LPSA2     2               0.0000000000
      1409        38  AKDO      O12           -11.4489919015       -8.4169615979       22.0800765534  LPSA2     2               0.0000000000
      1410        38  AKDO      C2             -9.2335592266       -8.3663329658       22.8913181237  LPSA2     2               0.0000000000
      1411        38  AKDO      C6             -7.0724316119       -8.6821729116       23.8039205188  LPSA2     2               0.0000000000
      1412        38  AKDO      H6             -6.6330046895       -8.2392577596       22.9487387861  LPSA2     2               0.0000000000
      1413        38  AKDO      O6             -8.3650700591       -9.3063889407       23.4267274814  LPSA2     2               0.0000000000
      1414        38  AKDO      C3             -9.5124316742       -7.3812802425       23.9587385105  LPSA2     2               0.0000000000
      1415        38  AKDO      H31           -10.0331088204       -7.7587464177       24.7868435866  LPSA2     2               0.0000000000
      1416        38  AKDO      H32           -10.1239628260       -6.5124228574       23.4151264596  LPSA2     2               0.0000000000
      1417        38  AKDO      C4             -8.2170063393       -6.6957090920       24.3842593775  LPSA2     2               0.0000000000
      1418        38  AKDO      H4             -7.6811891980       -6.2652185898       23.5563617270  LPSA2     2               0.0000000000
      1419        38  AKDO      O4             -8.5106972963       -5.6824099198       25.3355834555  LPSA2     2               0.0000000000
      1420        38  AKDO      C5             -7.2293473231       -7.6260132884       24.9292437177  LPSA2     2               0.0000000000
      1421        38  AKDO      H5             -6.2249545227       -7.1328044643       25.0107888161  LPSA2     2               0.0000000000
      1422        38  AKDO      O5             -7.7682148730       -8.1690115635       26.2083878813  LPSA2     2               0.0000000000
      1423        38  AKDO      C7             -5.9666011668       -9.7655884200       24.1981149098  LPSA2     2               0.0000000000
      1424        38  AKDO      H7             -6.3073716025      -10.2808722172       25.0939202098  LPSA2     2               0.0000000000
      1425        38  AKDO      O7             -4.6527550141       -9.1658453914       24.3482682347  LPSA2     2               0.0000000000
      1426        38  AKDO      HO7            -4.3478510891       -9.0158765355       23.4945166536  LPSA2     2               0.0000000000
      1427        38  AKDO      C8             -5.8877338090      -10.7560067851       22.9864433882  LPSA2     2               0.0000000000
      1428        38  AKDO      H81            -6.9160532749      -11.1846336728       22.9153150275  LPSA2     2               0.0000000000
      1429        38  AKDO      H82            -5.5625580060      -10.1306897766       22.0745354517  LPSA2     2               0.0000000000
      1430        38  AKDO      O8             -4.9283583646      -11.8334257620       23.3537996748  LPSA2     2               0.0000000000
      1431        38  AKDO      HO8            -5.2313898654      -12.6718744300       22.9179804014  LPSA2     2               0.0000000000
      1432        39  AKDO      C1             -8.1121824345       -3.9176132428       23.8027969005  LPSA2     3               1.0000000000
      1433        39  AKDO      O11            -8.6302473207       -3.9780890056       22.6471489042  LPSA2     3               1.0000000000
      1434        39  AKDO      O12            -6.9644967864       -3.4858102656       24.0656860145  LPSA2     3               1.0000000000
      1435        39  AKDO      C2             -8.9132614388       -4.3666613161       25.0166033796  LPSA2     3               1.0000000000
      1436        39  AKDO      C6            -11.1384405283       -4.8786187003       25.7688829792  LPSA2     3               1.0000000000
      1437        39  AKDO      H6            -10.8539805073       -5.9603964771       25.9810553331  LPSA2     3               1.0000000000
      1438        39  AKDO      O6            -10.3508341633       -4.3741767465       24.7076657818  LPSA2     3               1.0000000000
      1439        39  AKDO      C3             -8.6928220990       -3.5512631448       26.3187707743  LPSA2     3               1.0000000000
      1440        39  AKDO      H31            -9.0198456559       -2.4436855233       26.1504935106  LPSA2     3               1.0000000000
      1441        39  AKDO      H32            -7.6290393873       -3.5298640168       26.5929217108  LPSA2     3               1.0000000000
      1442        39  AKDO      C4             -9.5427828193       -4.1618712295       27.4036122013  LPSA2     3               1.0000000000
      1443        39  AKDO      H4             -9.3402000268       -5.2372678576       27.4051754129  LPSA2     3               1.0000000000
      1444        39  AKDO      O4             -9.3241564628       -3.6831810435       28.7388570077  LPSA2     3               1.0000000000
      1445        39  AKDO      HO4            -9.0812955701       -4.3479090559       29.3717785514  LPSA2     3               1.0000000000
      1446        39  AKDO      C5            -10.9069246008       -4.0977937305       27.0369167275  LPSA2     3               1.0000000000
      1447        39  AKDO      H5            -11.5406761670       -4.4793623788       27.9236884022  LPSA2     3               1.0000000000
      1448        39  AKDO      O5            -11.3187154016       -2.7307045007       26.8495261943  LPSA2     3               1.0000000000
      1449        39  AKDO      HO5           -10.7944861490       -2.3277125117       26.1887877298  LPSA2     3               1.0000000000
      1450        39  AKDO      C7            -12.5789684452       -4.8224801661       25.3258859863  LPSA2     3               1.0000000000
      1451        39  AKDO      H7            -12.9109615122       -3.7607534142       25.1324849511  LPSA2     3               1.0000000000
      1452        39  AKDO      O7            -13.4031221684       -5.4167502671       26.3661029982  LPSA2     3               1.0000000000
      1453        39  AKDO      HO7           -14.3444494868       -5.2300488105       26.1647669547  LPSA2     3               1.0000000000
      1454        39  AKDO      C8            -12.7088519163       -5.7036184683       24.1539635864  LPSA2     3               1.0000000000
      1455        39  AKDO      H81           -12.0546249884       -5.3599389250       23.3419478721  LPSA2     3               1.0000000000
      1456        39  AKDO      H82           -12.4960650598       -6.7752483065       24.2853144505  LPSA2     3               1.0000000000
      1457        39  AKDO      O8            -14.0258627900       -5.6446172049       23.6541307456  LPSA2     3               1.0000000000
      1458        39  AKDO      HO8           -13.9413998008       -4.7618723368       23.2473452835  LPSA2     3               1.0000000000
      1459        40  AHEP      C1             -6.8774181012       -8.4359915170       27.2793229502  LPSA2     4               2.0000000000
      1460        40  AHEP      H1             -6.5365522780       -9.4350774729       26.8517192453  LPSA2     4               2.0000000000
      1461        40  AHEP      C5             -5.9053147662       -6.3429567230       28.0185271385  LPSA2     4               2.0000000000
      1462        40  AHEP      H5             -6.8770084908       -5.9071262893       27.5619054335  LPSA2     4               2.0000000000
      1463        40  AHEP      O5             -5.7163159675       -7.6099185617       27.3942805697  LPSA2     4               2.0000000000
      1464        40  AHEP      C2             -7.3371424480       -8.7382186294       28.6827861277  LPSA2     4               2.0000000000
      1465        40  AHEP      H2             -8.2553937207       -9.3327180861       28.7442425996  LPSA2     4               2.0000000000
      1466        40  AHEP      O2             -6.3624466907       -9.4637826485       29.3407203943  LPSA2     4               2.0000000000
      1467        40  AHEP      HO2            -6.7668691695      -10.1398550467       29.8507927467  LPSA2     4               2.0000000000
      1468        40  AHEP      C3             -7.5809562614       -7.4444926223       29.4857672188  LPSA2     4               2.0000000000
      1469        40  AHEP      H3             -8.4870903979       -6.8796439384       29.2269906369  LPSA2     4               2.0000000000
      1470        40  AHEP      O3             -7.8171608317       -7.7471551554       30.7882097304  LPSA2     4               2.0000000000
      1471        40  AHEP      C4             -6.3341864159       -6.5982628456       29.4546205599  LPSA2     4               2.0000000000
      1472        40  AHEP      H4             -5.4438521736       -7.0272606585       29.9788637739  LPSA2     4               2.0000000000
      1473        40  AHEP      O4             -6.6184916292       -5.3501630300       30.0145912217  LPSA2     4               2.0000000000
      1474        40  AHEP      P4             -6.0353214745       -4.8790372843       31.4978499249  LPSA2     4               2.0000000000
      1475        40  AHEP      OP42           -7.0376115630       -4.0158297154       32.1560374192  LPSA2     4               2.0000000000
      1476        40  AHEP      OP43           -4.8235973657       -4.1220196941       31.0397938518  LPSA2     4               2.0000000000
      1477        40  AHEP      OP44           -5.5964699327       -6.1376102481       32.3098937101  LPSA2     4               2.0000000000
      1478        40  AHEP      C6             -4.6704941326       -5.3969669337       27.7982482844  LPSA2     4               2.0000000000
      1479        40  AHEP      H6             -5.0269867276       -4.3606402113       28.0833143566  LPSA2     4               2.0000000000
      1480        40  AHEP      O6             -3.6492508085       -5.8093498115       28.7103505027  LPSA2     4               2.0000000000
      1481        40  AHEP      HO6            -3.2736934698       -5.0425448072       29.2203787365  LPSA2     4               2.0000000000
      1482        40  AHEP      C7             -4.1669503179       -5.3459714340       26.3054198206  LPSA2     4               2.0000000000
      1483        40  AHEP      H71            -3.3863260111       -4.5275657298       26.1576126064  LPSA2     4               2.0000000000
      1484        40  AHEP      H72            -5.0455606428       -5.2848798606       25.6323487339  LPSA2     4               2.0000000000
      1485        40  AHEP      O7             -3.4773312343       -6.5480863234       25.9755159574  LPSA2     4               2.0000000000
      1486        40  AHEP      HO7            -2.5753083771       -6.4746402046       26.3256794122  LPSA2     4               2.0000000000
      1487        41  AHEP      C1             -9.0582329589       -7.3829384817       31.4342177374  LPSA2     5               3.0000000000
      1488        41  AHEP      H1             -9.4998204808       -6.4576479118       30.9794447437  LPSA2     5               3.0000000000
      1489        41  AHEP      C5             -9.6324020164       -9.6443281438       31.9165413065  LPSA2     5               3.0000000000
      1490        41  AHEP      H5             -8.5570515593       -9.8704206578       31.6031509785  LPSA2     5               3.0000000000
      1491        41  AHEP      O5            -10.0360190443       -8.4308588675       31.3013865768  LPSA2     5               3.0000000000
      1492        41  AHEP      C2             -8.9296902891       -7.1172272043       32.9718957084  LPSA2     5               3.0000000000
      1493        41  AHEP      H2             -8.1095080926       -6.3383360152       33.0921707216  LPSA2     5               3.0000000000
      1494        41  AHEP      O2            -10.1415881880       -6.5812306723       33.4691025827  LPSA2     5               3.0000000000
      1495        41  AHEP      HO2           -10.0429656032       -5.6500206188       33.6403503244  LPSA2     5               3.0000000000
      1496        41  AHEP      C3             -8.4584348111       -8.3928669954       33.7004304811  LPSA2     5               3.0000000000
      1497        41  AHEP      H3             -7.4728937736       -8.7049161890       33.3375632548  LPSA2     5               3.0000000000
      1498        41  AHEP      O3             -8.3232919645       -8.2916568962       35.1462238331  LPSA2     5               3.0000000000
      1499        41  AHEP      C4             -9.4945369225       -9.4346985859       33.4524658705  LPSA2     5               3.0000000000
      1500        41  AHEP      H4            -10.5037611939       -9.1255862886       33.8188816395  LPSA2     5               3.0000000000
      1501        41  AHEP      O4             -9.0498057959      -10.6740521228       34.0881196202  LPSA2     5               3.0000000000
      1502        41  AHEP      P4             -9.8863969189      -11.3215061224       35.2810123301  LPSA2     5               3.0000000000
      1503        41  AHEP      OP42           -9.0296225662      -12.4425339606       35.8202965042  LPSA2     5               3.0000000000
      1504        41  AHEP      OP43          -11.1820135972      -11.8503361657       34.6107506294  LPSA2     5               3.0000000000
      1505        41  AHEP      OP44          -10.2068399805      -10.2071194850       36.2417033353  LPSA2     5               3.0000000000
      1506        41  AHEP      C6            -10.5235465549      -10.8408769414       31.5493607386  LPSA2     5               3.0000000000
      1507        41  AHEP      H6            -10.1269238879      -11.7873218718       31.9533288164  LPSA2     5               3.0000000000
      1508        41  AHEP      O6            -11.8436198882      -10.6399618268       32.0428602265  LPSA2     5               3.0000000000
      1509        41  AHEP      HO6           -12.4088672623       -9.9980430509       31.5367188277  LPSA2     5               3.0000000000
      1510        41  AHEP      C7            -10.4477144144      -11.0989689566       30.0822725317  LPSA2     5               3.0000000000
      1511        41  AHEP      H71           -10.5492979675      -12.1940130346       29.9169108581  LPSA2     5               3.0000000000
      1512        41  AHEP      H72            -9.4922978554      -10.7903355829       29.6179339851  LPSA2     5               3.0000000000
      1513        41  AHEP      O7            -11.6234127840      -10.5017035371       29.4957736452  LPSA2     5               3.0000000000
      1514        42  AHEP      C1            -11.3695293854       -9.3228653559       28.7926622005  LPSA2     6               4.0000000000
      1515        42  AHEP      H1            -10.3241629255       -8.9277277328       29.0422981953  LPSA2     6               4.0000000000
      1516        42  AHEP      C5            -12.6879892635      -10.0054125060       26.9237617191  LPSA2     6               4.0000000000
      1517        42  AHEP      H5            -12.9350026180      -10.9192421276       27.4818042043  LPSA2     6               4.0000000000
      1518        42  AHEP      O5            -11.4139434181       -9.5013511322       27.3547530115  LPSA2     6               4.0000000000
      1519        42  AHEP      C2            -12.3480476882       -8.2724707613       29.2397872647  LPSA2     6               4.0000000000
      1520        42  AHEP      H2            -12.1946693472       -8.1298736582       30.3523091474  LPSA2     6               4.0000000000
      1521        42  AHEP      O2            -12.0451896702       -7.0008237083       28.7267108980  LPSA2     6               4.0000000000
      1522        42  AHEP      HO2           -11.7264918014       -6.5223937350       29.4669064354  LPSA2     6               4.0000000000
      1523        42  AHEP      C3            -13.7685264620       -8.7502047566       28.8468391403  LPSA2     6               4.0000000000
      1524        42  AHEP      H3            -13.9710587540       -9.6563641866       29.4311808254  LPSA2     6               4.0000000000
      1525        42  AHEP      O3            -14.8594699187       -7.7754517032       29.2225362108  LPSA2     6               4.0000000000
      1526        42  AHEP      HO3           -15.3369223821       -7.9559756828       29.9865592523  LPSA2     6               4.0000000000
      1527        42  AHEP      C4            -13.7533704940       -8.9650948843       27.2761740859  LPSA2     6               4.0000000000
      1528        42  AHEP      H4            -13.6797269137       -8.0002596966       26.7944950683  LPSA2     6               4.0000000000
      1529        42  AHEP      O4            -15.0193824527       -9.4399848419       26.7938835778  LPSA2     6               4.0000000000
      1530        42  AHEP      HO4           -15.0403182223      -10.4063245197       27.1589530594  LPSA2     6               4.0000000000
      1531        42  AHEP      C6            -12.6974439169      -10.4471689712       25.4906533340  LPSA2     6               4.0000000000
      1532        42  AHEP      H6            -13.6752772214      -10.8927339152       25.3442628137  LPSA2     6               4.0000000000
      1533        42  AHEP      O6            -12.7066260667       -9.3008815208       24.6375675438  LPSA2     6               4.0000000000
      1534        42  AHEP      HO6           -11.9896064505       -9.3375826059       23.9977784313  LPSA2     6               4.0000000000
      1535        42  AHEP      C7            -11.6808069797      -11.5067508393       25.1799756221  LPSA2     6               4.0000000000
      1536        42  AHEP      H71           -11.8921529207      -11.8781644036       24.1408078076  LPSA2     6               4.0000000000
      1537        42  AHEP      H72           -11.8394433429      -12.3065444857       25.9252229174  LPSA2     6               4.0000000000
      1538        42  AHEP      O7            -10.3569635973      -11.0663645203       25.2517430265  LPSA2     6               4.0000000000
      1539        42  AHEP      HO7           -10.1304298134      -11.1431019299       26.2011285002  LPSA2     6               4.0000000000
      1540        43  AGLC      C1             -7.0775460932       -7.8340881515       35.6520976122  LPSA2     7               4.0000000000
      1541        43  AGLC      H1             -6.2397495985       -8.4723230288       35.2047739589  LPSA2     7               4.0000000000
      1542        43  AGLC      C5             -7.7307225468       -5.6119034607       36.0987679218  LPSA2     7               4.0000000000
      1543        43  AGLC      H5             -8.7745835689       -5.8320924120       35.8327124756  LPSA2     7               4.0000000000
      1544        43  AGLC      O5             -6.8613013415       -6.4693570604       35.4366254460  LPSA2     7               4.0000000000
      1545        43  AGLC      C2             -6.9850535608       -8.0268223710       37.1582745954  LPSA2     7               4.0000000000
      1546        43  AGLC      H2             -5.9845530912       -7.5686874536       37.4887389927  LPSA2     7               4.0000000000
      1547        43  AGLC      O2             -6.7976405352       -9.4133645875       37.5024056006  LPSA2     7               4.0000000000
      1548        43  AGLC      HO2            -7.6768207126       -9.7574677606       37.6430208865  LPSA2     7               4.0000000000
      1549        43  AGLC      C3             -7.8644766553       -7.2302506880       37.9903802326  LPSA2     7               4.0000000000
      1550        43  AGLC      H3             -8.8651209502       -7.5260800013       37.6727250444  LPSA2     7               4.0000000000
      1551        43  AGLC      O3             -7.8668762739       -7.5077299476       39.4204481292  LPSA2     7               4.0000000000
      1552        43  AGLC      C4             -7.5409136696       -5.8195918655       37.5928595998  LPSA2     7               4.0000000000
      1553        43  AGLC      H4             -6.4857688544       -5.5342760774       37.9560286200  LPSA2     7               4.0000000000
      1554        43  AGLC      O4             -8.5586922910       -5.0132617567       38.2243117391  LPSA2     7               4.0000000000
      1555        43  AGLC      HO4            -8.2315536520       -4.2305989057       38.6132003238  LPSA2     7               4.0000000000
      1556        43  AGLC      C6             -7.5930287711       -4.1795933971       35.5245160098  LPSA2     7               4.0000000000
      1557        43  AGLC      H61            -7.6989764489       -4.2730569463       34.4135318240  LPSA2     7               4.0000000000
      1558        43  AGLC      H62            -8.3121107394       -3.4073524741       35.8722646349  LPSA2     7               4.0000000000
      1559        43  AGLC      O6             -6.2011520684       -3.7704700539       35.6892983147  LPSA2     7               4.0000000000
      1560        43  AGLC      HO6            -6.2914614259       -3.2450144148       36.4386090630  LPSA2     7               4.0000000000
      1561        44  AGLC      C1             -9.0374407717       -8.0379481645       39.9328324507  LPSA2     8               5.0000000000
      1562        44  AGLC      H1             -9.9032312421       -7.4458314015       39.5884769495  LPSA2     8               5.0000000000
      1563        44  AGLC      C5             -8.3259190846      -10.3997073752       40.2153373402  LPSA2     8               5.0000000000
      1564        44  AGLC      H5             -7.3347433513      -10.1176570129       39.8400606936  LPSA2     8               5.0000000000
      1565        44  AGLC      O5             -9.2575445816       -9.4557831940       39.6195505863  LPSA2     8               5.0000000000
      1566        44  AGLC      C2             -9.0629428005       -7.9334900251       41.4170311384  LPSA2     8               5.0000000000
      1567        44  AGLC      H2            -10.1102407664       -8.2289851797       41.6529594578  LPSA2     8               5.0000000000
      1568        44  AGLC      O2             -9.0193805727       -6.6123330486       41.9438754185  LPSA2     8               5.0000000000
      1569        44  AGLC      C3             -8.1085237162       -8.8220780678       42.1297388169  LPSA2     8               5.0000000000
      1570        44  AGLC      H3             -7.1485561625       -8.4496199156       41.6567950186  LPSA2     8               5.0000000000
      1571        44  AGLC      O3             -8.1419391338       -8.5566651171       43.5370978028  LPSA2     8               5.0000000000
      1572        44  AGLC      C4             -8.4331955759      -10.1925531772       41.7603093222  LPSA2     8               5.0000000000
      1573        44  AGLC      H4             -9.4414989662      -10.4356851030       42.0401368658  LPSA2     8               5.0000000000
      1574        44  AGLC      O4             -7.5653251242      -11.1043990949       42.3914819843  LPSA2     8               5.0000000000
      1575        44  AGLC      HO4            -6.7117662420      -10.7459342012       42.3800652601  LPSA2     8               5.0000000000
      1576        44  AGLC      C6             -8.4354955716      -11.8663605640       39.7357334439  LPSA2     8               5.0000000000
      1577        44  AGLC      H61            -8.5429282695      -11.9761069331       38.6468043611  LPSA2     8               5.0000000000
      1578        44  AGLC      H62            -7.6187586723      -12.4999532526       40.0276014644  LPSA2     8               5.0000000000
      1579        44  AGLC      O6             -9.4976396925      -12.5741978650       40.3040784562  LPSA2     8               5.0000000000
      1580        44  AGLC      HO6            -9.3004849572      -12.8770623757       41.2121845210  LPSA2     8               5.0000000000
      1581        45  AGAL      C1             -9.9033056395       -5.6481400075       41.4573847493  LPSA2     9               6.0000000000
      1582        45  AGAL      H1             -9.9356911764       -5.6836776905       40.3420235153  LPSA2     9               6.0000000000
      1583        45  AGAL      C5            -11.4351025652       -5.5482915716       43.2125447641  LPSA2     9               6.0000000000
      1584        45  AGAL      H5            -10.6254662572       -6.1874524694       43.7424973645  LPSA2     9               6.0000000000
      1585        45  AGAL      O5            -11.3086876346       -5.7446323139       41.8451689838  LPSA2     9               6.0000000000
      1586        45  AGAL      C2             -9.3744709641       -4.2910687136       41.8393925249  LPSA2     9               6.0000000000
      1587        45  AGAL      H2            -10.0110198133       -3.5298315572       41.4115621152  LPSA2     9               6.0000000000
      1588        45  AGAL      O2             -8.1430579001       -3.9797989911       41.1608705954  LPSA2     9               6.0000000000
      1589        45  AGAL      C3             -9.4956825195       -4.0388609451       43.3264191845  LPSA2     9               6.0000000000
      1590        45  AGAL      H3             -8.8141290913       -4.7719899732       43.9424563891  LPSA2     9               6.0000000000
      1591        45  AGAL      O3             -8.9319302338       -2.8338997588       43.7491515633  LPSA2     9               6.0000000000
      1592        45  AGAL      HO3            -8.1815341514       -2.6724579529       43.1585960960  LPSA2     9               6.0000000000
      1593        45  AGAL      C4            -10.9300970237       -4.1654671008       43.6505755014  LPSA2     9               6.0000000000
      1594        45  AGAL      H4            -11.1384999150       -4.1024025548       44.7734818408  LPSA2     9               6.0000000000
      1595        45  AGAL      O4            -11.7579250993       -3.2179394731       43.0499075873  LPSA2     9               6.0000000000
      1596        45  AGAL      HO4           -12.4954738671       -3.0712736173       43.6622427513  LPSA2     9               6.0000000000
      1597        45  AGAL      C6            -12.7258683550       -6.0826382582       43.8349081587  LPSA2     9               6.0000000000
      1598        45  AGAL      H61           -12.8985596282       -7.1727734580       43.6417203355  LPSA2     9               6.0000000000
      1599        45  AGAL      H62           -12.7681760166       -6.0194616717       44.9292747136  LPSA2     9               6.0000000000
      1600        45  AGAL      O6            -13.8380228693       -5.3563504222       43.4062227539  LPSA2     9               6.0000000000
      1601        45  AGAL      HO6           -14.2552729504       -5.8729786106       42.6923548993  LPSA2     9               6.0000000000
      1602        46  AGAL      C1             -6.9228660177       -3.4740914279       41.7517281777  LPSA2     10              7.0000000000
      1603        46  AGAL      H1             -7.1198110000       -2.3974258258       41.8429972083  LPSA2     10              7.0000000000
      1604        46  AGAL      C5             -6.0885418097       -5.3123591231       43.0613392294  LPSA2     10              7.0000000000
      1605        46  AGAL      H5             -7.0072438329       -5.9063391248       42.6233508762  LPSA2     10              7.0000000000
      1606        46  AGAL      O5             -6.4276724109       -3.9124385457       43.0470213554  LPSA2     10              7.0000000000
      1607        46  AGAL      C2             -5.8071877273       -3.7335162510       40.7227968417  LPSA2     10              7.0000000000
      1608        46  AGAL      H2             -4.9383636780       -3.0376273769       41.0433947026  LPSA2     10              7.0000000000
      1609        46  AGAL      O2             -5.9851242159       -3.0602477998       39.5532095562  LPSA2     10              7.0000000000
      1610        46  AGAL      HO2            -5.2216846445       -2.5384217524       39.3379401176  LPSA2     10              7.0000000000
      1611        46  AGAL      C3             -5.3974272311       -5.1625768893       40.6928251787  LPSA2     10              7.0000000000
      1612        46  AGAL      H3             -6.3258056271       -5.6836142346       40.4679648945  LPSA2     10              7.0000000000
      1613        46  AGAL      O3             -4.3956610228       -5.4785518499       39.7732034444  LPSA2     10              7.0000000000
      1614        46  AGAL      HO3            -4.8215293933       -5.9498906509       39.0151094934  LPSA2     10              7.0000000000
      1615        46  AGAL      C4             -4.9395590372       -5.5668277751       42.0524071915  LPSA2     10              7.0000000000
      1616        46  AGAL      H4             -4.7247830629       -6.6514044074       42.1099272557  LPSA2     10              7.0000000000
      1617        46  AGAL      O4             -3.7943941301       -4.8992775666       42.4965010455  LPSA2     10              7.0000000000
      1618        46  AGAL      HO4            -4.0703505939       -4.0031594523       42.5675127347  LPSA2     10              7.0000000000
      1619        46  AGAL      C6             -5.8344596068       -5.9367217647       44.3959537205  LPSA2     10              7.0000000000
      1620        46  AGAL      H61            -6.6316070140       -5.7332601483       45.1044438806  LPSA2     10              7.0000000000
      1621        46  AGAL      H62            -5.8759012637       -7.1227935261       44.2564473849  LPSA2     10              7.0000000000
      1622        46  AGAL      O6             -4.6118463886       -5.6596785021       45.1112340130  LPSA2     10              7.0000000000
      1623        46  AGAL      HO6            -4.8452336888       -5.1749485607       45.9237589285  LPSA2     10              7.0000000000
      1624        47  BGLC      C1             -8.9121163815       -9.2506408954       44.5018065681  LPSA2     11              6.0000000000
      1625        47  BGLC      H1             -8.3793220136      -10.1860217773       44.5883763758  LPSA2     11              6.0000000000
      1626        47  BGLC      C5            -11.1955477721      -10.0729031276       45.1248117688  LPSA2     11              6.0000000000
      1627        47  BGLC      H5            -10.8335819914      -11.1281541466       45.3871201921  LPSA2     11              6.0000000000
      1628        47  BGLC      O5            -10.3299002608       -9.3707461467       44.0830650888  LPSA2     11              6.0000000000
      1629        47  BGLC      C2             -8.8875754809       -8.4808795108       45.7977571702  LPSA2     11              6.0000000000
      1630        47  BGLC      H2             -9.2448813086       -7.4224288668       45.7293388291  LPSA2     11              6.0000000000
      1631        47  BGLC      O2             -7.5067927122       -8.3205729971       46.0886391483  LPSA2     11              6.0000000000
      1632        47  BGLC      HO2            -7.3400399013       -7.4174790009       46.2788110113  LPSA2     11              6.0000000000
      1633        47  BGLC      C3             -9.6938810083       -9.0808002423       46.8736276645  LPSA2     11              6.0000000000
      1634        47  BGLC      H3             -9.1857708968      -10.0840361874       47.1984917368  LPSA2     11              6.0000000000
      1635        47  BGLC      O3             -9.6098389970       -8.2227166571       48.0056213318  LPSA2     11              6.0000000000
      1636        47  BGLC      C4            -11.0655611360       -9.2443752225       46.4390836423  LPSA2     11              6.0000000000
      1637        47  BGLC      H4            -11.4451680237       -8.1940197634       46.2001611147  LPSA2     11              6.0000000000
      1638        47  BGLC      O4            -11.8987936995       -9.7342658458       47.4766894645  LPSA2     11              6.0000000000
      1639        47  BGLC      HO4           -12.0151549515       -9.0294203152       48.1247908570  LPSA2     11              6.0000000000
      1640        47  BGLC      C6            -12.5911021961      -10.3268435067       44.5291127165  LPSA2     11              6.0000000000
      1641        47  BGLC      H61           -13.3765389106      -10.5162077192       45.2481190913  LPSA2     11              6.0000000000
      1642        47  BGLC      H62           -12.8344456999       -9.4406376362       43.8913252379  LPSA2     11              6.0000000000
      1643        47  BGLC      O6            -12.6514241867      -11.4119692891       43.5637942269  LPSA2     11              6.0000000000
      1644        47  BGLC      HO6           -13.1598275985      -12.0506666118       44.0054369298  LPSA2     11              6.0000000000
      1645        48  BGLCNA    C1             -9.2514293350       -8.6969030148       49.3238540420  LPSA2     12              7.0000000000
      1646        48  BGLCNA    H1             -8.1112252241       -8.6859551912       49.3874222992  LPSA2     12              7.0000000000
      1647        48  BGLCNA    C5             -9.2677944742      -10.5234007814       50.8763077070  LPSA2     12              7.0000000000
      1648        48  BGLCNA    H5             -8.0913378382      -10.5157617327       50.9814236466  LPSA2     12              7.0000000000
      1649        48  BGLCNA    O5             -9.7231192556      -10.0372651655       49.5875345322  LPSA2     12              7.0000000000
      1650        48  BGLCNA    C2             -9.8566749246       -7.7694820153       50.3245054808  LPSA2     12              7.0000000000
      1651        48  BGLCNA    H2            -11.0052653012       -8.0016133298       50.3375086743  LPSA2     12              7.0000000000
      1652        48  BGLCNA    N              -9.4714014385       -6.3745310833       50.0347611965  LPSA2     12              7.0000000000
      1653        48  BGLCNA    HN             -8.5283969086       -6.3313294369       49.9972643287  LPSA2     12              7.0000000000
      1654        48  BGLCNA    C             -10.3692554649       -5.4478088843       49.8903426450  LPSA2     12              7.0000000000
      1655        48  BGLCNA    O             -11.5485104590       -5.7062911174       50.0855928044  LPSA2     12              7.0000000000
      1656        48  BGLCNA    CT             -9.8743344589       -4.0707195677       49.5677689528  LPSA2     12              7.0000000000
      1657        48  BGLCNA    HT1           -10.0562536648       -3.3575488544       50.3918503408  LPSA2     12              7.0000000000
      1658        48  BGLCNA    HT2           -10.5345985946       -3.6009276670       48.7104760971  LPSA2     12              7.0000000000
      1659        48  BGLCNA    HT3            -8.8139431547       -4.1838987149       49.2316245990  LPSA2     12              7.0000000000
      1660        48  BGLCNA    C3             -9.4509048476       -8.1415488831       51.6995695120  LPSA2     12              7.0000000000
      1661        48  BGLCNA    H3             -8.2839902033       -8.0046414062       51.8605307917  LPSA2     12              7.0000000000
      1662        48  BGLCNA    O3             -9.9638578464       -7.2502052964       52.7272334264  LPSA2     12              7.0000000000
      1663        48  BGLCNA    C4             -9.8790847471       -9.5507485268       51.9591692987  LPSA2     12              7.0000000000
      1664        48  BGLCNA    H4            -11.0203346006       -9.7209383155       51.9037868612  LPSA2     12              7.0000000000
      1665        48  BGLCNA    O4             -9.5165269650       -9.9793459508       53.2294962294  LPSA2     12              7.0000000000
      1666        48  BGLCNA    HO4            -8.5379504774      -10.1861915588       53.2834945119  LPSA2     12              7.0000000000
      1667        48  BGLCNA    C6             -9.6611152491      -12.0126240175       50.9528560558  LPSA2     12              7.0000000000
      1668        48  BGLCNA    H61            -9.4315779781      -12.4100090245       51.9144325068  LPSA2     12              7.0000000000
      1669        48  BGLCNA    H62           -10.7381271810      -11.9876263084       50.8287962869  LPSA2     12              7.0000000000
      1670        48  BGLCNA    O6             -9.1296166880      -12.7180187907       49.8597561973  LPSA2     12              7.0000000000
      1671        48  BGLCNA    HO6            -8.2902308883      -13.0076258346       50.1903398796  LPSA2     12              7.0000000000
      1672        49  AGAL      C1             -9.0407192362       -6.9155030352       53.8132743488  LPSA2     13              8.0000000000
      1673        49  AGAL      H1             -8.5735507332       -7.8502289603       54.1959401301  LPSA2     13              8.0000000000
      1674        49  AGAL      C5             -8.8392703104       -4.5702905928       53.2950732168  LPSA2     13              8.0000000000
      1675        49  AGAL      H5             -9.6175804565       -4.7784649650       52.5641412600  LPSA2     13              8.0000000000
      1676        49  AGAL      O5             -8.1304586629       -5.8040345366       53.4918445955  LPSA2     13              8.0000000000
      1677        49  AGAL      C2             -9.7449845912       -6.4059381463       55.1010141246  LPSA2     13              8.0000000000
      1678        49  AGAL      H2             -8.9710473150       -6.0151371922       55.7917211299  LPSA2     13              8.0000000000
      1679        49  AGAL      O2            -10.4547190585       -7.4272664357       55.7701983428  LPSA2     13              8.0000000000
      1680        49  AGAL      C3            -10.4974829799       -5.0686435111       54.8979691660  LPSA2     13              8.0000000000
      1681        49  AGAL      H3            -11.1630994832       -5.1786398583       54.0477453328  LPSA2     13              8.0000000000
      1682        49  AGAL      O3            -11.3767052858       -4.7557048895       55.9888739531  LPSA2     13              8.0000000000
      1683        49  AGAL      HO3           -12.1969990254       -4.3807988268       55.6848713412  LPSA2     13              8.0000000000
      1684        49  AGAL      C4             -9.5836108891       -4.0380297964       54.5514025965  LPSA2     13              8.0000000000
      1685        49  AGAL      H4            -10.1405092952       -3.0895917052       54.1954731349  LPSA2     13              8.0000000000
      1686        49  AGAL      O4             -8.6656384224       -3.7191088553       55.5743212917  LPSA2     13              8.0000000000
      1687        49  AGAL      HO4            -8.2625583911       -4.4604475997       56.0499681296  LPSA2     13              8.0000000000
      1688        49  AGAL      C6             -8.0856461310       -3.4999642449       52.5301443486  LPSA2     13              8.0000000000
      1689        49  AGAL      H61            -7.6414912328       -3.9377901903       51.6253596531  LPSA2     13              8.0000000000
      1690        49  AGAL      H62            -8.7778809219       -2.6364857478       52.3684678279  LPSA2     13              8.0000000000
      1691        49  AGAL      O6             -7.0231333013       -2.9740586928       53.2985910507  LPSA2     13              8.0000000000
      1692        49  AGAL      HO6            -7.3871460822       -2.3340280867       53.9299633642  LPSA2     13              8.0000000000
      1693        50  ARHM      C1            -10.0119489363       -7.8977818956       57.0117786358  LPSA2     14              9.0000000000
      1694        50  ARHM      H1             -8.9145559379       -7.7330204316       56.9981767125  LPSA2     14              9.0000000000
      1695        50  ARHM      C5            -11.5935544417       -9.5962686863       57.1930138837  LPSA2     14              9.0000000000
      1696        50  ARHM      H5            -12.0360368414       -9.2153920293       56.1976867078  LPSA2     14              9.0000000000
      1697        50  ARHM      O5            -10.2500448382       -9.2872322119       57.1718909996  LPSA2     14              9.0000000000
      1698        50  ARHM      C2            -10.7069200523       -7.1061543130       58.1413490634  LPSA2     14              9.0000000000
      1699        50  ARHM      H2            -10.5206668371       -6.0702624308       57.8875987320  LPSA2     14              9.0000000000
      1700        50  ARHM      O2            -10.2741389832       -7.4071783391       59.4330148990  LPSA2     14              9.0000000000
      1701        50  ARHM      C3            -12.1789647645       -7.3995812139       58.1095432995  LPSA2     14              9.0000000000
      1702        50  ARHM      H3            -12.5321188313       -7.2711580841       57.0440121713  LPSA2     14              9.0000000000
      1703        50  ARHM      O3            -12.9683739766       -6.5261635789       58.8567888868  LPSA2     14              9.0000000000
      1704        50  ARHM      HO3           -12.8076889696       -6.7848035391       59.8104957846  LPSA2     14              9.0000000000
      1705        50  ARHM      C4            -12.3305839282       -8.8580338089       58.3490442956  LPSA2     14              9.0000000000
      1706        50  ARHM      H4            -11.8866306487       -9.2591547539       59.2902338481  LPSA2     14              9.0000000000
      1707        50  ARHM      O4            -13.7457441502       -9.1788273987       58.4446785014  LPSA2     14              9.0000000000
      1708        50  ARHM      HO4           -14.0635524734       -9.4722657434       59.2969967688  LPSA2     14              9.0000000000
      1709        50  ARHM      C6            -11.7781749657      -11.1221821673       57.2492155848  LPSA2     14              9.0000000000
      1710        50  ARHM      H61           -11.1015869557      -11.7128436189       56.5358243550  LPSA2     14              9.0000000000
      1711        50  ARHM      H62           -11.6565098950      -11.3957352569       58.3170764683  LPSA2     14              9.0000000000
      1712        50  ARHM      H63           -12.7298522459      -11.5624249281       56.9421594120  LPSA2     14              9.0000000000
      1713        51  ARHM      C1             -8.9661413551       -7.3984261528       59.7267990175  LPSA2     15             10.0000000000
      1714        51  ARHM      H1             -8.4036248616       -6.7237634103       59.0458905905  LPSA2     15             10.0000000000
      1715        51  ARHM      C5             -8.7941033592       -9.6987017519       60.6468530148  LPSA2     15             10.0000000000
      1716        51  ARHM      H5             -9.8669028107      -10.0114053623       60.4457705401  LPSA2     15             10.0000000000
      1717        51  ARHM      O5             -8.3479606509       -8.7084296615       59.6688136410  LPSA2     15             10.0000000000
      1718        51  ARHM      C2             -8.7646704625       -6.8576144918       61.1407671534  LPSA2     15             10.0000000000
      1719        51  ARHM      H2             -9.3573027745       -5.8679146760       61.2133420761  LPSA2     15             10.0000000000
      1720        51  ARHM      O2             -7.3314749266       -6.6589665718       61.3234079317  LPSA2     15             10.0000000000
      1721        51  ARHM      C3             -9.3377354003       -7.8352701560       62.1677656617  LPSA2     15             10.0000000000
      1722        51  ARHM      H3            -10.4046253021       -8.0239539473       61.8628392879  LPSA2     15             10.0000000000
      1723        51  ARHM      O3             -9.4178089446       -7.0851663753       63.4092175029  LPSA2     15             10.0000000000
      1724        51  ARHM      C4             -8.6250337804       -9.0949803133       62.0487117432  LPSA2     15             10.0000000000
      1725        51  ARHM      H4             -7.4868725253       -8.8781965011       62.1496903561  LPSA2     15             10.0000000000
      1726        51  ARHM      O4             -8.9590308143      -10.1422384313       62.9635513464  LPSA2     15             10.0000000000
      1727        51  ARHM      HO4            -8.2541009771      -10.7721054671       62.9565205260  LPSA2     15             10.0000000000
      1728        51  ARHM      C6             -8.0188265882      -10.9805055319       60.4460959132  LPSA2     15             10.0000000000
      1729        51  ARHM      H61            -8.3506575240      -11.8333475010       61.0956562646  LPSA2     15             10.0000000000
      1730        51  ARHM      H62            -7.9449298012      -11.1996892939       59.3910198679  LPSA2     15             10.0000000000
      1731        51  ARHM      H63            -6.9726854928      -10.9130523021       60.8578185328  LPSA2     15             10.0000000000
      1732        52  BMANNA    C1             -6.8489672160       -6.0577086050       62.5145562334  LPSA2     16             11.0000000000
      1733        52  BMANNA    H1             -6.9722934872       -6.8501327523       63.3432051365  LPSA2     16             11.0000000000
      1734        52  BMANNA    C5             -7.0178591608       -4.4115281547       64.1851548173  LPSA2     16             11.0000000000
      1735        52  BMANNA    H5             -7.0831799234       -5.1659659087       64.9800677769  LPSA2     16             11.0000000000
      1736        52  BMANNA    O5             -7.5424293076       -4.8820512823       62.9158851071  LPSA2     16             11.0000000000
      1737        52  BMANNA    C2             -5.3499310974       -5.7595247719       62.2781089586  LPSA2     16             11.0000000000
      1738        52  BMANNA    H2             -4.9118966313       -6.7514107172       61.9912908466  LPSA2     16             11.0000000000
      1739        52  BMANNA    N              -4.9869624908       -4.8053366620       61.2264456342  LPSA2     16             11.0000000000
      1740        52  BMANNA    HN             -4.9532668031       -3.8952479910       61.5688724990  LPSA2     16             11.0000000000
      1741        52  BMANNA    C              -4.7776083648       -5.1128772387       59.9704010620  LPSA2     16             11.0000000000
      1742        52  BMANNA    O              -4.7960645841       -6.3050528181       59.5582221915  LPSA2     16             11.0000000000
      1743        52  BMANNA    CT             -4.5062380390       -3.9558849842       59.1331689300  LPSA2     16             11.0000000000
      1744        52  BMANNA    HT1            -3.4786181207       -3.8199692047       58.8344492748  LPSA2     16             11.0000000000
      1745        52  BMANNA    HT2            -4.8413493082       -2.9878605620       59.5043001239  LPSA2     16             11.0000000000
      1746        52  BMANNA    HT3            -5.0207002550       -4.0543883832       58.1231520073  LPSA2     16             11.0000000000
      1747        52  BMANNA    C3             -4.8078465089       -5.3104210175       63.6119771117  LPSA2     16             11.0000000000
      1748        52  BMANNA    H3             -4.9717042646       -6.1069777312       64.3839812837  LPSA2     16             11.0000000000
      1749        52  BMANNA    O3             -3.4253026392       -5.0993209898       63.6122488842  LPSA2     16             11.0000000000
      1750        52  BMANNA    HO3            -3.0072515195       -5.6071245996       64.2950500102  LPSA2     16             11.0000000000
      1751        52  BMANNA    C4             -5.5230924515       -4.0459076416       64.1045846713  LPSA2     16             11.0000000000
      1752        52  BMANNA    H4             -5.3840183544       -3.1936183052       63.4124605202  LPSA2     16             11.0000000000
      1753        52  BMANNA    O4             -5.1194738007       -3.5190891099       65.3816866120  LPSA2     16             11.0000000000
      1754        52  BMANNA    HO4            -5.3210150400       -2.5859443317       65.4353184152  LPSA2     16             11.0000000000
      1755        52  BMANNA    C6             -7.8133813081       -3.2242054080       64.7427751243  LPSA2     16             11.0000000000
      1756        52  BMANNA    H61            -7.7470732812       -3.2832102690       65.8875394407  LPSA2     16             11.0000000000
      1757        52  BMANNA    H62            -7.3726911161       -2.2722916662       64.4389269682  LPSA2     16             11.0000000000
      1758        52  BMANNA    O6             -9.2047778711       -3.2149795675       64.3660927576  LPSA2     16             11.0000000000
      1759        52  BMANNA    HO6            -9.2771508144       -2.3508294930       63.9036969990  LPSA2     16             11.0000000000
      1760        53  BGLCNA    C1            -10.4993598285       -7.3365565313       64.1715778089  LPSA2     17             11.0000000000
      1761        53  BGLCNA    H1            -10.8873298505       -8.4022283123       63.9082176002  LPSA2     17             11.0000000000
      1762        53  BGLCNA    C5            -12.8254359962       -6.6939686259       64.5563394407  LPSA2     17             11.0000000000
      1763        53  BGLCNA    H5            -13.2521090627       -7.7305298882       64.2825289487  LPSA2     17             11.0000000000
      1764        53  BGLCNA    O5            -11.6298096650       -6.5030318121       63.7849982893  LPSA2     17             11.0000000000
      1765        53  BGLCNA    C2            -10.1138688957       -7.1266124214       65.5899343931  LPSA2     17             11.0000000000
      1766        53  BGLCNA    H2             -9.7632174076       -6.0653543788       65.8249043900  LPSA2     17             11.0000000000
      1767        53  BGLCNA    N              -8.9567400474       -7.8707304166       65.8849826081  LPSA2     17             11.0000000000
      1768        53  BGLCNA    HN             -8.8220546132       -8.7633704558       65.4150135415  LPSA2     17             11.0000000000
      1769        53  BGLCNA    C              -8.0289422653       -7.6722599646       66.8043620798  LPSA2     17             11.0000000000
      1770        53  BGLCNA    O              -7.9889014831       -6.6462911007       67.4729873017  LPSA2     17             11.0000000000
      1771        53  BGLCNA    CT             -7.0351426024       -8.7578829204       66.9728872304  LPSA2     17             11.0000000000
      1772        53  BGLCNA    HT1            -6.0191917016       -8.6455722499       66.5529393721  LPSA2     17             11.0000000000
      1773        53  BGLCNA    HT2            -7.5346754310       -9.7087689398       66.7043805047  LPSA2     17             11.0000000000
      1774        53  BGLCNA    HT3            -6.8278649311       -8.9368149413       68.1408097225  LPSA2     17             11.0000000000
      1775        53  BGLCNA    C3            -11.3453624113       -7.4457375314       66.4076579941  LPSA2     17             11.0000000000
      1776        53  BGLCNA    H3            -11.5904522813       -8.4996400412       66.0441361901  LPSA2     17             11.0000000000
      1777        53  BGLCNA    O3            -10.9323825910       -7.5157414356       67.8205355914  LPSA2     17             11.0000000000
      1778        53  BGLCNA    C4            -12.4428716249       -6.4533630029       66.0496966154  LPSA2     17             11.0000000000
      1779        53  BGLCNA    H4            -12.0687012440       -5.3719204041       66.1123142204  LPSA2     17             11.0000000000
      1780        53  BGLCNA    O4            -13.5539702611       -6.5399433995       66.9186044206  LPSA2     17             11.0000000000
      1781        53  BGLCNA    HO4           -14.2846172805       -5.9665939419       66.7204061560  LPSA2     17             11.0000000000
      1782        53  BGLCNA    C6            -13.8913646247       -5.6697234702       64.1200051697  LPSA2     17             11.0000000000
      1783        53  BGLCNA    H61           -14.8627560528       -6.1245021817       64.1272946536  LPSA2     17             11.0000000000
      1784        53  BGLCNA    H62           -13.9184129443       -4.7794850139       64.8212395067  LPSA2     17             11.0000000000
      1785        53  BGLCNA    O6            -13.6661534576       -5.1753639698       62.7926115083  LPSA2     17             11.0000000000
      1786        53  BGLCNA    HO6           -13.6748638274       -5.9069406715       62.1856770532  LPSA2     17             11.0000000000
      1787        54  AGAL      C1            -11.6147156580       -8.5153423722       68.6198653987  LPSA2     18             12.0000000000
      1788        54  AGAL      H1            -12.6613634072       -8.1326979977       68.8082567594  LPSA2     18             12.0000000000
      1789        54  AGAL      C5            -10.3604197096      -10.4186178953       67.8636918791  LPSA2     18             12.0000000000
      1790        54  AGAL      H5             -9.6766207766       -9.6976180233       67.4068928888  LPSA2     18             12.0000000000
      1791        54  AGAL      O5            -11.6791841380       -9.7728282693       67.9834320655  LPSA2     18             12.0000000000
      1792        54  AGAL      C2            -10.8936050500       -8.7589885930       70.0000206359  LPSA2     18             12.0000000000
      1793        54  AGAL      H2            -11.5649825051       -9.5578784783       70.3908489884  LPSA2     18             12.0000000000
      1794        54  AGAL      O2            -11.0601774565       -7.6610185471       70.8342757016  LPSA2     18             12.0000000000
      1795        54  AGAL      C3             -9.5446735722       -9.3756981141       69.8682924558  LPSA2     18             12.0000000000
      1796        54  AGAL      H3             -8.9342828496       -8.7527141043       69.0958348126  LPSA2     18             12.0000000000
      1797        54  AGAL      O3             -8.8451743752       -9.4029402183       71.0758896640  LPSA2     18             12.0000000000
      1798        54  AGAL      HO3            -7.9414513764       -9.1012246730       70.9682873819  LPSA2     18             12.0000000000
      1799        54  AGAL      C4             -9.6749371125      -10.6647586832       69.1634745928  LPSA2     18             12.0000000000
      1800        54  AGAL      H4             -8.7186742039      -11.1768497083       68.9039691178  LPSA2     18             12.0000000000
      1801        54  AGAL      O4            -10.4128305388      -11.6170464573       69.9734134928  LPSA2     18             12.0000000000
      1802        54  AGAL      HO4            -9.8086783803      -11.9511912773       70.7236544006  LPSA2     18             12.0000000000
      1803        54  AGAL      C6            -10.4597499241      -11.4237089263       66.8042742825  LPSA2     18             12.0000000000
      1804        54  AGAL      H61           -10.7111343597      -10.8876062392       65.8877991861  LPSA2     18             12.0000000000
      1805        54  AGAL      H62            -9.4227669911      -11.8284938486       66.6499463921  LPSA2     18             12.0000000000
      1806        54  AGAL      O6            -11.3741418718      -12.3803789844       66.9803033045  LPSA2     18             12.0000000000
      1807        54  AGAL      HO6           -12.0174846805      -12.2570961604       67.6707071977  LPSA2     18             12.0000000000
      1808        55  ARHM      C1            -11.3698181487       -8.1041983261       72.1803514454  LPSA2     19             13.0000000000
      1809        55  ARHM      H1            -11.0712223805       -9.1239354080       72.3185909119  LPSA2     19             13.0000000000
      1810        55  ARHM      C5            -13.4645683345       -6.9950338273       72.2512180912  LPSA2     19             13.0000000000
      1811        55  ARHM      H5            -13.2377769766       -6.6387799534       71.2133247196  LPSA2     19             13.0000000000
      1812        55  ARHM      O5            -12.7787343436       -8.2373572168       72.4162684983  LPSA2     19             13.0000000000
      1813        55  ARHM      C2            -10.7434467885       -7.1318994634       73.1100514097  LPSA2     19             13.0000000000
      1814        55  ARHM      H2             -9.7181797832       -6.9237196388       72.9420985559  LPSA2     19             13.0000000000
      1815        55  ARHM      O2            -10.8756985492       -7.5838545039       74.4131644751  LPSA2     19             13.0000000000
      1816        55  ARHM      C3            -11.5199799396       -5.7844122719       72.9859276785  LPSA2     19             13.0000000000
      1817        55  ARHM      H3            -11.4486558049       -5.4723339987       71.9471750908  LPSA2     19             13.0000000000
      1818        55  ARHM      O3            -10.9418047485       -4.7999599234       73.7644258584  LPSA2     19             13.0000000000
      1819        55  ARHM      HO3           -10.8313050189       -5.1722841398       74.6464134549  LPSA2     19             13.0000000000
      1820        55  ARHM      C4            -12.9607569085       -5.9234297462       73.2443334127  LPSA2     19             13.0000000000
      1821        55  ARHM      H4            -13.0453280575       -6.3034261089       74.2703943704  LPSA2     19             13.0000000000
      1822        55  ARHM      O4            -13.6978565413       -4.7439290434       73.1708570575  LPSA2     19             13.0000000000
      1823        55  ARHM      HO4           -13.6449802630       -4.4525751351       72.2126258713  LPSA2     19             13.0000000000
      1824        55  ARHM      C6            -14.9910026142       -7.1867568938       72.3031700958  LPSA2     19             13.0000000000
      1825        55  ARHM      H61           -15.1287867398       -7.9137588760       71.5186681997  LPSA2     19             13.0000000000
      1826        55  ARHM      H62           -15.4017893133       -7.5909946826       73.2001761489  LPSA2     19             13.0000000000
      1827        55  ARHM      H63           -15.5522577981       -6.2731996460       72.0875448643  LPSA2     19             13.0000000000
      1828        56  ARHM      C1             -9.9816459045       -8.6087283329       74.6981797177  LPSA2     20             14.0000000000
      1829        56  ARHM      H1             -9.1857441981       -8.7351132170       73.8936196974  LPSA2     20             14.0000000000
      1830        56  ARHM      C5            -11.4109157715      -10.0286763293       75.9960310464  LPSA2     20             14.0000000000
      1831        56  ARHM      H5            -12.1761305294       -9.2329532144       75.8071112250  LPSA2     20             14.0000000000
      1832        56  ARHM      O5            -10.5265442309       -9.9172085090       74.8741575474  LPSA2     20             14.0000000000
      1833        56  ARHM      C2             -9.1744121662       -8.2510155430       75.9438944127  LPSA2     20             14.0000000000
      1834        56  ARHM      H2             -8.8089905550       -7.1516319820       75.7904987900  LPSA2     20             14.0000000000
      1835        56  ARHM      O2             -8.0770133740       -9.1527358330       76.2145535291  LPSA2     20             14.0000000000
      1836        56  ARHM      C3            -10.1033378159       -8.3661428426       77.0746584307  LPSA2     20             14.0000000000
      1837        56  ARHM      H3            -10.9725789658       -7.6181157698       76.9570890266  LPSA2     20             14.0000000000
      1838        56  ARHM      O3             -9.3643920004       -7.9303383091       78.2431898216  LPSA2     20             14.0000000000
      1839        56  ARHM      C4            -10.6776088582       -9.7360700152       77.2147849866  LPSA2     20             14.0000000000
      1840        56  ARHM      H4             -9.9296310685      -10.4984856487       77.2882629629  LPSA2     20             14.0000000000
      1841        56  ARHM      O4            -11.4611462657       -9.7933309975       78.4294019453  LPSA2     20             14.0000000000
      1842        56  ARHM      HO4           -12.0579812111      -10.4215260841       78.0714846557  LPSA2     20             14.0000000000
      1843        56  ARHM      C6            -12.0791848935      -11.3397337749       75.9818768401  LPSA2     20             14.0000000000
      1844        56  ARHM      H61           -11.4568038286      -12.2819268368       76.0487105533  LPSA2     20             14.0000000000
      1845        56  ARHM      H62           -12.8547001998      -11.3726682635       76.7492574554  LPSA2     20             14.0000000000
      1846        56  ARHM      H63           -12.6424418363      -11.5700518738       75.0059134709  LPSA2     20             14.0000000000
      1847        57  BMANNA    C1             -7.0171135873       -8.7047604450       75.4501725836  LPSA2     21             15.0000000000
      1848        57  BMANNA    H1             -7.3576140153       -7.9308660000       74.6495731600  LPSA2     21             15.0000000000
      1849        57  BMANNA    C5             -5.5302129058       -9.1916414970       73.6578092950  LPSA2     21             15.0000000000
      1850        57  BMANNA    H5             -5.8493852750       -8.2434910764       73.0422409194  LPSA2     21             15.0000000000
      1851        57  BMANNA    O5             -6.5506147797       -9.7640814525       74.5460975074  LPSA2     21             15.0000000000
      1852        57  BMANNA    C2             -5.9096496332       -8.2167499124       76.3268603500  LPSA2     21             15.0000000000
      1853        57  BMANNA    H2             -6.4082051606       -7.4094279336       76.8663433126  LPSA2     21             15.0000000000
      1854        57  BMANNA    N              -5.4552178239       -9.2440300718       77.2602735953  LPSA2     21             15.0000000000
      1855        57  BMANNA    HN             -5.2114771229      -10.0963158703       76.8630196157  LPSA2     21             15.0000000000
      1856        57  BMANNA    C              -5.0839202656       -9.0211307083       78.6142451918  LPSA2     21             15.0000000000
      1857        57  BMANNA    O              -4.9466770783       -7.8717700627       79.0340579138  LPSA2     21             15.0000000000
      1858        57  BMANNA    CT             -4.8030545023      -10.2462855329       79.5125915666  LPSA2     21             15.0000000000
      1859        57  BMANNA    HT1            -3.7671326174      -10.6016065276       79.3040814335  LPSA2     21             15.0000000000
      1860        57  BMANNA    HT2            -5.6154067443      -10.9674257785       79.3224353366  LPSA2     21             15.0000000000
      1861        57  BMANNA    HT3            -4.8454732418       -9.9477119800       80.6000991146  LPSA2     21             15.0000000000
      1862        57  BMANNA    C3             -4.8521450177       -7.6556707764       75.4428482744  LPSA2     21             15.0000000000
      1863        57  BMANNA    H3             -5.3817701921       -6.8190232592       75.0091666053  LPSA2     21             15.0000000000
      1864        57  BMANNA    O3             -3.7556991644       -7.1324046280       76.1769203835  LPSA2     21             15.0000000000
      1865        57  BMANNA    HO3            -3.4396069476       -7.8173751711       76.7354970047  LPSA2     21             15.0000000000
      1866        57  BMANNA    C4             -4.3552430104       -8.7093107410       74.4866217523  LPSA2     21             15.0000000000
      1867        57  BMANNA    H4             -3.7805607224       -9.6248945095       75.0002820064  LPSA2     21             15.0000000000
      1868        57  BMANNA    O4             -3.3768862289       -8.2190440700       73.6152290754  LPSA2     21             15.0000000000
      1869        57  BMANNA    HO4            -2.5122929599       -8.6598254703       73.7703874424  LPSA2     21             15.0000000000
      1870        57  BMANNA    C6             -5.1279917475      -10.1219817239       72.6348027846  LPSA2     21             15.0000000000
      1871        57  BMANNA    H61            -4.4889496693       -9.6674604670       71.8494922130  LPSA2     21             15.0000000000
      1872        57  BMANNA    H62            -4.3684885694      -10.8355299361       73.0558617198  LPSA2     21             15.0000000000
      1873        57  BMANNA    O6             -6.1172775924      -10.9251464898       72.0654385618  LPSA2     21             15.0000000000
      1874        57  BMANNA    HO6            -6.5771923075      -11.3668084435       72.7784055652  LPSA2     21             15.0000000000
      1875        58  BGLCNA    C1             -9.9931302169       -7.1848479755       79.2248726046  LPSA2     22             15.0000000000
      1876        58  BGLCNA    H1            -11.1116747157       -7.3323411626       79.2753119810  LPSA2     22             15.0000000000
      1877        58  BGLCNA    C5            -10.5249563875       -5.0127917565       80.1145289529  LPSA2     22             15.0000000000
      1878        58  BGLCNA    H5            -11.6449540255       -5.3515076467       80.0727605020  LPSA2     22             15.0000000000
      1879        58  BGLCNA    O5             -9.8415916166       -5.8027926988       79.0803056561  LPSA2     22             15.0000000000
      1880        58  BGLCNA    C2             -9.4272121092       -7.5936213459       80.5602818744  LPSA2     22             15.0000000000
      1881        58  BGLCNA    H2             -8.3240685225       -7.2938721064       80.4633107900  LPSA2     22             15.0000000000
      1882        58  BGLCNA    N              -9.5779330712       -9.0261890366       80.7025670875  LPSA2     22             15.0000000000
      1883        58  BGLCNA    HN            -10.4476669659       -9.3926114495       80.4501896382  LPSA2     22             15.0000000000
      1884        58  BGLCNA    C              -8.7268325287       -9.8119098774       81.3295640408  LPSA2     22             15.0000000000
      1885        58  BGLCNA    O              -7.6889317627       -9.3575085380       81.8448112003  LPSA2     22             15.0000000000
      1886        58  BGLCNA    CT             -9.0700403495      -11.2548841327       81.4359073222  LPSA2     22             15.0000000000
      1887        58  BGLCNA    HT1            -8.6213534701      -11.6578251100       80.5353412834  LPSA2     22             15.0000000000
      1888        58  BGLCNA    HT2           -10.1686628310      -11.3468025378       81.2752873926  LPSA2     22             15.0000000000
      1889        58  BGLCNA    HT3            -8.8414089654      -11.7273941729       82.3679651303  LPSA2     22             15.0000000000
      1890        58  BGLCNA    C3            -10.0714201728       -6.8166296931       81.6855161512  LPSA2     22             15.0000000000
      1891        58  BGLCNA    H3            -11.1746236456       -6.9986453012       81.6419517197  LPSA2     22             15.0000000000
      1892        58  BGLCNA    O3             -9.5581252620       -7.3773578595       82.8729300216  LPSA2     22             15.0000000000
      1893        58  BGLCNA    C4             -9.8916760954       -5.3105669701       81.4704242134  LPSA2     22             15.0000000000
      1894        58  BGLCNA    H4             -8.8467932078       -5.1528123534       81.4144045074  LPSA2     22             15.0000000000
      1895        58  BGLCNA    O4            -10.4395189332       -4.5357657594       82.5140850489  LPSA2     22             15.0000000000
      1896        58  BGLCNA    HO4            -9.8322142911       -3.8023852069       82.7130071916  LPSA2     22             15.0000000000
      1897        58  BGLCNA    C6            -10.3675284062       -3.5487973953       79.7284495560  LPSA2     22             15.0000000000
      1898        58  BGLCNA    H61           -10.5802140366       -2.9992641530       80.6924177192  LPSA2     22             15.0000000000
      1899        58  BGLCNA    H62            -9.3154622975       -3.3095756936       79.4648784538  LPSA2     22             15.0000000000
      1900        58  BGLCNA    O6            -11.2995273268       -3.0870285920       78.8100863794  LPSA2     22             15.0000000000
      1901        58  BGLCNA    HO6           -11.2393938821       -3.6186641898       78.0328486455  LPSA2     22             15.0000000000
      1902        59  AGAL      C1            -10.2379300024       -7.2038504296       84.0628261254  LPSA2     23             16.0000000000
      1903        59  AGAL      H1            -10.0897928936       -6.1823210152       84.5106287163  LPSA2     23             16.0000000000
      1904        59  AGAL      C5            -11.9746028123       -8.8044314679       83.7583018441  LPSA2     23             16.0000000000
      1905        59  AGAL      H5            -11.3853318073       -9.1684288944       82.8366412438  LPSA2     23             16.0000000000
      1906        59  AGAL      O5            -11.6454280285       -7.4551107346       83.9976212264  LPSA2     23             16.0000000000
      1907        59  AGAL      C2             -9.6593578065       -8.0990464514       85.1427633740  LPSA2     23             16.0000000000
      1908        59  AGAL      H2            -10.2423470626       -7.8788212581       86.0076373284  LPSA2     23             16.0000000000
      1909        59  AGAL      O2             -8.3344868095       -7.7857740351       85.5000844886  LPSA2     23             16.0000000000
      1910        59  AGAL      C3             -9.9413143880       -9.5446211170       84.9194901020  LPSA2     23             16.0000000000
      1911        59  AGAL      H3             -9.5870784078       -9.7570495387       83.8641570193  LPSA2     23             16.0000000000
      1912        59  AGAL      O3             -9.2442161865      -10.4345907576       85.7108298168  LPSA2     23             16.0000000000
      1913        59  AGAL      HO3            -9.3315617156      -10.0702542024       86.6206525111  LPSA2     23             16.0000000000
      1914        59  AGAL      C4            -11.4306794773       -9.7157483155       84.8901212015  LPSA2     23             16.0000000000
      1915        59  AGAL      H4            -11.7390001736      -10.7587425962       84.6506069022  LPSA2     23             16.0000000000
      1916        59  AGAL      O4            -12.1135352303       -9.4866774076       86.1132943683  LPSA2     23             16.0000000000
      1917        59  AGAL      HO4           -12.8910781810       -9.1256629869       85.8278371007  LPSA2     23             16.0000000000
      1918        59  AGAL      C6            -13.4102750354       -8.9441177571       83.3278962909  LPSA2     23             16.0000000000
      1919        59  AGAL      H61           -13.6405444253       -8.2037952462       82.6074235255  LPSA2     23             16.0000000000
      1920        59  AGAL      H62           -13.5931526140       -9.8622240027       82.7620574208  LPSA2     23             16.0000000000
      1921        59  AGAL      O6            -14.2642871875       -8.7340339635       84.3845202183  LPSA2     23             16.0000000000
      1922        59  AGAL      HO6           -15.1857393776       -8.7656189219       84.1740981585  LPSA2     23             16.0000000000
      1923        60  ARHM      C1             -7.9529036599       -6.6687275213       86.2818185944  LPSA2     24             17.0000000000
      1924        60  ARHM      H1             -8.8092948474       -6.0281654252       86.3680542693  LPSA2     24             17.0000000000
      1925        60  ARHM      C5             -5.6501857496       -6.5220716963       85.6157638072  LPSA2     24             17.0000000000
      1926        60  ARHM      H5             -5.8076979345       -7.3871061848       85.0070975499  LPSA2     24             17.0000000000
      1927        60  ARHM      O5             -6.8447683985       -5.7874088523       85.8657410059  LPSA2     24             17.0000000000
      1928        60  ARHM      C2             -7.6100663024       -7.2958071421       87.5921581840  LPSA2     24             17.0000000000
      1929        60  ARHM      H2             -8.3408464156       -8.0210282556       87.8984046741  LPSA2     24             17.0000000000
      1930        60  ARHM      O2             -7.3180352742       -6.3168786008       88.6075763533  LPSA2     24             17.0000000000
      1931        60  ARHM      C3             -6.2942190657       -8.0682681166       87.4133527752  LPSA2     24             17.0000000000
      1932        60  ARHM      H3             -6.5141705173       -8.8355207895       86.6640279609  LPSA2     24             17.0000000000
      1933        60  ARHM      O3             -5.9061468254       -8.8675207566       88.5620392964  LPSA2     24             17.0000000000
      1934        60  ARHM      HO3            -5.3984846815       -8.2641195842       89.1463757531  LPSA2     24             17.0000000000
      1935        60  ARHM      C4             -5.1683085930       -7.1585452796       86.9402325015  LPSA2     24             17.0000000000
      1936        60  ARHM      H4             -5.0775288642       -6.2898271839       87.7071552895  LPSA2     24             17.0000000000
      1937        60  ARHM      O4             -3.9072750591       -7.7836519090       86.8379508285  LPSA2     24             17.0000000000
      1938        60  ARHM      HO4            -3.1741143634       -7.2189599432       87.0219124236  LPSA2     24             17.0000000000
      1939        60  ARHM      C6             -4.5233197186       -5.6545781284       84.9175891319  LPSA2     24             17.0000000000
      1940        60  ARHM      H61            -3.8505146160       -6.3251245299       84.3853494017  LPSA2     24             17.0000000000
      1941        60  ARHM      H62            -5.0320739374       -5.0174356653       84.2649634992  LPSA2     24             17.0000000000
      1942        60  ARHM      H63            -4.0223907993       -4.9710421970       85.6811466487  LPSA2     24             17.0000000000
      1943        61  ARHM      C1             -8.5184126963       -5.7868766495       89.1588742089  LPSA2     25             18.0000000000
      1944        61  ARHM      H1             -9.3170233943       -5.9226326336       88.4722246341  LPSA2     25             18.0000000000
      1945        61  ARHM      C5             -7.4824718894       -3.8805537244       90.1670531641  LPSA2     25             18.0000000000
      1946        61  ARHM      H5             -6.5017458313       -4.1591423802       89.8870230824  LPSA2     25             18.0000000000
      1947        61  ARHM      O5             -8.4787669819       -4.3479631152       89.2315309535  LPSA2     25             18.0000000000
      1948        61  ARHM      C2             -8.7708570843       -6.4239714884       90.4685713243  LPSA2     25             18.0000000000
      1949        61  ARHM      H2             -8.6638080612       -7.5537206494       90.3413143991  LPSA2     25             18.0000000000
      1950        61  ARHM      O2            -10.1136909734       -6.0829896412       90.9328696740  LPSA2     25             18.0000000000
      1951        61  ARHM      C3             -7.7016946199       -5.8538623226       91.4562257518  LPSA2     25             18.0000000000
      1952        61  ARHM      H3             -6.7031509541       -6.1769540837       91.0689171631  LPSA2     25             18.0000000000
      1953        61  ARHM      O3             -7.9377170797       -6.4956830178       92.6920647463  LPSA2     25             18.0000000000
      1954        61  ARHM      C4             -7.7177390745       -4.4291300578       91.5960769721  LPSA2     25             18.0000000000
      1955        61  ARHM      H4             -8.7759119121       -4.0296986467       91.8876801091  LPSA2     25             18.0000000000
      1956        61  ARHM      O4             -6.7441335777       -4.0974692134       92.5862492282  LPSA2     25             18.0000000000
      1957        61  ARHM      HO4            -7.1237358412       -3.3518265676       93.0149361445  LPSA2     25             18.0000000000
      1958        61  ARHM      C6             -7.4085984836       -2.3549732189       90.2083352735  LPSA2     25             18.0000000000
      1959        61  ARHM      H61            -7.3378207421       -1.9122835468       89.1912344565  LPSA2     25             18.0000000000
      1960        61  ARHM      H62            -8.3146591541       -1.8758744553       90.6686969550  LPSA2     25             18.0000000000
      1961        61  ARHM      H63            -6.5153037894       -1.9558959240       90.8233913566  LPSA2     25             18.0000000000
      1962        62  BMANNA    C1            -11.1389329786       -6.8230632859       90.3138108879  LPSA2     26             19.0000000000
      1963        62  BMANNA    H1            -10.7480295902       -7.7705963406       89.8388342826  LPSA2     26             19.0000000000
      1964        62  BMANNA    C5            -12.8224191725       -6.9996982744       88.6312665858  LPSA2     26             19.0000000000
      1965        62  BMANNA    H5            -12.2849068266       -7.8325518177       88.1771240033  LPSA2     26             19.0000000000
      1966        62  BMANNA    O5            -11.8404611933       -6.1475182531       89.2346891933  LPSA2     26             19.0000000000
      1967        62  BMANNA    C2            -12.0862089022       -7.1903994856       91.3475147821  LPSA2     26             19.0000000000
      1968        62  BMANNA    H2            -11.4673738831       -7.7704882486       92.1081287357  LPSA2     26             19.0000000000
      1969        62  BMANNA    N             -12.6525672143       -5.9505681868       91.9238920796  LPSA2     26             19.0000000000
      1970        62  BMANNA    HN            -13.0698080451       -5.3481487273       91.3050515894  LPSA2     26             19.0000000000
      1971        62  BMANNA    C             -12.7099990814       -5.6719664671       93.1798471680  LPSA2     26             19.0000000000
      1972        62  BMANNA    O             -12.0976945788       -6.3781279320       94.0003587425  LPSA2     26             19.0000000000
      1973        62  BMANNA    CT            -13.5449595635       -4.4921446405       93.6758917343  LPSA2     26             19.0000000000
      1974        62  BMANNA    HT1           -13.6622549280       -3.8376288759       92.8666282051  LPSA2     26             19.0000000000
      1975        62  BMANNA    HT2           -13.3379191856       -3.9646400545       94.6620984389  LPSA2     26             19.0000000000
      1976        62  BMANNA    HT3           -14.5439244751       -4.9105240991       93.8484898219  LPSA2     26             19.0000000000
      1977        62  BMANNA    C3            -13.1121658747       -8.1316804254       90.7100883268  LPSA2     26             19.0000000000
      1978        62  BMANNA    H3            -12.5631661122       -9.0326369201       90.3384445889  LPSA2     26             19.0000000000
      1979        62  BMANNA    O3            -13.9953030754       -8.6030172577       91.7636866611  LPSA2     26             19.0000000000
      1980        62  BMANNA    HO3           -13.4451265687       -9.2236359237       92.2265744207  LPSA2     26             19.0000000000
      1981        62  BMANNA    C4            -13.7729111984       -7.4435091516       89.6481622736  LPSA2     26             19.0000000000
      1982        62  BMANNA    H4            -14.3472037277       -6.5058183216       89.9013799111  LPSA2     26             19.0000000000
      1983        62  BMANNA    O4            -14.7629468274       -8.2620967854       89.0416847738  LPSA2     26             19.0000000000
      1984        62  BMANNA    HO4           -15.5644624871       -8.1975293889       89.5591157304  LPSA2     26             19.0000000000
      1985        62  BMANNA    C6            -13.3224459064       -6.2006223010       87.3900617492  LPSA2     26             19.0000000000
      1986        62  BMANNA    H61           -12.5091675781       -5.6205241222       86.9191763972  LPSA2     26             19.0000000000
      1987        62  BMANNA    H62           -13.7365581885       -6.8351028071       86.6504270337  LPSA2     26             19.0000000000
      1988        62  BMANNA    O6            -14.3512486141       -5.2787054747       87.7329108337  LPSA2     26             19.0000000000
      1989        62  BMANNA    HO6           -15.0453545099       -5.7280198679       88.1688153196  LPSA2     26             19.0000000000
      1990        63  BGLCNA    C1             -6.9707356179       -7.0414624602       93.4616184899  LPSA2     27             19.0000000000
      1991        63  BGLCNA    H1             -6.0728783697       -6.4317620528       93.4392217979  LPSA2     27             19.0000000000
      1992        63  BGLCNA    C5             -5.5043960527       -8.8408176721       93.9656603721  LPSA2     27             19.0000000000
      1993        63  BGLCNA    H5             -4.6785805980       -8.0840293814       93.9564344452  LPSA2     27             19.0000000000
      1994        63  BGLCNA    O5             -6.4998981812       -8.3438752956       93.0607755266  LPSA2     27             19.0000000000
      1995        63  BGLCNA    C2             -7.5428024508       -7.0776644313       94.8806799918  LPSA2     27             19.0000000000
      1996        63  BGLCNA    H2             -8.3742544257       -7.8036175150       94.8757458582  LPSA2     27             19.0000000000
      1997        63  BGLCNA    N              -8.0546900913       -5.7712662522       95.2501113516  LPSA2     27             19.0000000000
      1998        63  BGLCNA    HN             -7.4038374683       -4.9591491704       95.0827132934  LPSA2     27             19.0000000000
      1999        63  BGLCNA    C              -9.2556895143       -5.7669754464       95.9523160909  LPSA2     27             19.0000000000
      2000        63  BGLCNA    O              -9.7869743548       -6.7669489731       96.5238801166  LPSA2     27             19.0000000000
      2001        63  BGLCNA    CT             -9.9343836048       -4.3642670175       96.0293745529  LPSA2     27             19.0000000000
      2002        63  BGLCNA    HT1            -9.4030891321       -3.6310171544       95.3635606282  LPSA2     27             19.0000000000
      2003        63  BGLCNA    HT2           -10.0545674348       -3.9773406735       97.0167906789  LPSA2     27             19.0000000000
      2004        63  BGLCNA    HT3           -11.0368688376       -4.5179414377       95.7039804309  LPSA2     27             19.0000000000
      2005        63  BGLCNA    C3             -6.5049118956       -7.5908870719       95.7540348103  LPSA2     27             19.0000000000
      2006        63  BGLCNA    H3             -5.5870429174       -6.9519851783       95.7401190096  LPSA2     27             19.0000000000
      2007        63  BGLCNA    O3             -7.1389760643       -7.5460751417       97.0775356047  LPSA2     27             19.0000000000
      2008        63  BGLCNA    C4             -6.0226086497       -8.9974271987       95.3486864533  LPSA2     27             19.0000000000
      2009        63  BGLCNA    H4             -6.8948996769       -9.6897356422       95.3090014479  LPSA2     27             19.0000000000
      2010        63  BGLCNA    O4             -5.0620037521       -9.4778111013       96.2156872787  LPSA2     27             19.0000000000
      2011        63  BGLCNA    HO4            -4.3128163911       -8.9529630815       96.0162444362  LPSA2     27             19.0000000000
      2012        63  BGLCNA    C6             -4.9253127252      -10.1278346324       93.2852949846  LPSA2     27             19.0000000000
      2013        63  BGLCNA    H61            -4.0233301304      -10.3682246652       93.8557506920  LPSA2     27             19.0000000000
      2014        63  BGLCNA    H62            -5.6075586819      -10.9902767995       93.4725180191  LPSA2     27             19.0000000000
      2015        63  BGLCNA    O6             -4.6653640037       -9.9161379759       91.9076175409  LPSA2     27             19.0000000000
      2016        63  BGLCNA    HO6            -4.3306659590      -10.7577691474       91.5273290588  LPSA2     27             19.0000000000
      2017        64  AGAL      C1             -6.3115961460       -7.6338634605       98.2622020222  LPSA2     28             20.0000000000
      2018        64  AGAL      H1             -5.9139161231       -8.6120090692       98.3007149491  LPSA2     28             20.0000000000
      2019        64  AGAL      C5             -5.5388188513       -5.3376085647       98.1710438288  LPSA2     28             20.0000000000
      2020        64  AGAL      H5             -6.4706867717       -5.1013443605       97.4646141937  LPSA2     28             20.0000000000
      2021        64  AGAL      O5             -5.1801353519       -6.7786796077       98.1147365872  LPSA2     28             20.0000000000
      2022        64  AGAL      C2             -6.9498598602       -7.2916203311       99.6197190629  LPSA2     28             20.0000000000
      2023        64  AGAL      H2             -6.1110583436       -7.4400495736      100.2965066153  LPSA2     28             20.0000000000
      2024        64  AGAL      O2             -7.9817319542       -8.1514861660      100.0788731798  LPSA2     28             20.0000000000
      2025        64  AGAL      C3             -7.3273575951       -5.8485738582       99.7396972452  LPSA2     28             20.0000000000
      2026        64  AGAL      H3             -8.0015120773       -5.5998455898       98.8607737785  LPSA2     28             20.0000000000
      2027        64  AGAL      O3             -8.0521677084       -5.4074169074      100.9043404272  LPSA2     28             20.0000000000
      2028        64  AGAL      HO3            -8.9119712912       -5.0958248446      100.5606486229  LPSA2     28             20.0000000000
      2029        64  AGAL      C4             -6.1282608034       -5.0186117077       99.5102226768  LPSA2     28             20.0000000000
      2030        64  AGAL      H4             -6.4366486614       -4.0008335992       99.4798298294  LPSA2     28             20.0000000000
      2031        64  AGAL      O4             -5.1386383379       -5.1790798212      100.4757933835  LPSA2     28             20.0000000000
      2032        64  AGAL      HO4            -5.2096216038       -4.4414142587      101.0376442747  LPSA2     28             20.0000000000
      2033        64  AGAL      C6             -4.4620307986       -4.3893578869       97.6362902244  LPSA2     28             20.0000000000
      2034        64  AGAL      H61            -4.2976422725       -4.5970548761       96.5809275898  LPSA2     28             20.0000000000
      2035        64  AGAL      H62            -4.6520760037       -3.2613169946       97.7651048223  LPSA2     28             20.0000000000
      2036        64  AGAL      O6             -3.2575683805       -4.5930166676       98.3456070822  LPSA2     28             20.0000000000
      2037        64  AGAL      HO6            -2.7505803831       -5.2984902520       97.9416813930  LPSA2     28             20.0000000000
      2038        65  ARHM      C1             -7.7652444167       -8.4371256877      101.4808913342  LPSA2     29             21.0000000000
      2039        65  ARHM      H1             -7.2150073658       -7.5848775753      101.9964955809  LPSA2     29             21.0000000000
      2040        65  ARHM      C5             -7.6625353104      -10.7592926128      101.1486206043  LPSA2     29             21.0000000000
      2041        65  ARHM      H5             -7.8892543741      -10.5070120732      100.0935446791  LPSA2     29             21.0000000000
      2042        65  ARHM      O5             -7.0476759347       -9.6216093430      101.6833506475  LPSA2     29             21.0000000000
      2043        65  ARHM      C2             -9.0695813094       -8.4884390609      102.1437305515  LPSA2     29             21.0000000000
      2044        65  ARHM      H2             -9.6691822939       -7.6335798742      101.9067628034  LPSA2     29             21.0000000000
      2045        65  ARHM      O2             -8.9488856642       -8.5658635640      103.5748524404  LPSA2     29             21.0000000000
      2046        65  ARHM      C3             -9.7909864449       -9.7015677121      101.6289418068  LPSA2     29             21.0000000000
      2047        65  ARHM      H3            -10.0117196751       -9.5550986777      100.4952263366  LPSA2     29             21.0000000000
      2048        65  ARHM      O3            -11.0711784421       -9.7260286713      102.1995749427  LPSA2     29             21.0000000000
      2049        65  ARHM      HO3           -11.3129301779      -10.5892749891      102.2092645043  LPSA2     29             21.0000000000
      2050        65  ARHM      C4             -9.0575951683      -10.9551005854      101.8247918557  LPSA2     29             21.0000000000
      2051        65  ARHM      H4             -8.9157597526      -11.1933319894      102.9338171738  LPSA2     29             21.0000000000
      2052        65  ARHM      O4             -9.6744352178      -12.1713980312      101.3452167393  LPSA2     29             21.0000000000
      2053        65  ARHM      HO4           -10.0934590646      -12.0875424779      100.4362974805  LPSA2     29             21.0000000000
      2054        65  ARHM      C6             -6.6290612861      -11.8976110572      101.2162231226  LPSA2     29             21.0000000000
      2055        65  ARHM      H61            -5.6886733225      -11.4102874323      100.7685423143  LPSA2     29             21.0000000000
      2056        65  ARHM      H62            -6.4274795679      -12.1374521638      102.3013153741  LPSA2     29             21.0000000000
      2057        65  ARHM      H63            -6.9869839788      -12.7347940763      100.6072571094  LPSA2     29             21.0000000000
      2058        66  ARHM      C1             -9.0539778642       -7.4454226310      104.3945976075  LPSA2     30             22.0000000000
      2059        66  ARHM      H1            -10.0390027515       -6.9633703260      104.2094096401  LPSA2     30             22.0000000000
      2060        66  ARHM      C5             -6.6578987322       -7.0351996687      104.5143062533  LPSA2     30             22.0000000000
      2061        66  ARHM      H5             -6.6533739937       -7.9945354521      103.8668162917  LPSA2     30             22.0000000000
      2062        66  ARHM      O5             -7.9769114702       -6.5035072457      104.2052433351  LPSA2     30             22.0000000000
      2063        66  ARHM      C2             -9.0296616720       -7.8857400813      105.8471183130  LPSA2     30             22.0000000000
      2064        66  ARHM      H2             -9.7817232093       -8.5824886931      106.0289718167  LPSA2     30             22.0000000000
      2065        66  ARHM      O2             -9.1480006503       -6.7147803513      106.5813641610  LPSA2     30             22.0000000000
      2066        66  ARHM      C3             -7.7230910499       -8.4173257836      106.2079894766  LPSA2     30             22.0000000000
      2067        66  ARHM      H3             -7.4704561957       -9.1842296890      105.5270001340  LPSA2     30             22.0000000000
      2068        66  ARHM      O3             -7.6770293512       -9.0078855666      107.5373891676  LPSA2     30             22.0000000000
      2069        66  ARHM      C4             -6.5952696262       -7.4075366486      105.9708288384  LPSA2     30             22.0000000000
      2070        66  ARHM      H4             -6.7210638459       -6.4842251987      106.5400372406  LPSA2     30             22.0000000000
      2071        66  ARHM      O4             -5.3450278599       -7.8245588165      106.2997755749  LPSA2     30             22.0000000000
      2072        66  ARHM      HO4            -4.8556122953       -8.3985697945      105.6964454668  LPSA2     30             22.0000000000
      2073        66  ARHM      C6             -5.5928547304       -6.0587687597      104.0930490251  LPSA2     30             22.0000000000
      2074        66  ARHM      H61            -4.6035710889       -6.5815918064      104.2143179997  LPSA2     30             22.0000000000
      2075        66  ARHM      H62            -5.6539619528       -5.9169092296      103.0019050467  LPSA2     30             22.0000000000
      2076        66  ARHM      H63            -5.6295481411       -5.0689859023      104.6493652223  LPSA2     30             22.0000000000
      2077        67  BMANNA    C1            -10.4580919813       -6.3451562012      106.9502319096  LPSA2     31             23.0000000000
      2078        67  BMANNA    H1            -11.0277003032       -7.2792598605      107.1550799008  LPSA2     31             23.0000000000
      2079        67  BMANNA    C5            -12.5231828004       -5.2945283872      106.2136717625  LPSA2     31             23.0000000000
      2080        67  BMANNA    H5            -12.9716792924       -6.2412070721      106.5467054000  LPSA2     31             23.0000000000
      2081        67  BMANNA    O5            -11.1435426731       -5.6199534501      105.8742289322  LPSA2     31             23.0000000000
      2082        67  BMANNA    C2            -10.4167311046       -5.4732871805      108.0830629221  LPSA2     31             23.0000000000
      2083        67  BMANNA    H2             -9.9990385805       -6.0880672847      108.9031915743  LPSA2     31             23.0000000000
      2084        67  BMANNA    N              -9.5093583447       -4.4090598571      107.8252935315  LPSA2     31             23.0000000000
      2085        67  BMANNA    HN             -9.3502418254       -4.1553741841      106.8111160773  LPSA2     31             23.0000000000
      2086        67  BMANNA    C              -8.8339739957       -3.7743449626      108.7868858964  LPSA2     31             23.0000000000
      2087        67  BMANNA    O              -8.8939792102       -4.1185548733      109.9536662434  LPSA2     31             23.0000000000
      2088        67  BMANNA    CT             -7.9637434024       -2.5959072874      108.3237946568  LPSA2     31             23.0000000000
      2089        67  BMANNA    HT1            -8.4972507413       -2.0694323654      107.5739831696  LPSA2     31             23.0000000000
      2090        67  BMANNA    HT2            -7.0266983903       -3.0087697503      107.9347099034  LPSA2     31             23.0000000000
      2091        67  BMANNA    HT3            -7.6460538533       -1.9758957468      109.1768357935  LPSA2     31             23.0000000000
      2092        67  BMANNA    C3            -11.8097123576       -5.1178315527      108.4884560283  LPSA2     31             23.0000000000
      2093        67  BMANNA    H3            -12.4493576966       -6.0546491958      108.6988550870  LPSA2     31             23.0000000000
      2094        67  BMANNA    O3            -11.8399951023       -4.4318732611      109.7404994872  LPSA2     31             23.0000000000
      2095        67  BMANNA    HO3           -10.9797781953       -4.6948591294      110.0111610137  LPSA2     31             23.0000000000
      2096        67  BMANNA    C4            -12.4815768046       -4.3531935207      107.4199857710  LPSA2     31             23.0000000000
      2097        67  BMANNA    H4            -11.9450396141       -3.3546195067      107.0572414185  LPSA2     31             23.0000000000
      2098        67  BMANNA    O4            -13.7745020910       -3.9559709057      107.8525671122  LPSA2     31             23.0000000000
      2099        67  BMANNA    HO4           -14.3020600745       -4.7122882446      108.1943429300  LPSA2     31             23.0000000000
      2100        67  BMANNA    C6            -13.2997912190       -4.6545385241      105.0512686782  LPSA2     31             23.0000000000
      2101        67  BMANNA    H61           -14.4262067349       -4.6363678752      105.3397811046  LPSA2     31             23.0000000000
      2102        67  BMANNA    H62           -13.0105118623       -3.6233973191      104.8698551944  LPSA2     31             23.0000000000
      2103        67  BMANNA    O6            -13.1336033759       -5.3916317959      103.8241467834  LPSA2     31             23.0000000000
      2104        67  BMANNA    HO6           -13.5975576833       -6.2764969553      103.8134147631  LPSA2     31             23.0000000000
      2105        68  BGLCNA    C1             -7.5222895726       -8.1397471640      108.6103969990  LPSA2     32             23.0000000000
      2106        68  BGLCNA    H1             -8.0599192801       -7.1544179884      108.4325564695  LPSA2     32             23.0000000000
      2107        68  BGLCNA    C5             -5.9997072104       -6.8018969687      109.9277617404  LPSA2     32             23.0000000000
      2108        68  BGLCNA    H5             -6.5928593418       -5.8974195269      109.5374749077  LPSA2     32             23.0000000000
      2109        68  BGLCNA    O5             -6.1694951286       -7.8241383367      108.9423333575  LPSA2     32             23.0000000000
      2110        68  BGLCNA    C2             -8.1467956393       -8.6852058888      109.8194522937  LPSA2     32             23.0000000000
      2111        68  BGLCNA    H2             -7.5111776813       -9.4897863966      110.1044894257  LPSA2     32             23.0000000000
      2112        68  BGLCNA    N              -9.4729552304       -9.1516871025      109.5956973249  LPSA2     32             23.0000000000
      2113        68  BGLCNA    HN             -9.9117361387       -8.5703437811      108.8809076996  LPSA2     32             23.0000000000
      2114        68  BGLCNA    C             -10.0984117298      -10.2455555207      110.0864625708  LPSA2     32             23.0000000000
      2115        68  BGLCNA    O              -9.5802143290      -10.9768881596      110.9304085025  LPSA2     32             23.0000000000
      2116        68  BGLCNA    CT            -11.5323529703      -10.5244138397      109.5841031968  LPSA2     32             23.0000000000
      2117        68  BGLCNA    HT1           -11.5419340416       -9.8468698979      108.6281101354  LPSA2     32             23.0000000000
      2118        68  BGLCNA    HT2           -12.3281627907      -10.1703488417      110.1898124037  LPSA2     32             23.0000000000
      2119        68  BGLCNA    HT3           -11.6943027968      -11.5959667291      109.3122359934  LPSA2     32             23.0000000000
      2120        68  BGLCNA    C3             -8.0967267575       -7.6389505107      110.8930231790  LPSA2     32             23.0000000000
      2121        68  BGLCNA    H3             -8.5148641358       -6.7755002385      110.4606187373  LPSA2     32             23.0000000000
      2122        68  BGLCNA    O3             -8.8648939749       -7.9544465116      112.0657798240  LPSA2     32             23.0000000000
      2123        68  BGLCNA    C4             -6.6456984550       -7.3556274945      111.1707572500  LPSA2     32             23.0000000000
      2124        68  BGLCNA    H4             -6.1847550238       -8.3150500754      111.5318289610  LPSA2     32             23.0000000000
      2125        68  BGLCNA    O4             -6.4894818064       -6.4223019656      112.2070236435  LPSA2     32             23.0000000000
      2126        68  BGLCNA    HO4            -6.4209241331       -6.8462796756      113.0745323218  LPSA2     32             23.0000000000
      2127        68  BGLCNA    C6             -4.5388782143       -6.4140386547      110.0229508171  LPSA2     32             23.0000000000
      2128        68  BGLCNA    H61            -4.3880709572       -5.5087612801      110.7194343748  LPSA2     32             23.0000000000
      2129        68  BGLCNA    H62            -3.9584360714       -7.2577621064      110.5717638480  LPSA2     32             23.0000000000
      2130        68  BGLCNA    O6             -3.9952850418       -6.0490078823      108.7709294272  LPSA2     32             23.0000000000
      2131        68  BGLCNA    HO6            -4.6766363394       -5.5673446313      108.2360311317  LPSA2     32             23.0000000000
      2132        69  AGAL      C1             -9.5290034240       -6.8200381957      112.6842874521  LPSA2     33             24.0000000000
      2133        69  AGAL      H1             -8.8402894015       -5.9760249769      112.5979959475  LPSA2     33             24.0000000000
      2134        69  AGAL      C5            -11.7255843514       -7.5865276581      112.2149219831  LPSA2     33             24.0000000000
      2135        69  AGAL      H5            -11.1693066213       -8.4798398602      111.8792915250  LPSA2     33             24.0000000000
      2136        69  AGAL      O5            -10.8209877880       -6.5109531826      112.0726784748  LPSA2     33             24.0000000000
      2137        69  AGAL      C2             -9.7675647679       -7.1831978558      114.1482787662  LPSA2     33             24.0000000000
      2138        69  AGAL      H2            -10.3868799095       -6.3026307090      114.5751854976  LPSA2     33             24.0000000000
      2139        69  AGAL      O2             -8.5396948443       -7.1142699903      114.8486222260  LPSA2     33             24.0000000000
      2140        69  AGAL      C3            -10.7568040638       -8.3126528817      114.2945545625  LPSA2     33             24.0000000000
      2141        69  AGAL      H3            -10.3837018113       -9.2407639931      113.7405815065  LPSA2     33             24.0000000000
      2142        69  AGAL      O3            -10.8713938432       -8.8000543878      115.5672660328  LPSA2     33             24.0000000000
      2143        69  AGAL      HO3           -11.0512218977       -8.1777787122      116.2400186851  LPSA2     33             24.0000000000
      2144        69  AGAL      C4            -12.0838887197       -7.9468655746      113.6708488317  LPSA2     33             24.0000000000
      2145        69  AGAL      H4            -12.7737945831       -8.7994374161      113.6729875792  LPSA2     33             24.0000000000
      2146        69  AGAL      O4            -12.8310558829       -6.8490035740      114.2435538900  LPSA2     33             24.0000000000
      2147        69  AGAL      HO4           -12.3459003349       -6.3748755234      114.9085525172  LPSA2     33             24.0000000000
      2148        69  AGAL      C6            -12.9187790452       -7.4489589126      111.2992528405  LPSA2     33             24.0000000000
      2149        69  AGAL      H61           -12.4861992259       -7.4642159942      110.2783408757  LPSA2     33             24.0000000000
      2150        69  AGAL      H62           -13.6784986232       -8.2519530794      111.3458027743  LPSA2     33             24.0000000000
      2151        69  AGAL      O6            -13.7021750092       -6.3025926067      111.4129476537  LPSA2     33             24.0000000000
      2152        69  AGAL      HO6           -13.3896199673       -5.5537097473      110.8444757795  LPSA2     33             24.0000000000
      2153        70  ARHM      C1             -8.5712132872       -6.3507880739      116.0109133884  LPSA2     34             25.0000000000
      2154        70  ARHM      H1             -9.4506483189       -6.5737864334      116.6389743656  LPSA2     34             25.0000000000
      2155        70  ARHM      C5             -7.5382559404       -4.3756133127      115.0727799907  LPSA2     34             25.0000000000
      2156        70  ARHM      H5             -7.5874174963       -4.8540664026      114.0209633333  LPSA2     34             25.0000000000
      2157        70  ARHM      O5             -8.6355658517       -4.9148061977      115.8926868953  LPSA2     34             25.0000000000
      2158        70  ARHM      C2             -7.3331793909       -6.7572567978      116.7601555753  LPSA2     34             25.0000000000
      2159        70  ARHM      H2             -7.1673517729       -7.8632559878      116.8710959342  LPSA2     34             25.0000000000
      2160        70  ARHM      O2             -7.2405713000       -6.2215581921      118.1592972339  LPSA2     34             25.0000000000
      2161        70  ARHM      C3             -6.1244485350       -6.2326255796      115.9988665506  LPSA2     34             25.0000000000
      2162        70  ARHM      H3             -6.0969641457       -6.6285991673      114.9724172480  LPSA2     34             25.0000000000
      2163        70  ARHM      O3             -4.8337059057       -6.5239187975      116.5878695042  LPSA2     34             25.0000000000
      2164        70  ARHM      HO3            -4.1541686861       -6.7364930040      115.9559434517  LPSA2     34             25.0000000000
      2165        70  ARHM      C4             -6.1816476689       -4.6935620678      115.7987835878  LPSA2     34             25.0000000000
      2166        70  ARHM      H4             -6.3148500139       -4.1514916780      116.7495315617  LPSA2     34             25.0000000000
      2167        70  ARHM      O4             -5.0806856173       -4.1899310878      115.1362621200  LPSA2     34             25.0000000000
      2168        70  ARHM      HO4            -4.3091115426       -4.1340011047      115.6953140327  LPSA2     34             25.0000000000
      2169        70  ARHM      C6             -7.6922471144       -2.8296129350      114.8413279703  LPSA2     34             25.0000000000
      2170        70  ARHM      H61            -7.6299830999       -2.2178838589      115.7172490283  LPSA2     34             25.0000000000
      2171        70  ARHM      H62            -6.7444580806       -2.4747457245      114.3996926230  LPSA2     34             25.0000000000
      2172        70  ARHM      H63            -8.5009189740       -2.5083808316      114.1590834060  LPSA2     34             25.0000000000
      2173        71  ARHM      C1             -8.2959754999       -6.5677182522      119.0795908573  LPSA2     35             26.0000000000
      2174        71  ARHM      H1             -8.6040213596       -7.6769000329      118.8787348947  LPSA2     35             26.0000000000
      2175        71  ARHM      C5             -9.1776052998       -4.3097881348      119.2408916176  LPSA2     35             26.0000000000
      2176        71  ARHM      H5             -8.3518041349       -3.9076512199      118.5254732223  LPSA2     35             26.0000000000
      2177        71  ARHM      O5             -9.5096421604       -5.7167372494      118.9290334222  LPSA2     35             26.0000000000
      2178        71  ARHM      C2             -7.7854282747       -6.4729095904      120.5365485050  LPSA2     35             26.0000000000
      2179        71  ARHM      H2             -6.9414039189       -7.1986032800      120.7134209997  LPSA2     35             26.0000000000
      2180        71  ARHM      O2             -8.7885815906       -6.8317868566      121.4126203716  LPSA2     35             26.0000000000
      2181        71  ARHM      C3             -7.3737376900       -5.0218308265      120.8720061906  LPSA2     35             26.0000000000
      2182        71  ARHM      H3             -6.5463968509       -4.7591528183      120.1344793452  LPSA2     35             26.0000000000
      2183        71  ARHM      O3             -6.7876388097       -4.9327055671      122.1540075829  LPSA2     35             26.0000000000
      2184        71  ARHM      HO3            -7.2120862701       -5.5733322827      122.7288731339  LPSA2     35             26.0000000000
      2185        71  ARHM      C4             -8.5894502074       -4.1576005861      120.6788917534  LPSA2     35             26.0000000000
      2186        71  ARHM      H4             -9.4611340282       -4.4416529202      121.3307119103  LPSA2     35             26.0000000000
      2187        71  ARHM      O4             -8.1768741284       -2.8042224046      120.9693790153  LPSA2     35             26.0000000000
      2188        71  ARHM      HO4            -7.3171064095       -2.5529141771      120.5581709812  LPSA2     35             26.0000000000
      2189        71  ARHM      C6            -10.3921522494       -3.3932263223      118.8642347863  LPSA2     35             26.0000000000
      2190        71  ARHM      H61           -10.5746567290       -3.3982158952      117.7433556958  LPSA2     35             26.0000000000
      2191        71  ARHM      H62           -11.1980019794       -3.8499542155      119.4176110492  LPSA2     35             26.0000000000
      2192        71  ARHM      H63           -10.0718337151       -2.3302147643      119.0633705917  LPSA2     35             26.0000000000
      2193        72  BMANNA    C1             -9.1322838590       -8.1841960669      121.4471464502  LPSA2     36             27.0000000000
      2194        72  BMANNA    H1             -8.2900362689       -8.8273139976      121.0972061898  LPSA2     36             27.0000000000
      2195        72  BMANNA    C5            -10.4241878999      -10.1002089481      120.7299884793  LPSA2     36             27.0000000000
      2196        72  BMANNA    H5             -9.4750821956      -10.5606864447      120.4610684421  LPSA2     36             27.0000000000
      2197        72  BMANNA    O5            -10.2680578190       -8.6467521403      120.6641532654  LPSA2     36             27.0000000000
      2198        72  BMANNA    C2             -9.4052510083       -8.5726951943      122.8920138725  LPSA2     36             27.0000000000
      2199        72  BMANNA    H2             -8.5023991432       -8.3044284273      123.4719477421  LPSA2     36             27.0000000000
      2200        72  BMANNA    N             -10.5218326260       -7.8028677380      123.4395449790  LPSA2     36             27.0000000000
      2201        72  BMANNA    HN            -11.3387084404       -7.6514159848      122.8746519580  LPSA2     36             27.0000000000
      2202        72  BMANNA    C             -10.6076394306       -7.5513343521      124.7737151700  LPSA2     36             27.0000000000
      2203        72  BMANNA    O              -9.7354152546       -7.7757916958      125.6190347561  LPSA2     36             27.0000000000
      2204        72  BMANNA    CT            -11.8755683414       -6.9925075732      125.3570716528  LPSA2     36             27.0000000000
      2205        72  BMANNA    HT1           -12.7483343702       -7.4492438871      124.8802869227  LPSA2     36             27.0000000000
      2206        72  BMANNA    HT2           -12.0077665767       -5.8890471538      125.1731404614  LPSA2     36             27.0000000000
      2207        72  BMANNA    HT3           -11.9743171409       -7.0561373086      126.4547536948  LPSA2     36             27.0000000000
      2208        72  BMANNA    C3             -9.6205005234      -10.0620163215      122.9763638711  LPSA2     36             27.0000000000
      2209        72  BMANNA    H3             -8.7245991344      -10.5994952712      122.6403873786  LPSA2     36             27.0000000000
      2210        72  BMANNA    O3             -9.8310181583      -10.5078894589      124.3414054450  LPSA2     36             27.0000000000
      2211        72  BMANNA    HO3            -9.1783281385      -11.0892676866      124.7171830083  LPSA2     36             27.0000000000
      2212        72  BMANNA    C4            -10.7435413822      -10.5040231726      122.1146940524  LPSA2     36             27.0000000000
      2213        72  BMANNA    H4            -11.6778981880      -10.0933225463      122.4263894750  LPSA2     36             27.0000000000
      2214        72  BMANNA    O4            -10.9565874275      -11.9104511563      122.2172873890  LPSA2     36             27.0000000000
      2215        72  BMANNA    HO4           -11.0837009329      -11.9443610007      123.1985163392  LPSA2     36             27.0000000000
      2216        72  BMANNA    C6            -11.4377011210      -10.5172984432      119.7412642597  LPSA2     36             27.0000000000
      2217        72  BMANNA    H61           -11.1254052175      -10.2696553267      118.6946701192  LPSA2     36             27.0000000000
      2218        72  BMANNA    H62           -11.3746913252      -11.6092828417      119.7045442506  LPSA2     36             27.0000000000
      2219        72  BMANNA    O6            -12.7901150247      -10.0502293569      120.0914698020  LPSA2     36             27.0000000000
      2220        72  BMANNA    HO6           -13.1676324901      -10.7414333743      120.6476247167  LPSA2     36             27.0000000000
      2221        73  ECLIPA    HB6S            8.2395117081       -4.7426338655       20.4612168218  LPSA3     1               0.0000000000
      2222        73  ECLIPA    OB6             8.9715599456       -3.3438591389       21.7140249152  LPSA3     1               0.0000000000
      2223        73  ECLIPA    CB6             7.9776188235       -3.7482336306       20.7042159014  LPSA3     1               0.0000000000
      2224        73  ECLIPA    HB6R            6.9774116021       -3.5691494730       21.0541931349  LPSA3     1               0.0000000000
      2225        73  ECLIPA    CB5             8.0449460426       -2.8491952531       19.3988764877  LPSA3     1               0.0000000000
      2226        73  ECLIPA    OB5             9.4638875726       -2.9320390913       18.9716901872  LPSA3     1               0.0000000000
      2227        73  ECLIPA    HB5             7.8589960361       -1.8265080344       19.7771798410  LPSA3     1               0.0000000000
      2228        73  ECLIPA    CB1             9.6623241648       -2.1488365080       17.7717324898  LPSA3     1               0.0000000000
      2229        73  ECLIPA    HB1             9.4228341207       -1.0704116607       17.9003641080  LPSA3     1               0.0000000000
      2230        73  ECLIPA    OA6            10.9779843755       -2.2719018190       17.3217246577  LPSA3     1               0.0000000000
      2231        73  ECLIPA    CA6            11.7057521875       -3.4926682733       17.5745106853  LPSA3     1               0.0000000000
      2232        73  ECLIPA    HA6R           10.9717524017       -4.3105882324       17.7226451425  LPSA3     1               0.0000000000
      2233        73  ECLIPA    HA6S           12.4316581959       -3.2908194613       18.4598965841  LPSA3     1               0.0000000000
      2234        73  ECLIPA    CB4             7.0524504586       -3.3264438788       18.3206521937  LPSA3     1               0.0000000000
      2235        73  ECLIPA    HB4             7.2637960256       -4.3708301396       18.0085584641  LPSA3     1               0.0000000000
      2236        73  ECLIPA    OB4             5.7709607469       -3.0001294699       18.9017319965  LPSA3     1               0.0000000000
      2237        73  ECLIPA    PB              4.7673025442       -4.1861466899       19.3234616795  LPSA3     1               0.0000000000
      2238        73  ECLIPA    OPB4            3.9852831641       -3.7001717686       20.5579515876  LPSA3     1               0.0000000000
      2239        73  ECLIPA    OPB3            5.7706013606       -5.3156438895       19.6614545037  LPSA3     1               0.0000000000
      2240        73  ECLIPA    OPB2            3.9330885297       -4.5387199404       18.0829495795  LPSA3     1               0.0000000000
      2241        73  ECLIPA    CB3             7.3221832943       -2.4741889907       17.0955893951  LPSA3     1               0.0000000000
      2242        73  ECLIPA    OB3             6.5682396098       -2.8144297379       15.9186528231  LPSA3     1               0.0000000000
      2243        73  ECLIPA    HB3             7.3012481714       -1.3660932178       17.3284540628  LPSA3     1               0.0000000000
      2244        73  ECLIPA    C71             5.4584362934       -2.1944024228       15.6929469039  LPSA3     1               0.0000000000
      2245        73  ECLIPA    O71             5.0382191322       -1.2369748928       16.3832172580  LPSA3     1               0.0000000000
      2246        73  ECLIPA    C72             4.8842857994       -2.7294026076       14.3548430386  LPSA3     1               0.0000000000
      2247        73  ECLIPA    H72R            5.6312256839       -2.5778572927       13.5774555414  LPSA3     1               0.0000000000
      2248        73  ECLIPA    H72S            3.8556167521       -2.2108520096       14.1464415926  LPSA3     1               0.0000000000
      2249        73  ECLIPA    CB2             8.7935481334       -2.6538862790       16.6720734084  LPSA3     1               0.0000000000
      2250        73  ECLIPA    HB2             8.9479785671       -3.8171208493       16.5298168153  LPSA3     1               0.0000000000
      2251        73  ECLIPA    NB2             9.1416792777       -1.8855802253       15.4577284722  LPSA3     1               0.0000000000
      2252        73  ECLIPA    HNB2            9.4021936408       -0.9311562440       15.5965609326  LPSA3     1               0.0000000000
      2253        73  ECLIPA    CA4            13.2332588471       -2.6232557568       15.7929312798  LPSA3     1               0.0000000000
      2254        73  ECLIPA    HA4            12.4782159228       -1.8535813239       15.4903430209  LPSA3     1               0.0000000000
      2255        73  ECLIPA    OA4            14.0513475394       -2.1113806319       16.8012065728  LPSA3     1               0.0000000000
      2256        73  ECLIPA    HOA4           13.6064936479       -2.0086516823       17.5928838569  LPSA3     1               0.0000000000
      2257        73  ECLIPA    CA5            12.5359354656       -3.7908283985       16.3547806008  LPSA3     1               0.0000000000
      2258        73  ECLIPA    HA5            13.1762071052       -4.7390047935       16.5880746347  LPSA3     1               0.0000000000
      2259        73  ECLIPA    OA5            11.6028336024       -4.2542202377       15.3689671688  LPSA3     1               0.0000000000
      2260        73  ECLIPA    CA1            12.2765126882       -4.6035043827       14.1076640156  LPSA3     1               0.0000000000
      2261        73  ECLIPA    HA1            11.3926256637       -4.6040272516       13.4118188108  LPSA3     1               0.0000000000
      2262        73  ECLIPA    OA1            12.8672276275       -5.8880720959       14.1359876212  LPSA3     1               0.0000000000
      2263        73  ECLIPA    OPA2           12.8334786590       -7.4499933204       15.9734101064  LPSA3     1               0.0000000000
      2264        73  ECLIPA    OPA3           10.6258840351       -6.8849616536       14.8300177673  LPSA3     1               0.0000000000
      2265        73  ECLIPA    OPA4           12.2922022763       -8.2530811565       13.6615320840  LPSA3     1               0.0000000000
      2266        73  ECLIPA    PA             12.0949808699       -7.1495530650       14.6765383084  LPSA3     1               0.0000000000
      2267        73  ECLIPA    CA3            14.0119035605       -2.9309464520       14.5219348229  LPSA3     1               0.0000000000
      2268        73  ECLIPA    HA3            14.8659656728       -3.6855482391       14.7377032538  LPSA3     1               0.0000000000
      2269        73  ECLIPA    OA3            14.7186256194       -1.7343013331       14.2498111976  LPSA3     1               0.0000000000
      2270        73  ECLIPA    C31            14.0554109440       -0.7966174042       13.5006246295  LPSA3     1               0.0000000000
      2271        73  ECLIPA    O31            13.8902720269       -0.8183330219       12.2941239937  LPSA3     1               0.0000000000
      2272        73  ECLIPA    C32            14.0205801576        0.5271366159       14.2780289507  LPSA3     1               0.0000000000
      2273        73  ECLIPA    H32R           14.6099672027        1.2752584537       13.7149713840  LPSA3     1               0.0000000000
      2274        73  ECLIPA    H32S           14.4347281483        0.3843462292       15.2729523512  LPSA3     1               0.0000000000
      2275        73  ECLIPA    CA2            13.0110120739       -3.4320098131       13.4984733916  LPSA3     1               0.0000000000
      2276        73  ECLIPA    HA2            12.2382183428       -2.6654487411       13.3982259915  LPSA3     1               0.0000000000
      2277        73  ECLIPA    NA2            13.6222764605       -3.7991053432       12.2035087571  LPSA3     1               0.0000000000
      2278        73  ECLIPA    HNA2           14.5520200361       -3.5456145737       12.0865030408  LPSA3     1               0.0000000000
      2279        73  ECLIPA    C73             4.5619876763       -4.2011547554       14.3319064372  LPSA3     1               0.0000000000
      2280        73  ECLIPA    H73R            4.0425817730       -4.5343707019       15.2227416964  LPSA3     1               0.0000000000
      2281        73  ECLIPA    O73             5.8308541675       -4.8981514674       14.2644256719  LPSA3     1               0.0000000000
      2282        73  ECLIPA    C81             6.0819608455       -6.0781768492       14.8555734565  LPSA3     1               0.0000000000
      2283        73  ECLIPA    O81             5.2263313096       -6.5490324457       15.6690894779  LPSA3     1               0.0000000000
      2284        73  ECLIPA    C82             7.3985234561       -6.7030198182       14.3536111794  LPSA3     1               0.0000000000
      2285        73  ECLIPA    H82R            7.6107081717       -7.6429206374       14.8531840528  LPSA3     1               0.0000000000
      2286        73  ECLIPA    H82S            8.2657581958       -6.0265353089       14.5323473422  LPSA3     1               0.0000000000
      2287        73  ECLIPA    C83             7.3204325600       -6.9397798140       12.8301722806  LPSA3     1               0.0000000000
      2288        73  ECLIPA    H83R            7.5481467854       -5.9771248706       12.2351841548  LPSA3     1               0.0000000000
      2289        73  ECLIPA    H83S            6.2730161620       -7.1321676635       12.5911296392  LPSA3     1               0.0000000000
      2290        73  ECLIPA    C84             8.3440245853       -7.9672450320       12.3050927261  LPSA3     1               0.0000000000
      2291        73  ECLIPA    H84R            7.9951628781       -8.9710985949       12.5767117503  LPSA3     1               0.0000000000
      2292        73  ECLIPA    H84S            9.2704019775       -7.6536060092       12.7369555497  LPSA3     1               0.0000000000
      2293        73  ECLIPA    C85             8.4975174302       -7.8684141664       10.7695484051  LPSA3     1               0.0000000000
      2294        73  ECLIPA    H85R            8.5405618079       -6.7937197492       10.5503608829  LPSA3     1               0.0000000000
      2295        73  ECLIPA    H85S            7.5717335635       -8.2449797509       10.2367999955  LPSA3     1               0.0000000000
      2296        73  ECLIPA    C86             9.8444025251       -8.4876246444       10.3034592726  LPSA3     1               0.0000000000
      2297        73  ECLIPA    H86R            9.7582811320       -9.5816897163        9.9932223571  LPSA3     1               0.0000000000
      2298        73  ECLIPA    H86S           10.5849933517       -8.4598497806       11.0807540114  LPSA3     1               0.0000000000
      2299        73  ECLIPA    C87            10.5182549459       -7.6537259990        9.1601018854  LPSA3     1               0.0000000000
      2300        73  ECLIPA    H87R           11.4256785601       -8.1313741864        8.8049419625  LPSA3     1               0.0000000000
      2301        73  ECLIPA    H87S           10.8488156909       -6.6496028102        9.5406723883  LPSA3     1               0.0000000000
      2302        73  ECLIPA    C88             9.5595649303       -7.3632915914        8.0318999685  LPSA3     1               0.0000000000
      2303        73  ECLIPA    H88R            8.8149596333       -6.5614379518        8.3479828359  LPSA3     1               0.0000000000
      2304        73  ECLIPA    H88S            8.8366466800       -8.2236779124        7.9254521495  LPSA3     1               0.0000000000
      2305        73  ECLIPA    C89            10.2323805711       -6.8669364177        6.7101000712  LPSA3     1               0.0000000000
      2306        73  ECLIPA    H89R           11.2700766238       -6.5047358233        6.8746682686  LPSA3     1               0.0000000000
      2307        73  ECLIPA    H89S            9.7300758704       -6.0481733232        6.2317001698  LPSA3     1               0.0000000000
      2308        73  ECLIPA    C810           10.2233634550       -8.0321596955        5.7047246593  LPSA3     1               0.0000000000
      2309        73  ECLIPA    H810R           9.3133994104       -8.5798349050        6.0108430704  LPSA3     1               0.0000000000
      2310        73  ECLIPA    H810S          11.0974303923       -8.6360568741        5.8554647029  LPSA3     1               0.0000000000
      2311        73  ECLIPA    C811           10.1669806085       -7.6402588879        4.2179945741  LPSA3     1               0.0000000000
      2312        73  ECLIPA    H811R          10.4701959371       -8.3593179129        3.5081125689  LPSA3     1               0.0000000000
      2313        73  ECLIPA    H811S          10.7783750450       -6.6630113827        4.1819101877  LPSA3     1               0.0000000000
      2314        73  ECLIPA    C812            8.8149408588       -7.0873503503        3.7413673409  LPSA3     1               0.0000000000
      2315        73  ECLIPA    H812R           8.9773849459       -6.6871693735        2.6403157337  LPSA3     1               0.0000000000
      2316        73  ECLIPA    H812S           8.3695710331       -6.3654207349        4.4144737196  LPSA3     1               0.0000000000
      2317        73  ECLIPA    C813            7.6870133143       -8.1337179378        3.6785234959  LPSA3     1               0.0000000000
      2318        73  ECLIPA    H813R           8.0130912323       -8.9037591537        2.9398073555  LPSA3     1               0.0000000000
      2319        73  ECLIPA    H813S           7.4641830423       -8.6940325684        4.6616087352  LPSA3     1               0.0000000000
      2320        73  ECLIPA    C814            6.3814866379       -7.5880410864        3.1377409857  LPSA3     1               0.0000000000
      2321        73  ECLIPA    H814R           6.4552934213       -6.9292996004        2.1719074593  LPSA3     1               0.0000000000
      2322        73  ECLIPA    H814S           5.8927510654       -6.9871485865        3.9166242729  LPSA3     1               0.0000000000
      2323        73  ECLIPA    H814T           5.6764490875       -8.4158556138        2.8964685373  LPSA3     1               0.0000000000
      2324        73  ECLIPA    C74             3.7633872314       -4.7625580051       13.1792855021  LPSA3     1               0.0000000000
      2325        73  ECLIPA    H74R            2.7538720346       -4.4001048147       12.9935747315  LPSA3     1               0.0000000000
      2326        73  ECLIPA    H74S            3.6757893864       -5.9118889267       13.3086690609  LPSA3     1               0.0000000000
      2327        73  ECLIPA    C75             4.5727063089       -4.6513728599       11.8151371119  LPSA3     1               0.0000000000
      2328        73  ECLIPA    H75R            4.3136481239       -5.5944220855       11.2107603889  LPSA3     1               0.0000000000
      2329        73  ECLIPA    H75S            5.6626148591       -4.6630233769       12.0082837783  LPSA3     1               0.0000000000
      2330        73  ECLIPA    C76             4.2443040853       -3.4211394401       10.9251453624  LPSA3     1               0.0000000000
      2331        73  ECLIPA    H76R            4.7713030769       -2.5254765877       11.3555905686  LPSA3     1               0.0000000000
      2332        73  ECLIPA    H76S            3.1165152603       -3.1197786605       10.9731137071  LPSA3     1               0.0000000000
      2333        73  ECLIPA    C77             4.5989361183       -3.5066654363        9.4191603634  LPSA3     1               0.0000000000
      2334        73  ECLIPA    H77R            4.0396374792       -4.3274033128        9.0408775908  LPSA3     1               0.0000000000
      2335        73  ECLIPA    H77S            5.6474916247       -3.8595997125        9.2852383479  LPSA3     1               0.0000000000
      2336        73  ECLIPA    C78             4.4276590642       -2.1009608867        8.8297405752  LPSA3     1               0.0000000000
      2337        73  ECLIPA    H78R            3.4572350727       -1.7286730565        9.1562620580  LPSA3     1               0.0000000000
      2338        73  ECLIPA    H78S            5.2429988491       -1.4979123961        9.3169442960  LPSA3     1               0.0000000000
      2339        73  ECLIPA    C79             4.8049116745       -2.0157475356        7.2570767761  LPSA3     1               0.0000000000
      2340        73  ECLIPA    H79R            5.8734866264       -1.6472428009        7.1763205913  LPSA3     1               0.0000000000
      2341        73  ECLIPA    H79S            4.1555684739       -1.2701062288        6.7882549413  LPSA3     1               0.0000000000
      2342        73  ECLIPA    C710            4.4715576526       -3.2257332197        6.3785096220  LPSA3     1               0.0000000000
      2343        73  ECLIPA    H710R           5.0238182140       -4.0741669454        6.8460783027  LPSA3     1               0.0000000000
      2344        73  ECLIPA    H710S           3.4698343259       -3.4112267066        6.4843026416  LPSA3     1               0.0000000000
      2345        73  ECLIPA    C711            4.9207204326       -3.0897225986        4.9384125046  LPSA3     1               0.0000000000
      2346        73  ECLIPA    H711R           4.3475890235       -2.2377778107        4.5670708729  LPSA3     1               0.0000000000
      2347        73  ECLIPA    H711S           6.0284989771       -2.9269576135        4.9306188492  LPSA3     1               0.0000000000
      2348        73  ECLIPA    C712            4.6063194028       -4.3869070516        4.2148670498  LPSA3     1               0.0000000000
      2349        73  ECLIPA    H712R           3.5253465268       -4.5358052029        4.3130666899  LPSA3     1               0.0000000000
      2350        73  ECLIPA    H712S           5.0601251282       -5.1642316467        4.8522839389  LPSA3     1               0.0000000000
      2351        73  ECLIPA    C713            5.1917129879       -4.3965126700        2.7357390519  LPSA3     1               0.0000000000
      2352        73  ECLIPA    H713R           6.3048316250       -4.3118306875        2.8800411466  LPSA3     1               0.0000000000
      2353        73  ECLIPA    H713S           4.8766742296       -5.4047490416        2.2750064041  LPSA3     1               0.0000000000
      2354        73  ECLIPA    C714            4.5230165168       -3.2987157963        1.8879763961  LPSA3     1               0.0000000000
      2355        73  ECLIPA    H714R           3.4475803027       -3.4881163296        1.7626189762  LPSA3     1               0.0000000000
      2356        73  ECLIPA    H714S           4.8108991819       -2.2899017792        2.2081901572  LPSA3     1               0.0000000000
      2357        73  ECLIPA    H714T           4.9592561654       -3.4865586769        0.9249202435  LPSA3     1               0.0000000000
      2358        73  ECLIPA    C51             8.8849984906       -2.3857051306       14.2380633031  LPSA3     1               0.0000000000
      2359        73  ECLIPA    O51             8.7213317030       -3.6198626557       14.1304636378  LPSA3     1               0.0000000000
      2360        73  ECLIPA    C52             8.7131231321       -1.4124071417       13.0157035712  LPSA3     1               0.0000000000
      2361        73  ECLIPA    H52R            7.7143425465       -1.0181293621       12.8950255930  LPSA3     1               0.0000000000
      2362        73  ECLIPA    H52S            9.4061054831       -0.6276609028       13.2222025935  LPSA3     1               0.0000000000
      2363        73  ECLIPA    C53             9.2847175936       -2.1622026368       11.7526064304  LPSA3     1               0.0000000000
      2364        73  ECLIPA    H53R           10.0259117777       -2.9122694334       12.0082431084  LPSA3     1               0.0000000000
      2365        73  ECLIPA    O53             9.6977224152       -1.1295375617       10.8431816314  LPSA3     1               0.0000000000
      2366        73  ECLIPA    C61            10.9758272794       -1.0603016909       10.5090573566  LPSA3     1               0.0000000000
      2367        73  ECLIPA    O61            11.8372756547       -1.8013296154       10.8659713306  LPSA3     1               0.0000000000
      2368        73  ECLIPA    C62            11.1868236806        0.1394657211        9.5765835255  LPSA3     1               0.0000000000
      2369        73  ECLIPA    H62R           11.2229369967        1.0471684255       10.2152837125  LPSA3     1               0.0000000000
      2370        73  ECLIPA    H62S           10.2212104416        0.2874306977        9.0470049452  LPSA3     1               0.0000000000
      2371        73  ECLIPA    C63            12.4387061304       -0.0415738914        8.6803029234  LPSA3     1               0.0000000000
      2372        73  ECLIPA    H63R           12.3997876116       -1.0675100536        8.2798705976  LPSA3     1               0.0000000000
      2373        73  ECLIPA    H63S           13.4184288137        0.0486474564        9.3252199642  LPSA3     1               0.0000000000
      2374        73  ECLIPA    C64            12.6094163761        0.8706772541        7.5279067597  LPSA3     1               0.0000000000
      2375        73  ECLIPA    H64R           13.5967176419        0.7178374746        6.9620099216  LPSA3     1               0.0000000000
      2376        73  ECLIPA    H64S           12.5633426186        1.9345438912        7.9657393466  LPSA3     1               0.0000000000
      2377        73  ECLIPA    C65            11.3992063108        0.7142911068        6.5414948800  LPSA3     1               0.0000000000
      2378        73  ECLIPA    H65R           10.5697093301        0.9857636745        7.2423230371  LPSA3     1               0.0000000000
      2379        73  ECLIPA    H65S           11.3478110171       -0.3373420330        6.1828980290  LPSA3     1               0.0000000000
      2380        73  ECLIPA    C66            11.4041789855        1.6130617930        5.2222643966  LPSA3     1               0.0000000000
      2381        73  ECLIPA    H66R           11.4063056509        2.6536744164        5.5395647249  LPSA3     1               0.0000000000
      2382        73  ECLIPA    H66S           10.3914786313        1.3249925196        4.8113963288  LPSA3     1               0.0000000000
      2383        73  ECLIPA    C67            12.4523416382        1.3546290422        4.1696839457  LPSA3     1               0.0000000000
      2384        73  ECLIPA    H67R           13.4646257904        1.3280282347        4.5058181646  LPSA3     1               0.0000000000
      2385        73  ECLIPA    H67S           12.3670535500        2.1213322151        3.3478820057  LPSA3     1               0.0000000000
      2386        73  ECLIPA    C68            12.3435318719        0.0059641751        3.5077075145  LPSA3     1               0.0000000000
      2387        73  ECLIPA    H68R           11.3833447452       -0.2720432095        3.0112508411  LPSA3     1               0.0000000000
      2388        73  ECLIPA    H68S           12.6155023058       -0.6576382699        4.3087918325  LPSA3     1               0.0000000000
      2389        73  ECLIPA    C69            13.2729433943       -0.0511551456        2.2963532923  LPSA3     1               0.0000000000
      2390        73  ECLIPA    H69R           14.1593778171        0.6117713953        2.3203210098  LPSA3     1               0.0000000000
      2391        73  ECLIPA    H69S           12.7123042646        0.3799325143        1.4693744207  LPSA3     1               0.0000000000
      2392        73  ECLIPA    C610           13.7188309891       -1.4220993197        1.9396251084  LPSA3     1               0.0000000000
      2393        73  ECLIPA    H610R          12.8685049294       -2.1485593787        2.0603347121  LPSA3     1               0.0000000000
      2394        73  ECLIPA    H610S          14.4933671744       -1.7813072403        2.6933643884  LPSA3     1               0.0000000000
      2395        73  ECLIPA    C611           14.4050910678       -1.5093062222        0.5312153135  LPSA3     1               0.0000000000
      2396        73  ECLIPA    H611R          15.2705455315       -0.8195727677        0.5735373188  LPSA3     1               0.0000000000
      2397        73  ECLIPA    H611S          14.9428703921       -2.4299096122        0.3609598123  LPSA3     1               0.0000000000
      2398        73  ECLIPA    C612           13.3974163928       -1.2622349130       -0.5788949292  LPSA3     1               0.0000000000
      2399        73  ECLIPA    H612R          12.6821496785       -2.1317849405       -0.6060949542  LPSA3     1               0.0000000000
      2400        73  ECLIPA    H612S          12.7730012709       -0.4002370197       -0.3132441764  LPSA3     1               0.0000000000
      2401        73  ECLIPA    H612T          13.8762553710       -1.1660492447       -1.5574606966  LPSA3     1               0.0000000000
      2402        73  ECLIPA    C54             8.0509805957       -2.8818181747       11.1776054589  LPSA3     1               0.0000000000
      2403        73  ECLIPA    H54R            7.2878058613       -2.0997443212       10.8869876633  LPSA3     1               0.0000000000
      2404        73  ECLIPA    H54S            7.5571782444       -3.4838220843       11.9574517429  LPSA3     1               0.0000000000
      2405        73  ECLIPA    C55             8.2285349225       -3.8222626599        9.9916770240  LPSA3     1               0.0000000000
      2406        73  ECLIPA    H55R            7.3582438270       -4.4857323104        9.7856946516  LPSA3     1               0.0000000000
      2407        73  ECLIPA    H55S            9.1105896284       -4.5123873298       10.2436295858  LPSA3     1               0.0000000000
      2408        73  ECLIPA    C56             8.3537049599       -2.9778668147        8.7515486822  LPSA3     1               0.0000000000
      2409        73  ECLIPA    H56R            9.2526092723       -2.2937064707        8.8382497819  LPSA3     1               0.0000000000
      2410        73  ECLIPA    H56S            7.5356714436       -2.3841025872        8.4741334449  LPSA3     1               0.0000000000
      2411        73  ECLIPA    C57             8.8117038132       -3.7200468738        7.4395707935  LPSA3     1               0.0000000000
      2412        73  ECLIPA    H57R            8.1705875019       -4.5652091402        7.1827428724  LPSA3     1               0.0000000000
      2413        73  ECLIPA    H57S            9.8255508970       -4.1663603602        7.5196553379  LPSA3     1               0.0000000000
      2414        73  ECLIPA    C58             8.9270272581       -2.6992288673        6.2350750625  LPSA3     1               0.0000000000
      2415        73  ECLIPA    H58R            8.0446604511       -2.0015152053        6.2095761879  LPSA3     1               0.0000000000
      2416        73  ECLIPA    H58S            9.7330960749       -1.9697071467        6.5224540661  LPSA3     1               0.0000000000
      2417        73  ECLIPA    C59             9.0358497326       -3.4286794596        4.8667186835  LPSA3     1               0.0000000000
      2418        73  ECLIPA    H59R            8.1741774195       -4.0881672387        4.6589989540  LPSA3     1               0.0000000000
      2419        73  ECLIPA    H59S            9.9580977472       -4.0031845655        5.0825555512  LPSA3     1               0.0000000000
      2420        73  ECLIPA    C510            9.0050051055       -2.4541020328        3.6752379292  LPSA3     1               0.0000000000
      2421        73  ECLIPA    H510R           9.6579373558       -1.5224584617        3.7937959224  LPSA3     1               0.0000000000
      2422        73  ECLIPA    H510S           7.9129420527       -2.0561895034        3.4613250382  LPSA3     1               0.0000000000
      2423        73  ECLIPA    C511            9.3828350484       -3.0448255711        2.3004848829  LPSA3     1               0.0000000000
      2424        73  ECLIPA    H511R          10.4889253528       -3.0735054356        2.2679211996  LPSA3     1               0.0000000000
      2425        73  ECLIPA    H511S           9.0564135996       -4.1200467743        2.1940961976  LPSA3     1               0.0000000000
      2426        73  ECLIPA    C512            8.9375076808       -2.2487419372        1.0189424135  LPSA3     1               0.0000000000
      2427        73  ECLIPA    H512R           9.0700087982       -2.8849277589        0.0815295424  LPSA3     1               0.0000000000
      2428        73  ECLIPA    H512S           7.8818454591       -1.9654287557        1.1129704346  LPSA3     1               0.0000000000
      2429        73  ECLIPA    C513            9.8594812201       -1.0005436337        0.6457389972  LPSA3     1               0.0000000000
      2430        73  ECLIPA    H513R          10.9393886119       -1.3153892113        0.5010832175  LPSA3     1               0.0000000000
      2431        73  ECLIPA    H513S           9.8674232472       -0.3171238237        1.4088770719  LPSA3     1               0.0000000000
      2432        73  ECLIPA    C514            9.4230299272       -0.3875508541       -0.6567184026  LPSA3     1               0.0000000000
      2433        73  ECLIPA    H514R           8.3645559393       -0.1298473847       -0.6273993866  LPSA3     1               0.0000000000
      2434        73  ECLIPA    H514S           9.9582326702        0.5634939122       -0.7024724270  LPSA3     1               0.0000000000
      2435        73  ECLIPA    H514T           9.6343896776       -1.0905368219       -1.5427815912  LPSA3     1               0.0000000000
      2436        73  ECLIPA    C33            12.5971809537        1.2172828066       14.4880792826  LPSA3     1               0.0000000000
      2437        73  ECLIPA    H33R           12.7907177931        2.2694583802       14.8828993596  LPSA3     1               0.0000000000
      2438        73  ECLIPA    O33            11.8436355577        0.5299560816       15.4699768821  LPSA3     1               0.0000000000
      2439        73  ECLIPA    HO33           12.2113102486        0.7137576490       16.2926205744  LPSA3     1               0.0000000000
      2440        73  ECLIPA    C34            11.7086334757        1.3709751143       13.2255459338  LPSA3     1               0.0000000000
      2441        73  ECLIPA    H34R           11.5126963072        0.3924662807       12.8010908313  LPSA3     1               0.0000000000
      2442        73  ECLIPA    H34S           12.2969725111        1.8961937188       12.3772221142  LPSA3     1               0.0000000000
      2443        73  ECLIPA    C35            10.3569069091        2.0802985245       13.4256256262  LPSA3     1               0.0000000000
      2444        73  ECLIPA    H35R           10.5571358555        3.1144794555       13.6963698038  LPSA3     1               0.0000000000
      2445        73  ECLIPA    H35S            9.8330127036        1.6082665498       14.2668166019  LPSA3     1               0.0000000000
      2446        73  ECLIPA    C36             9.4493321864        2.2215454395       12.1865608177  LPSA3     1               0.0000000000
      2447        73  ECLIPA    H36R            9.7383790446        1.2465106706       11.7430812241  LPSA3     1               0.0000000000
      2448        73  ECLIPA    H36S            9.7054259145        3.0722347098       11.4785220412  LPSA3     1               0.0000000000
      2449        73  ECLIPA    C37             7.9767503101        2.0872374034       12.5255831563  LPSA3     1               0.0000000000
      2450        73  ECLIPA    H37R            7.6262917617        3.2060975966       12.6765215637  LPSA3     1               0.0000000000
      2451        73  ECLIPA    H37S            7.8119646685        1.6170541755       13.5128993321  LPSA3     1               0.0000000000
      2452        73  ECLIPA    C38             7.0712246729        1.4558251813       11.4317274953  LPSA3     1               0.0000000000
      2453        73  ECLIPA    H38R            7.1200120457        0.3544864518       11.4067421357  LPSA3     1               0.0000000000
      2454        73  ECLIPA    H38S            6.0242366344        1.6560641069       11.7230999881  LPSA3     1               0.0000000000
      2455        73  ECLIPA    C39             7.4469887144        1.9537294806       10.0213367345  LPSA3     1               0.0000000000
      2456        73  ECLIPA    H39R            8.5349114793        1.7730993628        9.8128797222  LPSA3     1               0.0000000000
      2457        73  ECLIPA    H39S            7.1283058741        3.0286088990        9.9697980947  LPSA3     1               0.0000000000
      2458        73  ECLIPA    C310            6.6558058897        1.3527252104        8.8401719124  LPSA3     1               0.0000000000
      2459        73  ECLIPA    H310R           5.5798029972        1.7032756663        9.0626900142  LPSA3     1               0.0000000000
      2460        73  ECLIPA    H310S           6.6915275637        0.2254802499        8.8945759064  LPSA3     1               0.0000000000
      2461        73  ECLIPA    C311            7.3276063527        1.5945281580        7.5676235846  LPSA3     1               0.0000000000
      2462        73  ECLIPA    H311R           7.7753104303        2.6206708933        7.5507520616  LPSA3     1               0.0000000000
      2463        73  ECLIPA    H311S           8.1572108743        0.8753161024        7.2851462164  LPSA3     1               0.0000000000
      2464        73  ECLIPA    C312            6.4217319106        1.4246503037        6.3280121142  LPSA3     1               0.0000000000
      2465        73  ECLIPA    H312R           5.6839394898        0.5979981803        6.4861373960  LPSA3     1               0.0000000000
      2466        73  ECLIPA    H312S           5.8669825290        2.3853653565        6.1820758986  LPSA3     1               0.0000000000
      2467        73  ECLIPA    C313            7.1838659261        1.1569728145        4.9895779706  LPSA3     1               0.0000000000
      2468        73  ECLIPA    H313R           7.6249822536        2.0826888148        4.7825120466  LPSA3     1               0.0000000000
      2469        73  ECLIPA    H313S           8.0002831973        0.4000526136        5.1572698764  LPSA3     1               0.0000000000
      2470        73  ECLIPA    C314            6.3715979471        0.7297130915        3.8116661598  LPSA3     1               0.0000000000
      2471        73  ECLIPA    H314R           5.5835308303        1.5045332031        3.6067793993  LPSA3     1               0.0000000000
      2472        73  ECLIPA    H314S           6.9245893237        0.5555449277        2.8849361441  LPSA3     1               0.0000000000
      2473        73  ECLIPA    H314T           5.7948151365       -0.2330050757        4.0446347774  LPSA3     1               0.0000000000
      2474        73  ECLIPA    C11            13.0953721567       -4.5763238631       11.2900808200  LPSA3     1               0.0000000000
      2475        73  ECLIPA    O11            11.9283329947       -4.9164241743       11.1394597694  LPSA3     1               0.0000000000
      2476        73  ECLIPA    C12            14.1172429848       -5.1864075890       10.2853014675  LPSA3     1               0.0000000000
      2477        73  ECLIPA    H12R           14.2810150261       -6.2760417367       10.4852637814  LPSA3     1               0.0000000000
      2478        73  ECLIPA    H12S           15.0566374658       -4.6199407405       10.5222272274  LPSA3     1               0.0000000000
      2479        73  ECLIPA    C13            13.7809887046       -5.0058512883        8.8110583416  LPSA3     1               0.0000000000
      2480        73  ECLIPA    H13R           12.6677845899       -5.2123820178        8.5839874118  LPSA3     1               0.0000000000
      2481        73  ECLIPA    O13            14.5527725058       -6.0299202352        8.1311342176  LPSA3     1               0.0000000000
      2482        73  ECLIPA    HO13           14.1535827627       -6.2374320742        7.3064966676  LPSA3     1               0.0000000000
      2483        73  ECLIPA    C14            14.0972219198       -3.5712062997        8.4581579993  LPSA3     1               0.0000000000
      2484        73  ECLIPA    H14R           15.0562254258       -3.1942990923        8.9706443184  LPSA3     1               0.0000000000
      2485        73  ECLIPA    H14S           13.2070222287       -2.9640031303        8.7243868424  LPSA3     1               0.0000000000
      2486        73  ECLIPA    C15            14.3162983446       -3.3301515184        6.9526486677  LPSA3     1               0.0000000000
      2487        73  ECLIPA    H15R           15.0375433117       -4.0216932919        6.5500123177  LPSA3     1               0.0000000000
      2488        73  ECLIPA    H15S           14.6523262727       -2.2946418963        6.8782608049  LPSA3     1               0.0000000000
      2489        73  ECLIPA    C16            13.0017676527       -3.5481581290        6.1622847334  LPSA3     1               0.0000000000
      2490        73  ECLIPA    H16R           12.2937178702       -2.6477935980        6.2733383262  LPSA3     1               0.0000000000
      2491        73  ECLIPA    H16S           12.4034661973       -4.2902854346        6.7182496574  LPSA3     1               0.0000000000
      2492        73  ECLIPA    C17            13.2312462385       -3.8350704680        4.6801229578  LPSA3     1               0.0000000000
      2493        73  ECLIPA    H17R           14.0154831057       -3.0583232398        4.4246758429  LPSA3     1               0.0000000000
      2494        73  ECLIPA    H17S           12.3885693810       -3.6544944757        4.0046542873  LPSA3     1               0.0000000000
      2495        73  ECLIPA    C18            13.7375391592       -5.2329841776        4.4504458171  LPSA3     1               0.0000000000
      2496        73  ECLIPA    H18R           14.5814995674       -5.2681330954        5.0865821920  LPSA3     1               0.0000000000
      2497        73  ECLIPA    H18S           12.9304050752       -5.9503153911        4.7749867078  LPSA3     1               0.0000000000
      2498        73  ECLIPA    C19            14.1065203905       -5.4846935219        3.0097966450  LPSA3     1               0.0000000000
      2499        73  ECLIPA    H19R           14.5778303015       -6.4536951808        2.9245509529  LPSA3     1               0.0000000000
      2500        73  ECLIPA    H19S           14.8097880325       -4.6749713953        2.6238151240  LPSA3     1               0.0000000000
      2501        73  ECLIPA    C110           12.8520556842       -5.5515808138        2.1045801788  LPSA3     1               0.0000000000
      2502        73  ECLIPA    H110R          12.0610019238       -6.2234566974        2.4416701971  LPSA3     1               0.0000000000
      2503        73  ECLIPA    H110S          12.5273936791       -4.4891279769        2.1583327743  LPSA3     1               0.0000000000
      2504        73  ECLIPA    C111           13.2783823823       -5.8795665270        0.7563571155  LPSA3     1               0.0000000000
      2505        73  ECLIPA    H111R          14.2003619215       -5.3406623237        0.3999767799  LPSA3     1               0.0000000000
      2506        73  ECLIPA    H111S          13.5797532537       -6.8939364976        0.7977177860  LPSA3     1               0.0000000000
      2507        73  ECLIPA    C112           12.1617108411       -5.7708157775       -0.2937360943  LPSA3     1               0.0000000000
      2508        73  ECLIPA    H112R          11.4083338085       -6.4407353050        0.1973446929  LPSA3     1               0.0000000000
      2509        73  ECLIPA    H112S          11.6402201643       -4.8133476229       -0.2177998937  LPSA3     1               0.0000000000
      2510        73  ECLIPA    C113           12.6456401321       -5.9039726258       -1.7468031795  LPSA3     1               0.0000000000
      2511        73  ECLIPA    H113R          13.2838787412       -5.0205950279       -1.9802017524  LPSA3     1               0.0000000000
      2512        73  ECLIPA    H113S          13.3311962921       -6.7507107323       -1.8531093719  LPSA3     1               0.0000000000
      2513        73  ECLIPA    C114           11.6353869685       -6.1685008963       -2.8344928043  LPSA3     1               0.0000000000
      2514        73  ECLIPA    H114R          10.9111822914       -6.9768962267       -2.7829422503  LPSA3     1               0.0000000000
      2515        73  ECLIPA    H114S          11.0094463694       -5.2465102320       -2.9951089580  LPSA3     1               0.0000000000
      2516        73  ECLIPA    H114T          12.1649608892       -6.5237910401       -3.7399523103  LPSA3     1               0.0000000000
      2517        74  AKDO      C1              7.8890610392       -1.3993689563       22.4410509549  LPSA3     2               0.0000000000
      2518        74  AKDO      O11             6.6149304977       -1.3027884812       22.4913720772  LPSA3     2               0.0000000000
      2519        74  AKDO      O12             8.7576961641       -0.5564076160       22.0800765534  LPSA3     2               0.0000000000
      2520        74  AKDO      C2              8.4517278178       -2.7511942950       22.8913181237  LPSA3     2               0.0000000000
      2521        74  AKDO      C6              7.7927764454       -4.8335032363       23.8039205188  LPSA3     2               0.0000000000
      2522        74  AKDO      H6              8.1593379011       -5.3383819853       22.9487387861  LPSA3     2               0.0000000000
      2523        74  AKDO      O6              7.3843493409       -3.4573683932       23.4267274814  LPSA3     2               0.0000000000
      2524        74  AKDO      C3              9.4687885867       -2.6342066799       23.9587385105  LPSA3     2               0.0000000000
      2525        74  AKDO      H31             9.1798798245       -2.0596484747       24.7868435866  LPSA3     2               0.0000000000
      2526        74  AKDO      H32            10.4246096117       -2.1702134975       23.4151264596  LPSA3     2               0.0000000000
      2527        74  AKDO      C4              9.9373260112       -4.0229497385       24.3842593775  LPSA3     2               0.0000000000
      2528        74  AKDO      H4             10.2761378283       -4.6209703351       23.5563617270  LPSA3     2               0.0000000000
      2529        74  AKDO      O4             10.9846470802       -3.8958742926       25.3355834555  LPSA3     2               0.0000000000
      2530        74  AKDO      C5              8.8604263790       -4.8483123328       24.9292437177  LPSA3     2               0.0000000000
      2531        74  AKDO      H5              9.1858587310       -5.9188979791       25.0107888161  LPSA3     2               0.0000000000
      2532        74  AKDO      O5              8.4110584409       -4.2292050568       26.2083878813  LPSA3     2               0.0000000000
      2533        74  AKDO      C7              6.5457686937       -5.7509027155       24.1981149098  LPSA3     2               0.0000000000
      2534        74  AKDO      H7              6.0919282159       -5.3317718263       25.0939202098  LPSA3     2               0.0000000000
      2535        74  AKDO      O7              6.9266334156       -7.1440378406       24.3482682347  LPSA3     2               0.0000000000
      2536        74  AKDO      HO7             7.0256671145       -7.4690753579       23.4945166536  LPSA3     2               0.0000000000
      2537        74  AKDO      C8              5.5555455141       -5.6696213972       22.9864433882  LPSA3     2               0.0000000000
      2538        74  AKDO      H81             5.2977002725       -4.5857958743       22.9153150275  LPSA3     2               0.0000000000
      2539        74  AKDO      H82             6.1204952763       -6.0910385660       22.0745354517  LPSA3     2               0.0000000000
      2540        74  AKDO      O8              4.3379863743       -6.4434318626       23.3537996748  LPSA3     2               0.0000000000
      2541        74  AKDO      HO8             3.5591159144       -6.0096288360       22.9179804014  LPSA3     2               0.0000000000
      2542        75  AKDO      C1             12.6624908818       -4.5727506357       23.8027969005  LPSA3     3               1.0000000000
      2543        75  AKDO      O11            12.6860348882       -4.0516995596       22.6471489042  LPSA3     3               1.0000000000
      2544        75  AKDO      O12            12.9042931586       -5.7749019643       24.0656860145  LPSA3     3               1.0000000000
      2545        75  AKDO      C2             12.3479804827       -3.7099326062       25.0166033796  LPSA3     3               1.0000000000
      2546        75  AKDO      C6             12.2001789853       -1.4314074119       25.7688829792  LPSA3     3               1.0000000000
      2547        75  AKDO      H6             11.0867519761       -1.5383698232       25.9810553331  LPSA3     3               1.0000000000
      2548        75  AKDO      O6             12.5715282178       -2.2898275994       24.7076657818  LPSA3     3               1.0000000000
      2549        75  AKDO      C3             13.1173694392       -4.0585130329       26.3187707743  LPSA3     3               1.0000000000
      2550        75  AKDO      H31            14.2630995419       -3.9136851133       26.1504935106  LPSA3     3               1.0000000000
      2551        75  AKDO      H32            12.9675794715       -5.1119144501       26.5929217108  LPSA3     3               1.0000000000
      2552        75  AKDO      C4             12.6512513273       -3.1214914936       27.4036122013  LPSA3     3               1.0000000000
      2553        75  AKDO      H4             11.5572772570       -3.1486655425       27.4051754129  LPSA3     3               1.0000000000
      2554        75  AKDO      O4             13.0885976742       -3.4141857896       28.7388570077  LPSA3     3               1.0000000000
      2555        75  AKDO      HO4            12.3934860964       -3.5470941719       29.3717785514  LPSA3     3               1.0000000000
      2556        75  AKDO      C5             12.9336642688       -1.7853658797       27.0369167275  LPSA3     3               1.0000000000
      2557        75  AKDO      H5             12.6588732654       -1.0985430602       27.9236884022  LPSA3     3               1.0000000000
      2558        75  AKDO      O5             14.3491537308       -1.5985659635       26.8495261943  LPSA3     3               1.0000000000
      2559        75  AKDO      HO5            14.6626860129       -2.1807311983       26.1887877298  LPSA3     3               1.0000000000
      2560        75  AKDO      C7             12.4870285627       -0.0186124748       25.3258859863  LPSA3     3               1.0000000000
      2561        75  AKDO      H7             13.5883018529        0.1384869605       25.1324849511  LPSA3     3               1.0000000000
      2562        75  AKDO      O7             12.0328899478        0.8903124015       26.3661029982  LPSA3     3               1.0000000000
      2563        75  AKDO      HO7            12.3684029958        1.7894150369       26.1647669547  LPSA3     3               1.0000000000
      2564        75  AKDO      C8             11.6382044629        0.2511505161       24.1539635864  LPSA3     3               1.0000000000
      2565        75  AKDO      H81            11.8723089257       -0.4497942764       23.3419478721  LPSA3     3               1.0000000000
      2566        75  AKDO      H82            10.5463088278        0.2132997760       24.2853144505  LPSA3     3               1.0000000000
      2567        75  AKDO      O8             11.9080348942        1.5415730550       23.6541307456  LPSA3     3               1.0000000000
      2568        75  AKDO      HO8            12.7657421052        1.3163823825       23.2473452835  LPSA3     3               1.0000000000
      2569        76  AHEP      C1              8.0044281921       -5.0655357481       27.2793229502  LPSA3     4               2.0000000000
      2570        76  AHEP      H1              6.9635564175       -5.2414567681       26.8517192453  LPSA3     4               2.0000000000
      2571        76  AHEP      C5              9.9140912864       -6.3612851102       28.0185271385  LPSA3     4               2.0000000000
      2572        76  AHEP      H5             10.5003757093       -5.4722364969       27.5619054335  LPSA3     4               2.0000000000
      2573        76  AHEP      O5              8.6332230372       -6.3442740853       27.3942805697  LPSA3     4               2.0000000000
      2574        76  AHEP      C2              7.7799881867       -4.5632266933       28.6827861277  LPSA3     4               2.0000000000
      2575        76  AHEP      H2              7.3407412416       -3.5613898178       28.7442425996  LPSA3     4               2.0000000000
      2576        76  AHEP      O2              6.9072517227       -5.4086887149       29.3407203943  LPSA3     4               2.0000000000
      2577        76  AHEP      HO2             6.3049379744       -4.9008998044       29.8507927467  LPSA3     4               2.0000000000
      2578        76  AHEP      C3              9.0960796918       -4.5304348189       29.4857672188  LPSA3     4               2.0000000000
      2579        76  AHEP      H3              9.7991732828       -3.7268226542       29.2269906369  LPSA3     4               2.0000000000
      2580        76  AHEP      O3              8.8352984417       -4.2486718909       30.7882097304  LPSA3     4               2.0000000000
      2581        76  AHEP      C4              9.7310058271       -5.8969664451       29.4546205599  LPSA3     4               2.0000000000
      2582        76  AHEP      H4              9.1645367670       -6.7068102513       29.9788637739  LPSA3     4               2.0000000000
      2583        76  AHEP      O4             11.0085693520       -5.8168787192       30.0145912217  LPSA3     4               2.0000000000
      2584        76  AHEP      P4             11.3798806265       -6.4681657796       31.4978499249  LPSA3     4               2.0000000000
      2585        76  AHEP      OP42           12.3929059479       -5.6175821995       32.1560374192  LPSA3     4               2.0000000000
      2586        76  AHEP      OP43           11.9323840826       -7.7857737937       31.0397938518  LPSA3     4               2.0000000000
      2587        76  AHEP      OP44           10.0671500461       -6.6991095054       32.3098937101  LPSA3     4               2.0000000000
      2588        76  AHEP      C6             10.6494012780       -7.7320505514       27.7982482844  LPSA3     4               2.0000000000
      2589        76  AHEP      H6             11.7295406855       -7.5466889969       28.0833143566  LPSA3     4               2.0000000000
      2590        76  AHEP      O6             10.0782989946       -8.6737722443       28.7103505027  LPSA3     4               2.0000000000
      2591        76  AHEP      HO6            10.7748042387       -9.1676484173       29.2203787365  LPSA3     4               2.0000000000
      2592        76  AHEP      C7             10.6188331712       -8.2372460632       26.3054198206  LPSA3     4               2.0000000000
      2593        76  AHEP      H71            11.3011892862       -9.1392174249       26.1576126064  LPSA3     4               2.0000000000
      2594        76  AHEP      H72            10.8202917702       -7.3798647500       25.6323487339  LPSA3     4               2.0000000000
      2595        76  AHEP      O7              9.3215380285       -8.7247704223       25.9755159574  LPSA3     4               2.0000000000
      2596        76  AHEP      HO7             9.2491078334       -9.6268754240       26.3256794122  LPSA3     4               2.0000000000
      2597        77  AHEP      C1              9.3941787122       -3.0822385866       31.4342177374  LPSA3     5               3.0000000000
      2598        77  AHEP      H1             10.3783960652       -2.7950480914       30.9794447437  LPSA3     5               3.0000000000
      2599        77  AHEP      C5              7.2544142761       -2.1522055397       31.9165413065  LPSA3     5               3.0000000000
      2600        77  AHEP      H5              6.8584892578       -3.1772615433       31.6031509785  LPSA3     5               3.0000000000
      2601        77  AHEP      O5              8.5169661985       -1.9487920861       31.3013865768  LPSA3     5               3.0000000000
      2602        77  AHEP      C2              9.6357860747       -3.2518015049       32.9718957084  LPSA3     5               3.0000000000
      2603        77  AHEP      H2             10.2727854876       -4.1864683268       33.0921707216  LPSA3     5               3.0000000000
      2604        77  AHEP      O2             10.3595274164       -2.1417621948       33.4691025827  LPSA3     5               3.0000000000
      2605        77  AHEP      HO2            11.2627952819       -2.3887151075       33.6403503244  LPSA3     5               3.0000000000
      2606        77  AHEP      C3              8.3010042469       -3.5119861978       33.7004304811  LPSA3     5               3.0000000000
      2607        77  AHEP      H3              7.8346682923       -4.4345893699       33.3375632548  LPSA3     5               3.0000000000
      2608        77  AHEP      O3              8.3791870200       -3.6616342087       35.1462238331  LPSA3     5               3.0000000000
      2609        77  AHEP      C4              7.4391706899       -2.3219594888       33.4524658705  LPSA3     5               3.0000000000
      2610        77  AHEP      H4              7.9064129332       -1.3755088939       33.8188816395  LPSA3     5               3.0000000000
      2611        77  AHEP      O4              6.1444652264       -2.5617942802       34.0881196202  LPSA3     5               3.0000000000
      2612        77  AHEP      P4              5.6398318494       -1.6320488616       35.2810123301  LPSA3     5               3.0000000000
      2613        77  AHEP      OP42            4.3957146163       -2.2975847479       35.8202965042  LPSA3     5               3.0000000000
      2614        77  AHEP      OP43            5.3260300867       -0.2682995278       34.6107506294  LPSA3     5               3.0000000000
      2615        77  AHEP      OP44            6.7912252679       -1.4948099123       36.2417033353  LPSA3     5               3.0000000000
      2616        77  AHEP      C6              6.2165840093       -1.0803958780       31.5493607386  LPSA3     5               3.0000000000
      2617        77  AHEP      H6              5.2187113205       -1.3198069116       31.9533288164  LPSA3     5               3.0000000000
      2618        77  AHEP      O6              6.6269767476        0.1902489540       32.0428602265  LPSA3     5               3.0000000000
      2619        77  AHEP      HO6             7.3513711542        0.6450203826       31.5367188277  LPSA3     5               3.0000000000
      2620        77  AHEP      C7              5.9496613469       -1.1137769220       30.0822725317  LPSA3     5               3.0000000000
      2621        77  AHEP      H71             4.8851635063       -0.8375793506       29.9169108581  LPSA3     5               3.0000000000
      2622        77  AHEP      H72             6.1007847220       -2.1063680191       29.6179339851  LPSA3     5               3.0000000000
      2623        77  AHEP      O7              6.7280597013       -0.0493105582       29.4957736452  LPSA3     5               3.0000000000
      2624        78  AHEP      C1              7.8507940618       -0.4892921411       28.7926622005  LPSA3     6               4.0000000000
      2625        78  AHEP      H1              8.0728462595       -1.5845627005       29.0422981953  LPSA3     6               4.0000000000
      2626        78  AHEP      C5              7.3889421650        0.9217003775       26.9237617191  LPSA3     6               4.0000000000
      2627        78  AHEP      H5              6.5266699338        1.3123239480       27.4818042043  LPSA3     6               4.0000000000
      2628        78  AHEP      O5              7.6817626689       -0.4167789228       27.3547530115  LPSA3     6               4.0000000000
      2629        78  AHEP      C2              9.0447554462        0.3077543353       29.2397872647  LPSA3     6               4.0000000000
      2630        78  AHEP      H2              9.1608577951        0.1334583403       30.3523091474  LPSA3     6               4.0000000000
      2631        78  AHEP      O2             10.2512245840       -0.1954766516       28.7267108980  LPSA3     6               4.0000000000
      2632        78  AHEP      HO2            10.6722362543       -0.5869006474       29.4669064354  LPSA3     6               4.0000000000
      2633        78  AHEP      C3              8.8014467419        1.7865344378       28.8468391403  LPSA3     6               4.0000000000
      2634        78  AHEP      H3              7.9395985753        2.1320224688       29.4311808254  LPSA3     6               4.0000000000
      2635        78  AHEP      O3              9.9388118509        2.7066984175       29.2225362108  LPSA3     6               4.0000000000
      2636        78  AHEP      HO3             9.8373422232        3.2069520298       29.9865592523  LPSA3     6               4.0000000000
      2637        78  AHEP      C4              8.5869131904        1.8061003678       27.2761740859  LPSA3     6               4.0000000000
      2638        78  AHEP      H4              9.5273825892        1.5783996297       26.7944950683  LPSA3     6               4.0000000000
      2639        78  AHEP      O4              8.3215943909        3.1319633645       26.7938835778  LPSA3     6               4.0000000000
      2640        78  AHEP      HO4             7.3711718225        3.3078827234       27.1589530594  LPSA3     6               4.0000000000
      2641        78  AHEP      C6              6.9544434736        1.0020063687       25.4906533340  LPSA3     6               4.0000000000
      2642        78  AHEP      H6              6.6717689283        2.0387229125       25.3442628137  LPSA3     6               4.0000000000
      2643        78  AHEP      O6              8.0873150066        0.8269026267       24.6375675438  LPSA3     6               4.0000000000
      2644        78  AHEP      HO6             7.9358917814        0.1250941724       23.9977784313  LPSA3     6               4.0000000000
      2645        78  AHEP      C7              5.7452898903        0.1688125082       25.1799756221  LPSA3     6               4.0000000000
      2646        78  AHEP      H71             5.4126568621        0.4370855241       24.1408078076  LPSA3     6               4.0000000000
      2647        78  AHEP      H72             4.9813732584        0.4538857480       25.9252229174  LPSA3     6               4.0000000000
      2648        78  AHEP      O7              5.9672618783       -1.2085871607       25.2517430265  LPSA3     6               4.0000000000
      2649        78  AHEP      HO7             5.8551256251       -1.4198491923       26.2011285002  LPSA3     6               4.0000000000
      2650        79  AGLC      C1              8.6306656439       -4.9647115025       35.6520976122  LPSA3     7               4.0000000000
      2651        79  AGLC      H1              7.8661185706       -5.6890832976       35.2047739589  LPSA3     7               4.0000000000
      2652        79  AGLC      C5             10.9289240958       -4.6770443891       36.0987679218  LPSA3     7               4.0000000000
      2653        79  AGLC      H5             10.8793059834       -3.6113675851       35.8327124756  LPSA3     7               4.0000000000
      2654        79  AGLC      O5              9.9429251813       -5.3974096079       35.4366254460  LPSA3     7               4.0000000000
      2655        79  AGLC      C2              8.4255750116       -5.0250371224       37.1582745954  LPSA3     7               4.0000000000
      2656        79  AGLC      H2              8.7170144496       -6.0861459040       37.4887389927  LPSA3     7               4.0000000000
      2657        79  AGLC      O2              7.0269346015       -4.9872487171       37.5024056006  LPSA3     7               4.0000000000
      2658        79  AGLC      HO2             6.8285537994       -4.0642049286       37.6430208865  LPSA3     7               4.0000000000
      2659        79  AGLC      C3              9.3530898512       -4.2850184419       37.9903802326  LPSA3     7               4.0000000000
      2660        79  AGLC      H3              9.2218706505       -3.2498442976       37.6727250444  LPSA3     7               4.0000000000
      2661        79  AGLC      O3              9.0796007915       -4.2380691939       39.4204481292  LPSA3     7               4.0000000000
      2662        79  AGLC      C4             10.6934383552       -4.8310195472       37.5928595998  LPSA3     7               4.0000000000
      2663        79  AGLC      H4             10.8055243627       -5.9182970679       37.9560286200  LPSA3     7               4.0000000000
      2664        79  AGLC      O4             11.6528135410       -3.9560105076       38.2243117391  LPSA3     7               4.0000000000
      2665        79  AGLC      HO4            12.3727497463       -4.4046447550       38.6132003238  LPSA3     7               4.0000000000
      2666        79  AGLC      C6             12.3205049814       -5.0430694334       35.5245160098  LPSA3     7               4.0000000000
      2667        79  AGLC      H61            12.2452775253       -4.9234819118       34.4135318240  LPSA3     7               4.0000000000
      2668        79  AGLC      H62            13.1982441620       -4.4573998584       35.8722646349  LPSA3     7               4.0000000000
      2669        79  AGLC      O6             12.5006896489       -6.4825957968       35.6892983147  LPSA3     7               4.0000000000
      2670        79  AGLC      HO6            13.0338286376       -6.4778811944       36.4386090630  LPSA3     7               4.0000000000
      2671        80  AGLC      C1              8.7443375616       -2.9975244878       39.9328324507  LPSA3     8               5.0000000000
      2672        80  AGLC      H1              9.4678632419       -2.2381128803       39.5884769495  LPSA3     8               5.0000000000
      2673        80  AGLC      C5              6.2989438179       -3.3203543478       40.2153373402  LPSA3     8               5.0000000000
      2674        80  AGLC      H5              6.4180843195       -4.3439691592       39.8400606936  LPSA3     8               5.0000000000
      2675        80  AGLC      O5              7.3802839568       -2.5524855893       39.6195505863  LPSA3     8               5.0000000000
      2676        80  AGLC      C2              8.8515359560       -2.9891363652       41.4170311384  LPSA3     8               5.0000000000
      2677        80  AGLC      H2              8.7281421173       -1.9079683042       41.6529594578  LPSA3     8               5.0000000000
      2678        80  AGLC      O2             10.1485312268       -3.2443944534       41.9438754185  LPSA3     8               5.0000000000
      2679        80  AGLC      C3              7.8211509980       -3.7883931052       42.1297388169  LPSA3     8               5.0000000000
      2680        80  AGLC      H3              8.0345388398       -4.7957303915       41.6567950186  LPSA3     8               5.0000000000
      2681        80  AGLC      O3              8.0884846702       -3.7980539658       43.5370978028  LPSA3     8               5.0000000000
      2682        80  AGLC      C4              6.5206423455       -3.2477535890       41.7603093222  LPSA3     8               5.0000000000
      2683        80  AGLC      H4              6.4426664901       -2.2134863961       42.0401368658  LPSA3     8               5.0000000000
      2684        80  AGLC      O4              5.4812068605       -3.9578493368       42.3914819843  LPSA3     8               5.0000000000
      2685        80  AGLC      HO4             5.6978792217       -4.8579120754       42.3800652601  LPSA3     8               5.0000000000
      2686        80  AGLC      C6              4.8689485273       -2.9765636387       39.7357334439  LPSA3     8               5.0000000000
      2687        80  AGLC      H61             4.7778883662       -2.8528943330       38.6468043611  LPSA3     8               5.0000000000
      2688        80  AGLC      H62             4.1123668463       -3.6808952493       40.0276014644  LPSA3     8               5.0000000000
      2689        80  AGLC      O6              4.3409544192       -1.8144939333       40.3040784562  LPSA3     8               5.0000000000
      2690        80  AGLC      HO6             4.0103487717       -1.9604281905       41.2121845210  LPSA3     8               5.0000000000
      2691        81  AGAL      C1             11.2422131973       -2.5268629268       41.4573847493  LPSA3     9               6.0000000000
      2692        81  AGAL      H1             11.2123403513       -2.4891884926       40.3420235153  LPSA3     9               6.0000000000
      2693        81  AGAL      C5             11.5868684541       -1.0310072232       43.2125447641  LPSA3     9               6.0000000000
      2694        81  AGAL      H5             10.8259317054       -1.7274358764       43.7424973645  LPSA3     9               6.0000000000
      2695        81  AGAL      O5             11.3727680576       -1.1242351266       41.8451689838  LPSA3     9               6.0000000000
      2696        81  AGAL      C2             12.4966906379       -3.2668595225       41.8393925249  LPSA3     9               6.0000000000
      2697        81  AGAL      H2             13.3503089357       -2.7608829939       41.4115621152  LPSA3     9               6.0000000000
      2698        81  AGAL      O2             12.6060735360       -4.5322852832       41.1608705954  LPSA3     9               6.0000000000
      2699        81  AGAL      C3             12.7650963123       -3.1877431931       43.3264191845  LPSA3     9               6.0000000000
      2700        81  AGAL      H3             11.9319904015       -3.7426556082       43.9424563891  LPSA3     9               6.0000000000
      2701        81  AGAL      O3             13.8638296854       -3.9377652430       43.7491515633  LPSA3     9               6.0000000000
      2702        81  AGAL      HO3            13.9026129412       -4.7043509174       43.1585960960  LPSA3     9               6.0000000000
      2703        81  AGAL      C4             12.8705929912       -1.7516218406       43.6505755014  LPSA3     9               6.0000000000
      2704        81  AGAL      H4             12.9663210282       -1.5560584365       44.7734818408  LPSA3     9               6.0000000000
      2705        81  AGAL      O4             13.9388133032       -1.0867810377       43.0499075873  LPSA3     9               6.0000000000
      2706        81  AGAL      HO4            14.2020710586       -0.3823774514       43.6622427513  LPSA3     9               6.0000000000
      2707        81  AGAL      C6             11.2668423525        0.3288405623       43.8349081587  LPSA3     9               6.0000000000
      2708        81  AGAL      H61            10.2186140387        0.6744334322       43.6417203355  LPSA3     9               6.0000000000
      2709        81  AGAL      H62            11.3359955256        0.3604484404       44.9292747136  LPSA3     9               6.0000000000
      2710        81  AGAL      O6             12.1623778419        1.3098593550       43.4062227539  LPSA3     9               6.0000000000
      2711        81  AGAL      HO6            11.7194979287        1.8046923548       42.6923548993  LPSA3     9               6.0000000000
      2712        82  AGAL      C1             12.9091712126       -5.8178747074       41.7517281777  LPSA3     10              7.0000000000
      2713        82  AGAL      H1             14.0034919815       -5.7964691072       41.8429972083  LPSA3     10              7.0000000000
      2714        82  AGAL      C5             10.9607385390       -6.3460177935       43.0613392294  LPSA3     10              7.0000000000
      2715        82  AGAL      H5             10.5220767201       -5.3438194806       42.6233508762  LPSA3     10              7.0000000000
      2716        82  AGAL      O5             12.3969589987       -6.2362089659       43.0470213554  LPSA3     10              7.0000000000
      2717        82  AGAL      C2             12.4738676848       -6.8773793677       40.7227968417  LPSA3     10              7.0000000000
      2718        82  AGAL      H2             13.0211280738       -7.8467207010       41.0433947026  LPSA3     10              7.0000000000
      2719        82  AGAL      O2             13.1669777694       -6.8099241088       39.5532095562  LPSA3     10              7.0000000000
      2720        82  AGAL      HO2            13.5593679856       -7.6472844380       39.3379401176  LPSA3     10              7.0000000000
      2721        82  AGAL      C3             10.9975380664       -7.0522188081       40.6928251787  LPSA3     10              7.0000000000
      2722        82  AGAL      H3             10.6324259631       -6.0521890519       40.4679648945  LPSA3     10              7.0000000000
      2723        82  AGAL      O3             10.5247205499       -7.9902056459       39.7732034444  LPSA3     10              7.0000000000
      2724        82  AGAL      HO3            10.1279263252       -7.4941426686       39.0151094934  LPSA3     10              7.0000000000
      2725        82  AGAL      C4             10.5249759814       -7.4391905610       42.0524071915  LPSA3     10              7.0000000000
      2726        82  AGAL      H4              9.4199821624       -7.4769245008       42.1099272557  LPSA3     10              7.0000000000
      2727        82  AGAL      O4             10.9998679434       -8.6767298816       42.4965010455  LPSA3     10              7.0000000000
      2728        82  AGAL      HO4            11.9286809398       -8.5483318197       42.5675127347  LPSA3     10              7.0000000000
      2729        82  AGAL      C6             10.3036650994       -6.4964869563       44.3959537205  LPSA3     10              7.0000000000
      2730        82  AGAL      H61            10.6325561238       -5.7423839712       45.1044438806  LPSA3     10              7.0000000000
      2731        82  AGAL      H62             9.1396594845       -6.2650251612       44.2564473849  LPSA3     10              7.0000000000
      2732        82  AGAL      O6             10.3806799799       -7.7477282436       45.1112340130  LPSA3     10              7.0000000000
      2733        82  AGAL      HO6            10.8966097389       -7.5952512557       45.9237589285  LPSA3     10              7.0000000000
      2734        83  BGLC      C1              7.5272635792       -2.9263853013       44.5018065681  LPSA3     11              6.0000000000
      2735        83  BGLC      H1              6.5184333798       -3.3019766502       44.5883763758  LPSA3     11              6.0000000000
      2736        83  BGLC      C5              7.0825473534       -0.5405098702       45.1248117688  LPSA3     11              6.0000000000
      2737        83  BGLC      H5              5.9828501488       -0.7282330649       45.3871201921  LPSA3     11              6.0000000000
      2738        83  BGLC      O5              7.6365047756       -1.5077229874       44.0830650888  LPSA3     11              6.0000000000
      2739        83  BGLC      C2              8.2830823443       -3.0742799918       45.7977571702  LPSA3     11              6.0000000000
      2740        83  BGLC      H2              9.3851889237       -2.8916702769       45.7293388291  LPSA3     11              6.0000000000
      2741        83  BGLC      O2              8.2194648948       -4.4628807454       46.0886391483  LPSA3     11              6.0000000000
      2742        83  BGLC      HO2             9.0840359084       -4.7725615947       46.2788110113  LPSA3     11              6.0000000000
      2743        83  BGLC      C3              7.8204989505       -2.1820635991       46.8736276645  LPSA3     11              6.0000000000
      2744        83  BGLC      H3              6.7486610374       -2.5223895239       47.1984917368  LPSA3     11              6.0000000000
      2745        83  BGLC      O3              8.6539328833       -2.4028765934       48.0056213318  LPSA3     11              6.0000000000
      2746        83  BGLC      C4              7.8794279307       -0.8019221129       46.4390836423  LPSA3     11              6.0000000000
      2747        83  BGLC      H4              8.9771274553       -0.5960004447       46.2001611147  LPSA3     11              6.0000000000
      2748        83  BGLC      O4              7.5297714626        0.0991936854       47.4766894645  LPSA3     11              6.0000000000
      2749        83  BGLC      HO4             8.2441555202        0.1008003318       48.1247908570  LPSA3     11              6.0000000000
      2750        83  BGLC      C6              7.0561205799        0.8777141925       44.5291127165  LPSA3     11              6.0000000000
      2751        83  BGLC      H61             6.9954074030        1.6833714072       45.2481190913  LPSA3     11              6.0000000000
      2752        83  BGLC      H62             7.9699103863        0.9755154980       43.8913252379  LPSA3     11              6.0000000000
      2753        83  BGLC      O6              5.9947829596        1.1115927123       43.5637942269  LPSA3     11              6.0000000000
      2754        83  BGLC      HO6             5.4460647014        1.7160069512       44.0054369298  LPSA3     11              6.0000000000
      2755        84  BGLCNA    C1              8.1283232026       -2.6804457761       49.3238540420  LPSA3     12              7.0000000000
      2756        84  BGLCNA    H1              7.9559395677       -3.8075966763       49.3874222992  LPSA3     12              7.0000000000
      2757        84  BGLCNA    C5              6.3281823257       -2.3708416212       50.8763077070  LPSA3     12              7.0000000000
      2758        84  BGLCNA    H5              6.1467084403       -3.5332424988       50.9814236466  LPSA3     12              7.0000000000
      2759        84  BGLCNA    O5              6.8811567615       -1.9995361312       49.5875345322  LPSA3     12              7.0000000000
      2760        84  BGLCNA    C2              9.1409371949       -2.2320655396       50.3245054808  LPSA3     12              7.0000000000
      2761        84  BGLCNA    H2              9.0963580494       -1.0611011933       50.3375086743  LPSA3     12              7.0000000000
      2762        84  BGLCNA    N              10.4558672381       -2.8364517931       50.0347611965  LPSA3     12              7.0000000000
      2763        84  BGLCNA    HN             10.3470012085       -3.7741468999       49.9972643287  LPSA3     12              7.0000000000
      2764        84  BGLCNA    C              11.5148030175       -2.0991520564       49.8903426450  LPSA3     12              7.0000000000
      2765        84  BGLCNA    O              11.4491419583       -0.8936878174       50.0855928044  LPSA3     12              7.0000000000
      2766        84  BGLCNA    CT             12.7944871218       -2.8088917138       49.5677689528  LPSA3     12              7.0000000000
      2767        84  BGLCNA    HT1            13.5276209850       -2.7439163151       50.3918503408  LPSA3     12              7.0000000000
      2768        84  BGLCNA    HT2            13.3642564435       -2.2326833497       48.7104760971  LPSA3     12              7.0000000000
      2769        84  BGLCNA    HT3            12.5124120295       -3.8373239575       49.2316245990  LPSA3     12              7.0000000000
      2770        84  BGLCNA    C3              8.7085113012       -2.5727867687       51.6995695120  LPSA3     12              7.0000000000
      2771        84  BGLCNA    H3              8.6561595980       -3.7465383367       51.8605307917  LPSA3     12              7.0000000000
      2772        84  BGLCNA    O3              9.6706884990       -2.2097038462       52.7272334264  LPSA3     12              7.0000000000
      2773        84  BGLCNA    C4              7.3864111447       -1.9237622404       51.9591692987  LPSA3     12              7.0000000000
      2774        84  BGLCNA    H4              7.4017895026       -0.7699948035       51.9037868612  LPSA3     12              7.0000000000
      2775        84  BGLCNA    O4              6.9051317108       -2.2127501358       53.2294962294  LPSA3     12              7.0000000000
      2776        84  BGLCNA    HO4             6.5437516157       -3.1453816142       53.2834945119  LPSA3     12              7.0000000000
      2777        84  BGLCNA    C6              4.9214975541       -1.7433664965       50.9528560558  LPSA3     12              7.0000000000
      2778        84  BGLCNA    H61             4.4923966111       -1.9060766170       51.9144325068  LPSA3     12              7.0000000000
      2779        84  BGLCNA    H62             5.1192070818       -0.6843619972       50.8287962869  LPSA3     12              7.0000000000
      2780        84  BGLCNA    O6              4.1398739561       -2.1546292563       49.8597561973  LPSA3     12              7.0000000000
      2781        84  BGLCNA    HO6             3.7191704294       -2.9365814948       50.1903398796  LPSA3     12              7.0000000000
      2782        85  AGAL      C1              9.8527279965       -3.1746246299       53.8132743488  LPSA3     13              8.0000000000
      2783        85  AGAL      H1              8.8550879298       -3.4855478719       54.1959401301  LPSA3     13              8.0000000000
      2784        85  AGAL      C5             12.1351088295       -3.7502467309       53.2950732168  LPSA3     13              8.0000000000
      2785        85  AGAL      H5             12.0546848716       -2.9486013981       52.5641412600  LPSA3     13              8.0000000000
      2786        85  AGAL      O5             10.8035119727       -4.2516326917       53.4918445955  LPSA3     13              8.0000000000
      2787        85  AGAL      C2             10.4688230169       -2.5613767254       55.1010141246  LPSA3     13              8.0000000000
      2788        85  AGAL      H2             10.7302036579       -3.3880474301       55.7917211299  LPSA3     13              8.0000000000
      2789        85  AGAL      O2              9.5747910238       -1.6967720273       55.7701983428  LPSA3     13              8.0000000000
      2790        85  AGAL      C3             11.9096442289       -2.0335083693       54.8979691660  LPSA3     13              8.0000000000
      2791        85  AGAL      H3             11.9080171276       -1.3588663321       54.0477453328  LPSA3     13              8.0000000000
      2792        85  AGAL      O3             12.3597765125       -1.2159856655       55.9888739531  LPSA3     13              8.0000000000
      2793        85  AGAL      HO3            12.8616035601       -0.4665819096       55.6848713412  LPSA3     13              8.0000000000
      2794        85  AGAL      C4             12.7800435476       -3.1010906159       54.5514025965  LPSA3     13              8.0000000000
      2795        85  AGAL      H4             13.8056339736       -2.7038061764       54.1954731349  LPSA3     13              8.0000000000
      2796        85  AGAL      O4             12.9473367475       -4.0583768852       55.5743212917  LPSA3     13              8.0000000000
      2797        85  AGAL      HO4            12.1508682946       -4.3371144846       56.0499681296  LPSA3     13              8.0000000000
      2798        85  AGAL      C6             13.0704508818       -4.6660431821       52.5301443486  LPSA3     13              8.0000000000
      2799        85  AGAL      H61            12.5669531299       -5.0340854973       51.6253596531  LPSA3     13              8.0000000000
      2800        85  AGAL      H62            14.0339290277       -4.1215305715       52.3684678279  LPSA3     13              8.0000000000
      2801        85  AGAL      O6             13.4188174361       -5.7992470061       53.2985910507  LPSA3     13              8.0000000000
      2802        85  AGAL      HO6            14.1090171381       -5.5427926186       53.9299633642  LPSA3     13              8.0000000000
      2803        86  ARHM      C1              9.0392509022       -2.0581955426       57.0117786358  LPSA3     14              9.0000000000
      2804        86  ARHM      H1              9.0255609358       -3.1678037246       56.9981767125  LPSA3     14              9.0000000000
      2805        86  ARHM      C5              7.6169351109       -0.2242513933       57.1930138837  LPSA3     14              9.0000000000
      2806        86  ARHM      H5              8.0639546799        0.1512898253       56.1976867078  LPSA3     14              9.0000000000
      2807        86  ARHM      O5              7.7061039448       -1.5999586718       57.1718909996  LPSA3     14              9.0000000000
      2808        86  ARHM      C2              9.9322511599       -1.4994383310       58.1413490634  LPSA3     14              9.0000000000
      2809        86  ARHM      H2             10.9247619087       -1.8497020390       57.8875987320  LPSA3     14              9.0000000000
      2810        86  ARHM      O2              9.5656055249       -1.8782336536       59.4330148990  LPSA3     14              9.0000000000
      2811        86  ARHM      C3              9.8791400258        0.0006263971       58.1095432995  LPSA3     14              9.0000000000
      2812        86  ARHM      H3             10.0626338259        0.3285598057       57.0440121713  LPSA3     14              9.0000000000
      2813        86  ARHM      O3             10.8680405799        0.6394542013       58.8567888868  LPSA3     14              9.0000000000
      2814        86  ARHM      HO3            10.5869443280        0.5224106296       59.8104957846  LPSA3     14              9.0000000000
      2815        86  ARHM      C4              8.4639935227        0.3845960797       58.3490442956  LPSA3     14              9.0000000000
      2816        86  ARHM      H4              7.9967563378        0.0108556084       59.2902338481  LPSA3     14              9.0000000000
      2817        86  ARHM      O4              8.3747319500        1.8329121201       58.4446785014  LPSA3     14              9.0000000000
      2818        86  ARHM      HO4             8.1361658075        2.1937367147       59.2969967688  LPSA3     14              9.0000000000
      2819        86  ARHM      C6              6.1405062061        0.2031294420       57.2492155848  LPSA3     14              9.0000000000
      2820        86  ARHM      H61             5.4488148702       -0.3697714059       56.5358243550  LPSA3     14              9.0000000000
      2821        86  ARHM      H62             5.8509596393        0.1269949039       58.3170764683  LPSA3     14              9.0000000000
      2822        86  ARHM      H63             5.8588823851        1.2131746675       56.9421594120  LPSA3     14              9.0000000000
      2823        87  ARHM      C1              9.3640964741       -3.1706455456       59.7267990175  LPSA3     15             10.0000000000
      2824        87  ARHM      H1              9.9396189340       -3.8342482278       59.0458905905  LPSA3     15             10.0000000000
      2825        87  ARHM      C5              7.0660629864       -2.9708781970       60.6468530148  LPSA3     15             10.0000000000
      2826        87  ARHM      H5              6.9297814021       -1.8617751625       60.4457705401  LPSA3     15             10.0000000000
      2827        87  ARHM      O5              7.9717918117       -3.5703257963       59.6688136410  LPSA3     15             10.0000000000
      2828        87  ARHM      C2              9.8655135480       -3.4563878968       61.1407671534  LPSA3     15             10.0000000000
      2829        87  ARHM      H2             10.9375708131       -3.0304630173       61.2133420761  LPSA3     15             10.0000000000
      2830        87  ARHM      O2              9.8313185993       -4.9028806018       61.3234079317  LPSA3     15             10.0000000000
      2831        87  ARHM      C3              8.9926290276       -2.7336938849       62.1677656617  LPSA3     15             10.0000000000
      2832        87  ARHM      H3              8.9778067004       -1.6503490948       61.8628392879  LPSA3     15             10.0000000000
      2833        87  ARHM      O3              9.7458532840       -2.7751748921       63.4092175029  LPSA3     15             10.0000000000
      2834        87  ARHM      C4              7.6347783017       -3.2347474603       62.0487117432  LPSA3     15             10.0000000000
      2835        87  ARHM      H4              7.6658849004       -4.3929523832       62.1496903561  LPSA3     15             10.0000000000
      2836        87  ARHM      O4              6.6547860191       -2.7368330996       62.9635513464  LPSA3     15             10.0000000000
      2837        87  ARHM      HO4             5.9198449111       -3.3314086843       62.9565205260  LPSA3     15             10.0000000000
      2838        87  ARHM      C6              5.6763521052       -3.5301443844       60.4460959132  LPSA3     15             10.0000000000
      2839        87  ARHM      H61             4.8879023435       -3.0656035707       61.0956562646  LPSA3     15             10.0000000000
      2840        87  ARHM      H62             5.4481431885       -3.5678663546       59.3910198679  LPSA3     15             10.0000000000
      2841        87  ARHM      H63             5.5748523258       -4.5735325790       60.8578185328  LPSA3     15             10.0000000000
      2842        88  BMANNA    C1             10.3472443629       -5.4757204049       62.5145562334  LPSA3     16             11.0000000000
      2843        88  BMANNA    H1              9.5849284499       -5.2266825617       63.3432051365  LPSA3     16             11.0000000000
      2844        88  BMANNA    C5             11.9991744442       -5.5735036877       64.1851548173  LPSA3     16             11.0000000000
      2845        88  BMANNA    H5             11.2650320813       -5.3878208458       64.9800677769  LPSA3     16             11.0000000000
      2846        88  BMANNA    O5             11.6190430741       -4.9801521949       62.9158851071  LPSA3     16             11.0000000000
      2847        88  BMANNA    C2             10.4007140977       -7.0031901659       62.2781089586  LPSA3     16             11.0000000000
      2848        88  BMANNA    H2              9.3513373411       -7.2761743129       61.9912908466  LPSA3     16             11.0000000000
      2849        88  BMANNA    N              11.2841907474       -7.5147467786       61.2264456342  LPSA3     16             11.0000000000
      2850        88  BMANNA    HN             12.1770429990       -7.6942228082       61.5688724990  LPSA3     16             11.0000000000
      2851        88  BMANNA    C              10.9470097823       -7.6719706736       59.9704010620  LPSA3     16             11.0000000000
      2852        88  BMANNA    O               9.7732867207       -7.4622150565       59.5582221915  LPSA3     16             11.0000000000
      2853        88  BMANNA    CT             12.0453724997       -8.1257021711       59.1331689300  LPSA3     16             11.0000000000
      2854        88  BMANNA    HT1            12.0144215669       -9.1618092289       58.8344492748  LPSA3     16             11.0000000000
      2855        88  BMANNA    HT2            13.0546617068       -7.9504704926       59.5043001239  LPSA3     16             11.0000000000
      2856        88  BMANNA    HT3            12.0308040603       -7.6020973086       58.1231520073  LPSA3     16             11.0000000000
      2857        88  BMANNA    C3             10.7568904163       -7.6103872619       63.6119771117  LPSA3     16             11.0000000000
      2858        88  BMANNA    H3              9.9970075543       -7.3206805166       64.3839812837  LPSA3     16             11.0000000000
      2859        88  BMANNA    O3             10.7431236893       -9.0088869045       63.6122488842  LPSA3     16             11.0000000000
      2860        88  BMANNA    HO3            10.1747512623       -9.3399216896       64.2950500102  LPSA3     16             11.0000000000
      2861        88  BMANNA    C4             12.1198907433       -7.1075941186       64.1045846713  LPSA3     16             11.0000000000
      2862        88  BMANNA    H4             12.9387640489       -7.3817933649       63.4124605202  LPSA3     16             11.0000000000
      2863        88  BMANNA    O4             12.5750186933       -7.5906099875       65.3816866120  LPSA3     16             11.0000000000
      2864        88  BMANNA    HO4            13.5284215349       -7.5416092745       65.4353184152  LPSA3     16             11.0000000000
      2865        88  BMANNA    C6             13.2988843673       -4.9790754690       64.7427751243  LPSA3     16             11.0000000000
      2866        88  BMANNA    H61            13.2299927419       -5.0350421734       65.8875394407  LPSA3     16             11.0000000000
      2867        88  BMANNA    H62            14.1676291689       -5.5669785960       64.4389269682  LPSA3     16             11.0000000000
      2868        88  BMANNA    O6             13.5315370654       -3.6072364719       64.3660927576  LPSA3     16             11.0000000000
      2869        88  BMANNA    HO6            14.3960888607       -3.6746411256       63.9036969990  LPSA3     16             11.0000000000
      2870        89  BGLCNA    C1              9.6714946813       -1.6672849503       64.1715778089  LPSA3     17             11.0000000000
      2871        89  BGLCNA    H1              8.6819994352       -1.1131403475       63.9082176002  LPSA3     17             11.0000000000
      2872        89  BGLCNA    C5             10.6794505261        0.5253332492       64.5563394407  LPSA3     17             11.0000000000
      2873        89  BGLCNA    H5              9.7249057993        1.1130011150       64.2825289487  LPSA3     17             11.0000000000
      2874        89  BGLCNA    O5             10.6758133558       -0.6854375638       63.7849982893  LPSA3     17             11.0000000000
      2875        89  BGLCNA    C2              9.8167771151       -2.0814984255       65.5899343931  LPSA3     17             11.0000000000
      2876        89  BGLCNA    H2             10.8079116887       -2.5981001638       65.8249043900  LPSA3     17             11.0000000000
      2877        89  BGLCNA    N               8.8964173579       -3.1040426444       65.8849826081  LPSA3     17             11.0000000000
      2878        89  BGLCNA    HN              7.9937343585       -3.0935636956       65.4150135415  LPSA3     17             11.0000000000
      2879        89  BGLCNA    C               8.9432462429       -4.0516745879       66.8043620798  LPSA3     17             11.0000000000
      2880        89  BGLCNA    O               9.9494538894       -4.2560310072       67.4729873017  LPSA3     17             11.0000000000
      2881        89  BGLCNA    CT              7.7120589832       -4.8581439944       66.9728872304  LPSA3     17             11.0000000000
      2882        89  BGLCNA    HT1             7.6596843756       -5.8789411437       66.5529393721  LPSA3     17             11.0000000000
      2883        89  BGLCNA    HT2             6.8537824199       -4.2123277592       66.7043805047  LPSA3     17             11.0000000000
      2884        89  BGLCNA    HT3             7.5021494605       -5.0339811162       68.1408097225  LPSA3     17             11.0000000000
      2885        89  BGLCNA    C3              9.6996538028       -0.8147311838       66.4076579941  LPSA3     17             11.0000000000
      2886        89  BGLCNA    H3              8.6988193038       -0.4035015031       66.0441361901  LPSA3     17             11.0000000000
      2887        89  BGLCNA    O3              9.5642084999       -1.2110990035       67.8205355914  LPSA3     17             11.0000000000
      2888        89  BGLCNA    C4             10.8554663482        0.1090821298       66.0496966154  LPSA3     17             11.0000000000
      2889        89  BGLCNA    H4             11.8627446364       -0.4339758953       66.1123142204  LPSA3     17             11.0000000000
      2890        89  BGLCNA    O4             10.9485237464        1.2196570553       66.9186044206  LPSA3     17             11.0000000000
      2891        89  BGLCNA    HO4            11.6318132967        1.8486960509       66.7204061560  LPSA3     17             11.0000000000
      2892        89  BGLCNA    C6             11.8616458261        1.4128557858       64.1200051697  LPSA3     17             11.0000000000
      2893        89  BGLCNA    H61            11.5688422325        2.4446944546       64.1272946536  LPSA3     17             11.0000000000
      2894        89  BGLCNA    H62            12.7446650803        1.2965238580       64.8212395067  LPSA3     17             11.0000000000
      2895        89  BGLCNA    O6             12.3133999919        1.1111447334       62.7926115083  LPSA3     17             11.0000000000
      2896        89  BGLCNA    HO6            11.5927264722        1.2372796572       62.1856770532  LPSA3     17             11.0000000000
      2897        90  AGAL      C1              8.6872191983       -0.3770305340       68.6198653987  LPSA3     18             12.0000000000
      2898        90  AGAL      H1              9.2330508694        0.5945434545       68.8082567594  LPSA3     18             12.0000000000
      2899        90  AGAL      C5              6.6071490485       -1.3092452168       67.8636918791  LPSA3     18             12.0000000000
      2900        90  AGAL      H5              7.2089210159       -2.0999994741       67.4068928888  LPSA3     18             12.0000000000
      2901        90  AGAL      O5              7.4564267433       -0.1113674034       67.9834320655  LPSA3     18             12.0000000000
      2902        90  AGAL      C2              8.3308819403       -1.0496282952       70.0000206359  LPSA3     18             12.0000000000
      2903        90  AGAL      H2              7.6502361319       -0.2586200655       70.3908489884  LPSA3     18             12.0000000000
      2904        90  AGAL      O2              9.4413506260       -1.0616235553       70.8342757016  LPSA3     18             12.0000000000
      2905        90  AGAL      C3              7.5054598323       -2.2819533778       69.8682924558  LPSA3     18             12.0000000000
      2906        90  AGAL      H3              8.0222832625       -2.9845054775       69.0958348126  LPSA3     18             12.0000000000
      2907        90  AGAL      O3              7.3661876013       -2.9679887300       71.0758896640  LPSA3     18             12.0000000000
      2908        90  AGAL      HO3             7.5187882867       -3.9084463631       70.9682873819  LPSA3     18             12.0000000000
      2909        90  AGAL      C4              6.2540737523       -1.9462770164       69.1634745928  LPSA3     18             12.0000000000
      2910        90  AGAL      H4              5.5949985913       -2.8078429747       68.9039691178  LPSA3     18             12.0000000000
      2911        90  AGAL      O4              5.4327095035       -1.0649714599       69.9734134928  LPSA3     18             12.0000000000
      2912        90  AGAL      HO4             5.0058402520       -1.6075903257       70.7236544006  LPSA3     18             12.0000000000
      2913        90  AGAL      C6              5.6310736664       -1.0497238871       66.8042742825  LPSA3     18             12.0000000000
      2914        90  AGAL      H61             6.2006002833       -0.8877372881       65.8877991861  LPSA3     18             12.0000000000
      2915        90  AGAL      H62             5.0649418540       -2.0082014339       66.6499463921  LPSA3     18             12.0000000000
      2916        90  AGAL      O6              4.8337409414        0.0064914128       66.9803033045  LPSA3     18             12.0000000000
      2917        90  AGAL      HO6             5.0587839651        0.6216696485       67.6707071977  LPSA3     18             12.0000000000
      2918        91  ARHM      C1              9.0536760649       -0.6848024978       72.1803514454  LPSA3     19             13.0000000000
      2919        91  ARHM      H1              7.9992126952       -0.8156847002       72.3185909119  LPSA3     19             13.0000000000
      2920        91  ARHM      C5             10.4849816620        1.2045329711       72.2512180912  LPSA3     19             13.0000000000
      2921        91  ARHM      H5             10.8001704203        0.9234507957       71.2133247196  LPSA3     19             13.0000000000
      2922        91  ARHM      O5              9.1486084850        0.7272045738       72.4162684983  LPSA3     19             13.0000000000
      2923        91  ARHM      C2              9.9127089737       -1.4592497980       73.1100514097  LPSA3     19             13.0000000000
      2924        91  ARHM      H2              9.9534613480       -2.5046447068       72.9420985559  LPSA3     19             13.0000000000
      2925        91  ARHM      O2              9.4878732134       -1.2561033889       74.4131644751  LPSA3     19             13.0000000000
      2926        91  ARHM      C3             11.3674518431       -0.9092964817       72.9859276785  LPSA3     19             13.0000000000
      2927        91  ARHM      H3             11.6640167914       -1.0298336637       71.9471750908  LPSA3     19             13.0000000000
      2928        91  ARHM      O3             12.2462237222       -1.6381263402       73.7644258584  LPSA3     19             13.0000000000
      2929        91  ARHM      HO3            11.8609830046       -1.6873716638       74.6464134549  LPSA3     19             13.0000000000
      2930        91  ARHM      C4             11.4617206520        0.5350987288       73.2443334127  LPSA3     19             13.0000000000
      2931        91  ARHM      H4             11.1002482348        0.6796227975       74.2703943704  LPSA3     19             13.0000000000
      2932        91  ARHM      O4             12.7443237772        1.0731201038       73.1708570575  LPSA3     19             13.0000000000
      2933        91  ARHM      HO4            13.0233974841        0.9741207763       72.2126258713  LPSA3     19             13.0000000000
      2934        91  ARHM      C6             10.5409915723        2.7419406056       72.3031700958  LPSA3     19             13.0000000000
      2935        91  ARHM      H61             9.8455707906        2.9947375274       71.5186681997  LPSA3     19             13.0000000000
      2936        91  ARHM      H62            10.2080035913        3.2123371474       73.2001761489  LPSA3     19             13.0000000000
      2937        91  ARHM      H63            11.5328542591        3.1491293050       72.0875448643  LPSA3     19             13.0000000000
      2938        92  ARHM      C1              8.3326716125       -1.9738817377       74.6981797177  LPSA3     20             14.0000000000
      2939        92  ARHM      H1              8.0800561731       -2.7391386259       73.8936196974  LPSA3     20             14.0000000000
      2940        92  ARHM      C5              7.1608013985       -0.3350453009       75.9960310464  LPSA3     20             14.0000000000
      2941        92  ARHM      H5              8.0691295771        0.2923850310       75.8071112250  LPSA3     20             14.0000000000
      2942        92  ARHM      O5              7.1287348968       -1.2258369915       74.8741575474  LPSA3     20             14.0000000000
      2943        92  ARHM      C2              8.5560444021       -2.8281002959       75.9438944127  LPSA3     20             14.0000000000
      2944        92  ARHM      H2              9.5824361940       -3.3654056632       75.7904987900  LPSA3     20             14.0000000000
      2945        92  ARHM      O2              7.4897261677       -3.7663694542       76.2145535291  LPSA3     20             14.0000000000
      2946        92  ARHM      C3              8.5916571852       -1.8927453432       77.0746584307  LPSA3     20             14.0000000000
      2947        92  ARHM      H3              9.4696221790       -1.1549769868       76.9570890266  LPSA3     20             14.0000000000
      2948        92  ARHM      O3              8.9030786268       -2.6921095877       78.2431898216  LPSA3     20             14.0000000000
      2949        92  ARHM      C4              7.3317908415       -1.1058371628       77.2147849866  LPSA3     20             14.0000000000
      2950        92  ARHM      H4              6.4591068070       -1.7216057461       77.2882629629  LPSA3     20             14.0000000000
      2951        92  ARHM      O4              7.4011596232       -0.3232787553       78.4294019453  LPSA3     20             14.0000000000
      2952        92  ARHM      HO4             6.8770148929        0.3667308972       78.0714846557  LPSA3     20             14.0000000000
      2953        92  ARHM      C6              5.9741420839        0.5351816328       75.9818768401  LPSA3     20             14.0000000000
      2954        92  ARHM      H61             4.9441948832        0.0722618560       76.0487105533  LPSA3     20             14.0000000000
      2955        92  ARHM      H62             6.0662324801        1.3059137717       76.7492574554  LPSA3     20             14.0000000000
      2956        92  ARHM      H63             5.8373108527        1.1281251584       75.0059134709  LPSA3     20             14.0000000000
      2957        93  BMANNA    C1              7.7615947513       -4.8844736441       75.4501725836  LPSA3     21             15.0000000000
      2958        93  BMANNA    H1              8.5801417201       -4.6727332052       74.6495731600  LPSA3     21             15.0000000000
      2959        93  BMANNA    C5              7.0421479192       -6.2738343067       73.6578092950  LPSA3     21             15.0000000000
      2960        93  BMANNA    H5              8.0292605030       -6.1111414422       73.0422409194  LPSA3     21             15.0000000000
      2961        93  BMANNA    O5              6.6410857836       -5.1747180025       74.5460975074  LPSA3     21             15.0000000000
      2962        93  BMANNA    C2              8.0653365643       -6.0559562946       76.3268603500  LPSA3     21             15.0000000000
      2963        93  BMANNA    H2              8.9422705106       -5.6935845997       76.8663433126  LPSA3     21             15.0000000000
      2964        93  BMANNA    N               6.9783909362       -6.3394382106       77.2602735953  LPSA3     21             15.0000000000
      2965        93  BMANNA    HN              6.0980167389       -6.4430812726       76.8630196157  LPSA3     21             15.0000000000
      2966        93  BMANNA    C               7.1387406828       -6.7417241312       78.6142451918  LPSA3     21             15.0000000000
      2967        93  BMANNA    O               8.2511202737       -7.0618447832       79.0340579138  LPSA3     21             15.0000000000
      2968        93  BMANNA    CT              5.8843766701       -6.8221035117       79.5125915666  LPSA3     21             15.0000000000
      2969        93  BMANNA    HT1             5.3672366826       -7.7874808443       79.3040814335  LPSA3     21             15.0000000000
      2970        93  BMANNA    HT2             5.3031199834       -5.9044433987       79.3224353366  LPSA3     21             15.0000000000
      2971        93  BMANNA    HT3             6.1858866685       -6.8282057105       80.6000991146  LPSA3     21             15.0000000000
      2972        93  BMANNA    C3              8.4492244081       -7.1898680778       75.4428482744  LPSA3     21             15.0000000000
      2973        93  BMANNA    H3              9.3600946913       -6.8015418996       75.0091666053  LPSA3     21             15.0000000000
      2974        93  BMANNA    O3              8.7895340467       -8.3561400534       76.1769203835  LPSA3     21             15.0000000000
      2975        93  BMANNA    HO3             8.0626772998       -8.5580761920       76.7354970047  LPSA3     21             15.0000000000
      2976        93  BMANNA    C4              7.3294379963       -7.5110334116       74.4866217523  LPSA3     21             15.0000000000
      2977        93  BMANNA    H4              6.3334178687       -7.9311491987       75.0002820064  LPSA3     21             15.0000000000
      2978        93  BMANNA    O4              7.6561494552       -8.5554485701       73.6152290754  LPSA3     21             15.0000000000
      2979        93  BMANNA    HO4             7.0821855216       -9.3379926050       73.7703874424  LPSA3     21             15.0000000000
      2980        93  BMANNA    C6              6.0592712479       -6.5213585418       72.6348027846  LPSA3     21             15.0000000000
      2981        93  BMANNA    H61             6.4052171571       -7.2251239704       71.8494922130  LPSA3     21             15.0000000000
      2982        93  BMANNA    H62             5.2329680996       -7.1563540030       73.0558617198  LPSA3     21             15.0000000000
      2983        93  BMANNA    O6              5.4254823826       -5.4158849788       72.0654385618  LPSA3     21             15.0000000000
      2984        93  BMANNA    HO6             5.0634494867       -4.8909859325       72.7784055652  LPSA3     21             15.0000000000
      2985        94  BGLCNA    C1              9.7398997811       -2.1913122854       79.2248726046  LPSA3     22             15.0000000000
      2986        94  BGLCNA    H1              9.7740319713       -1.0636017597       79.2753119810  LPSA3     22             15.0000000000
      2987        94  BGLCNA    C5             11.9691844014       -2.0153652035       80.1145289529  LPSA3     22             15.0000000000
      2988        94  BGLCNA    H5             11.8148114848       -0.8554978981       80.0727605020  LPSA3     22             15.0000000000
      2989        94  BGLCNA    O5             11.0796543694       -2.5629281871       79.0803056561  LPSA3     22             15.0000000000
      2990        94  BGLCNA    C2              9.2455142796       -2.6842037024       80.5602818744  LPSA3     22             15.0000000000
      2991        94  BGLCNA    H2              9.3641345839       -3.8211753831       80.4633107900  LPSA3     22             15.0000000000
      2992        94  BGLCNA    N               7.8557721076       -2.3052793136       80.7025670875  LPSA3     22             15.0000000000
      2993        94  BGLCNA    HN              7.6338443365       -1.3879732051       80.4501896382  LPSA3     22             15.0000000000
      2994        94  BGLCNA    C               6.9435175512       -3.0190867086       81.3295640408  LPSA3     22             15.0000000000
      2995        94  BGLCNA    O               7.2252630489       -4.1165100781       81.8448112003  LPSA3     22             15.0000000000
      2996        94  BGLCNA    CT              5.5744296255       -2.4485040576       81.4359073222  LPSA3     22             15.0000000000
      2997        94  BGLCNA    HT1             5.1046355350       -2.8266242229       80.5353412834  LPSA3     22             15.0000000000
      2998        94  BGLCNA    HT2             5.6602138968       -1.3493855886       81.2752873926  LPSA3     22             15.0000000000
      2999        94  BGLCNA    HT3             5.0713251243       -2.5982502049       82.3679651303  LPSA3     22             15.0000000000
      3000        94  BGLCNA    C3             10.1159129673       -2.1731986317       81.6855161512  LPSA3     22             15.0000000000
      3001        94  BGLCNA    H3             10.1135064657       -1.0550833457       81.6419517197  LPSA3     22             15.0000000000
      3002        94  BGLCNA    O3              9.4800013088       -2.5897368709       82.8729300216  LPSA3     22             15.0000000000
      3003        94  BGLCNA    C4             11.5735324579       -2.5925770760       81.4704242134  LPSA3     22             15.0000000000
      3004        94  BGLCNA    H4             11.5613631292       -3.6492315490       81.4144045074  LPSA3     22             15.0000000000
      3005        94  BGLCNA    O4             12.4262867800       -2.1763334487       82.5140850489  LPSA3     22             15.0000000000
      3006        94  BGLCNA    HO4            13.0525684376       -2.8935762588       82.7130071916  LPSA3     22             15.0000000000
      3007        94  BGLCNA    C6             13.3888674138       -2.4059586025       79.7284495560  LPSA3     22             15.0000000000
      3008        94  BGLCNA    H61            13.9654326252       -2.2843258821       80.6924177192  LPSA3     22             15.0000000000
      3009        94  BGLCNA    H62            13.4559527682       -3.4827917720       79.4648784538  LPSA3     22             15.0000000000
      3010        94  BGLCNA    O6             13.9943757390       -1.5602564778       78.8100863794  LPSA3     22             15.0000000000
      3011        94  BGLCNA    HO6            13.4599852432       -1.5341942815       78.0328486455  LPSA3     22             15.0000000000
      3012        95  AGAL      C1              9.7604745855       -1.9466396353       84.0628261254  LPSA3     23             16.0000000000
      3013        95  AGAL      H1             10.7449333149       -2.2569748693       84.5106287163  LPSA3     23             16.0000000000
      3014        95  AGAL      C5              8.4597063390        0.0246274896       83.7583018441  LPSA3     23             16.0000000000
      3015        95  AGAL      H5              8.0057631482       -0.4985073147       82.8366412438  LPSA3     23             16.0000000000
      3016        95  AGAL      O5              9.7386119713       -0.5170577173       83.9976212264  LPSA3     23             16.0000000000
      3017        95  AGAL      C2              8.7839523857       -2.3738703653       85.1427633740  LPSA3     23             16.0000000000
      3018        95  AGAL      H2              9.0949818068       -1.8338367481       86.0076373284  LPSA3     23             16.0000000000
      3019        95  AGAL      O2              8.8802966779       -3.7318617286       85.5000844886  LPSA3     23             16.0000000000
      3020        95  AGAL      C3              7.4024569897       -1.8633254617       84.9194901020  LPSA3     23             16.0000000000
      3021        95  AGAL      H3              7.1358753669       -2.1788301407       83.8641570193  LPSA3     23             16.0000000000
      3022        95  AGAL      O3              6.4120504677       -2.4083821424       85.7108298168  LPSA3     23             16.0000000000
      3023        95  AGAL      HO3             6.7856872540       -2.3807069024       86.6206525111  LPSA3     23             16.0000000000
      3024        95  AGAL      C4              7.4728395442       -0.3658144657       84.8901212015  LPSA3     23             16.0000000000
      3025        95  AGAL      H4              6.4929304570        0.1060720696       84.6506069022  LPSA3     23             16.0000000000
      3026        95  AGAL      O4              7.8086446731        0.2713671220       86.1132943683  LPSA3     23             16.0000000000
      3027        95  AGAL      HO4             8.2898920484        0.9808073351       85.8278371007  LPSA3     23             16.0000000000
      3028        95  AGAL      C6              8.5524948750        1.4640917229       83.3278962909  LPSA3     23             16.0000000000
      3029        95  AGAL      H61             9.3201959252        1.5724268955       82.6074235255  LPSA3     23             16.0000000000
      3030        95  AGAL      H62             7.6756972950        1.7920997881       82.7620574208  LPSA3     23             16.0000000000
      3031        95  AGAL      O6              8.8970581410        2.2732567938       84.3845202183  LPSA3     23             16.0000000000
      3032        95  AGAL      HO6             9.0139272735        3.1878131639       84.1740981585  LPSA3     23             16.0000000000
      3033        96  ARHM      C1              9.9215253971       -4.2879564762       86.2818185944  LPSA3     24             17.0000000000
      3034        96  ARHM      H1             10.6913569463       -3.5456054467       86.3680542693  LPSA3     24             17.0000000000
      3035        96  ARHM      C5              9.6963132211       -6.5843225578       85.6157638072  LPSA3     24             17.0000000000
      3036        96  ARHM      H5              8.8678226612       -6.2898770672       85.0070975499  LPSA3     24             17.0000000000
      3037        96  ARHM      O5             10.6133581172       -5.5232919938       85.8657410059  LPSA3     24             17.0000000000
      3038        96  ARHM      C2              9.2475105559       -4.5255912765       87.5921581840  LPSA3     24             17.0000000000
      3039        96  ARHM      H2              8.6491203472       -3.6877879610       87.8984046741  LPSA3     24             17.0000000000
      3040        96  ARHM      O2             10.1668033227       -4.9711067299       88.6075763533  LPSA3     24             17.0000000000
      3041        96  ARHM      C3              8.2736757570       -5.7002383264       87.4133527752  LPSA3     24             17.0000000000
      3042        96  ARHM      H3              7.5517284661       -5.3598746765       86.6640279609  LPSA3     24             17.0000000000
      3043        96  ARHM      O3              7.4224569595       -5.9548584456       88.5620392964  LPSA3     24             17.0000000000
      3044        96  ARHM      HO3             7.9364566863       -6.5528702416       89.1463757531  LPSA3     24             17.0000000000
      3045        96  ARHM      C4              8.9906878247       -6.9576816562       86.9402325015  LPSA3     24             17.0000000000
      3046        96  ARHM      H4              9.8335356120       -7.1868534179       87.7071552895  LPSA3     24             17.0000000000
      3047        96  ARHM      O4              8.1710996889       -8.1019015473       86.8379508285  LPSA3     24             17.0000000000
      3048        96  ARHM      HO4             8.6106636739       -8.9162633374       87.0219124236  LPSA3     24             17.0000000000
      3049        96  ARHM      C6             10.3714910870       -7.8359243282       84.9175891319  LPSA3     24             17.0000000000
      3050        96  ARHM      H61             9.6015603432       -8.3922568121       84.3853494017  LPSA3     24             17.0000000000
      3051        96  ARHM      H62            11.0820948381       -7.4361447860       84.2649634992  LPSA3     24             17.0000000000
      3052        96  ARHM      H63            10.9656663444       -8.4401651041       85.6811466487  LPSA3     24             17.0000000000
      3053        97  ARHM      C1             10.8827770372       -3.8714751261       89.1588742089  LPSA3     25             18.0000000000
      3054        97  ARHM      H1             10.8770922556       -3.0614279562       88.4722246341  LPSA3     25             18.0000000000
      3055        97  ARHM      C5             12.5978974382       -5.2002348710       90.1670531641  LPSA3     25             18.0000000000
      3056        97  ARHM      H5             12.1653609350       -6.1234615028       89.8870230824  LPSA3     25             18.0000000000
      3057        97  ARHM      O5             12.2966283586       -4.1417867657       89.2315309535  LPSA3     25             18.0000000000
      3058        97  ARHM      C2             10.2945171604       -3.5199522673       90.4685713243  LPSA3     25             18.0000000000
      3059        97  ARHM      H2              9.1622454327       -3.4441011331       90.3413143991  LPSA3     25             18.0000000000
      3060        97  ARHM      O2             10.8468138484       -2.2493461749       90.9328696740  LPSA3     25             18.0000000000
      3061        97  ARHM      C3             10.6854447356       -4.6668212517       91.4562257518  LPSA3     25             18.0000000000
      3062        97  ARHM      H3             10.2061206165       -5.6004839999       91.0689171631  LPSA3     25             18.0000000000
      3063        97  ARHM      O3             10.0898819899       -4.3307477148       92.6920647463  LPSA3     25             18.0000000000
      3064        97  ARHM      C4             12.0942463934       -4.8798877673       91.5960769721  LPSA3     25             18.0000000000
      3065        97  ARHM      H4             12.6584986860       -3.8996354750       91.8876801091  LPSA3     25             18.0000000000
      3066        97  ARHM      O4             12.2651757953       -5.8941311891       92.5862492282  LPSA3     25             18.0000000000
      3067        97  ARHM      HO4            13.0621202170       -5.6392578434       93.0149361445  LPSA3     25             18.0000000000
      3068        97  ARHM      C6             14.0917907182       -5.5182537812       90.2083352735  LPSA3     25             18.0000000000
      3069        97  ARHM      H61            14.5173581085       -5.6592361588       89.1912344565  LPSA3     25             18.0000000000
      3070        97  ARHM      H62            14.7102365428       -4.7009372416       90.6686969550  LPSA3     25             18.0000000000
      3071        97  ARHM      H63            14.3421637977       -6.4640610655       90.8233913566  LPSA3     25             18.0000000000
      3072        98  BMANNA    C1             10.2810733466       -1.1185199931       90.3138108879  LPSA3     26             19.0000000000
      3073        98  BMANNA    H1              9.2830455486       -1.3521112241       89.8388342826  LPSA3     26             19.0000000000
      3074        98  BMANNA    C5             10.3772078470        0.5714752264       88.6312665858  LPSA3     26             19.0000000000
      3075        98  BMANNA    H5              9.4688150702        0.1747547837       88.1771240033  LPSA3     26             19.0000000000
      3076        98  BMANNA    O5             11.0605525426       -0.5346406303       89.2346891933  LPSA3     26             19.0000000000
      3077        98  BMANNA    C2             10.0707018370       -0.1245323740       91.3475147821  LPSA3     26             19.0000000000
      3078        98  BMANNA    H2              9.3987246427       -0.6421291323       92.1081287357  LPSA3     26             19.0000000000
      3079        98  BMANNA    N              11.3854199109        0.2352728135       91.9238920796  LPSA3     26             19.0000000000
      3080        98  BMANNA    HN             12.0470488713        0.5503065178       91.3050515894  LPSA3     26             19.0000000000
      3081        98  BMANNA    C              11.6696295879        0.2471974558       93.1798471680  LPSA3     26             19.0000000000
      3082        98  BMANNA    O              10.8742666889       -0.2436983348       94.0003587425  LPSA3     26             19.0000000000
      3083        98  BMANNA    CT             12.9682723365        0.8817567996       93.6758917343  LPSA3     26             19.0000000000
      3084        98  BMANNA    HT1            13.6331305282        0.8923715824       92.8666282051  LPSA3     26             19.0000000000
      3085        98  BMANNA    HT2            13.4556603912        0.5926552769       94.6620984389  LPSA3     26             19.0000000000
      3086        98  BMANNA    HT3            12.7158251952        1.9349627182       93.8484898219  LPSA3     26             19.0000000000
      3087        98  BMANNA    C3              9.3064827465        1.0393261650       90.7100883268  LPSA3     26             19.0000000000
      3088        98  BMANNA    H3              8.3290261188        0.6422091979       90.3384445889  LPSA3     26             19.0000000000
      3089        98  BMANNA    O3              8.9831568974        1.9867173831       91.7636866611  LPSA3     26             19.0000000000
      3090        98  BMANNA    HO3             8.2822072349        1.5433988884       92.2265744207  LPSA3     26             19.0000000000
      3091        98  BMANNA    C4             10.0918718350        1.5809238612       89.6481622736  LPSA3     26             19.0000000000
      3092        98  BMANNA    H4             11.1096492164        1.9971031540       89.9013799111  LPSA3     26             19.0000000000
      3093        98  BMANNA    O4              9.4429809198        2.6896153606       89.0416847738  LPSA3     26             19.0000000000
      3094        98  BMANNA    HO4             9.6354838858        3.4703450895       89.5591157304  LPSA3     26             19.0000000000
      3095        98  BMANNA    C6             11.2462392790        0.9366238482       87.3900617492  LPSA3     26             19.0000000000
      3096        98  BMANNA    H61            11.6881373554        0.0407099983       86.9191763972  LPSA3     26             19.0000000000
      3097        98  BMANNA    H62            10.6865339104        1.4472943829       86.6504270337  LPSA3     26             19.0000000000
      3098        98  BMANNA    O6             12.3214707909        1.8039431906       87.7329108337  LPSA3     26             19.0000000000
      3099        98  BMANNA    HO6            11.9895108525        2.5612205623       88.1688153196  LPSA3     26             19.0000000000
      3100        99  BGLCNA    C1              9.3958339690       -5.1974804834       93.4616184899  LPSA3     27             19.0000000000
      3101        99  BGLCNA    H1              9.8533609690       -6.1816305072       93.4392217979  LPSA3     27             19.0000000000
      3102        99  BGLCNA    C5              7.3842664460       -6.3556803795       93.9656603721  LPSA3     27             19.0000000000
      3103        99  BGLCNA    H5              7.9985450348       -7.2923561492       93.9564344452  LPSA3     27             19.0000000000
      3104        99  BGLCNA    O5              8.0346940634       -5.4529511134       93.0607755266  LPSA3     27             19.0000000000
      3105        99  BGLCNA    C2              9.4520125763       -4.6270289008       94.8806799918  LPSA3     27             19.0000000000
      3106        99  BGLCNA    H2              8.8690742048       -3.6897439275       94.8757458582  LPSA3     27             19.0000000000
      3107        99  BGLCNA    N              10.8236813245       -4.3316816402       95.2501113516  LPSA3     27             19.0000000000
      3108        99  BGLCNA    HN             11.5206800902       -5.1045567996       95.0827132934  LPSA3     27             19.0000000000
      3109        99  BGLCNA    C              11.0208732177       -3.1469734979       95.9523160909  LPSA3     27             19.0000000000
      3110        99  BGLCNA    O              10.1192482224       -2.4619311609       96.5238801166  LPSA3     27             19.0000000000
      3111        99  BGLCNA    CT             12.5144007876       -2.7024602777       96.0293745529  LPSA3     27             19.0000000000
      3112        99  BGLCNA    HT1            13.1527655170       -3.3446593517       95.3635606282  LPSA3     27             19.0000000000
      3113        99  BGLCNA    HT2            12.9156098218       -2.6460026871       97.0167906789  LPSA3     27             19.0000000000
      3114        99  BGLCNA    HT3            12.5398519051       -1.5896072970       95.7039804309  LPSA3     27             19.0000000000
      3115        99  BGLCNA    C3              8.7787059130       -5.5689802905       95.7540348103  LPSA3     27             19.0000000000
      3116        99  BGLCNA    H3              9.2618398939       -6.5775736909       95.7401190096  LPSA3     27             19.0000000000
      3117        99  BGLCNA    O3              8.9248067008       -4.9503527459       97.0775356047  LPSA3     27             19.0000000000
      3118        99  BGLCNA    C4              7.3129492718       -5.8190383199       95.3486864533  LPSA3     27             19.0000000000
      3119        99  BGLCNA    H4              6.7697798178       -4.8468502921       95.3090014479  LPSA3     27             19.0000000000
      3120        99  BGLCNA    O4              6.6844717339       -6.6899840402       96.2156872787  LPSA3     27             19.0000000000
      3121        99  BGLCNA    HO4             7.0821344755       -7.5137628271       96.0162444362  LPSA3     27             19.0000000000
      3122        99  BGLCNA    C6              6.0209312423       -6.7204642589       93.2852949846  LPSA3     27             19.0000000000
      3123        99  BGLCNA    H61             5.6387483369       -7.5721074917       93.8557506920  LPSA3     27             19.0000000000
      3124        99  BGLCNA    H62             5.2793049171       -5.9085181826       93.4725180191  LPSA3     27             19.0000000000
      3125        99  BGLCNA    O6              6.1881135128       -7.0110479828       91.9076175409  LPSA3     27             19.0000000000
      3126        99  BGLCNA    HO6             5.3036420011       -7.2061785929       91.5273290588  LPSA3     27             19.0000000000
      3127       100  AGAL      C1              8.7052290265       -5.7528799810       98.2622020222  LPSA3     28             20.0000000000
      3128       100  AGAL      H1              7.6758975969       -5.9882414912       98.3007149491  LPSA3     28             20.0000000000
      3129       100  AGAL      C5             10.8474966662       -6.8845427637       98.1710438288  LPSA3     28             20.0000000000
      3130       100  AGAL      H5             11.2304088232       -6.0027395684       97.4646141937  LPSA3     28             20.0000000000
      3131       100  AGAL      O5              9.3675188789       -7.0070391025       98.1147365872  LPSA3     28             20.0000000000
      3132       100  AGAL      C2              9.1455718677       -5.1778937979       99.6197190629  LPSA3     28             20.0000000000
      3133       100  AGAL      H2              8.8643060073       -5.9819514700      100.2965066153  LPSA3     28             20.0000000000
      3134       100  AGAL      O2              8.4626605818       -4.0212774190      100.0788731798  LPSA3     28             20.0000000000
      3135       100  AGAL      C3             10.6305221843       -5.0371450146       99.7396972452  LPSA3     28             20.0000000000
      3136       100  AGAL      H3             10.9843313324       -4.4117098828       98.8607737785  LPSA3     28             20.0000000000
      3137       100  AGAL      O3             11.1823987319       -4.3926285820      100.9043404272  LPSA3     28             20.0000000000
      3138       100  AGAL      HO3            11.6280820687       -3.5940559943      100.5606486229  LPSA3     28             20.0000000000
      3139       100  AGAL      C4             11.2570513444       -6.3540092819       99.5102226768  LPSA3     28             20.0000000000
      3140       100  AGAL      H4             12.3111544211       -6.2131474609       99.4798298294  LPSA3     28             20.0000000000
      3141       100  AGAL      O4             10.9396715785       -7.3049944153      100.4757933835  LPSA3     28             20.0000000000
      3142       100  AGAL      HO4            11.6791587223       -7.3534492430      101.0376442747  LPSA3     28             20.0000000000
      3143       100  AGAL      C6             11.6104282507       -8.0996918309       97.6362902244  LPSA3     28             20.0000000000
      3144       100  AGAL      H61            11.3790181610       -8.2285754887       96.5809275898  LPSA3     28             20.0000000000
      3145       100  AGAL      H62            12.7543483626       -8.0933505109       97.7651048223  LPSA3     28             20.0000000000
      3146       100  AGAL      O6             11.2159019485       -9.2557868152       98.3456070822  LPSA3     28             20.0000000000
      3147       100  AGAL      HO6            10.4381385173       -9.6428447602       97.9416813930  LPSA3     28             20.0000000000
      3148       101  ARHM      C1              8.1459500810       -4.1890607582      101.4808913342  LPSA3     29             21.0000000000
      3149       101  ARHM      H1              8.8987237992       -4.8690750127      101.9964955809  LPSA3     29             21.0000000000
      3150       101  ARHM      C5              5.8374482779       -3.9173480174      101.1486206043  LPSA3     29             21.0000000000
      3151       101  ARHM      H5              6.1228769886       -3.7341064950      100.0935446791  LPSA3     29             21.0000000000
      3152       101  ARHM      O5              6.8615666797       -4.7070041281      101.6833506475  LPSA3     29             21.0000000000
      3153       101  ARHM      C2              8.3048627007       -2.8934240147      102.1437305515  LPSA3     29             21.0000000000
      3154       101  ARHM      H2              9.2449506316       -2.4389570172      101.9067628034  LPSA3     29             21.0000000000
      3155       101  ARHM      O2              8.2090526107       -3.0001124354      103.5748524404  LPSA3     29             21.0000000000
      3156       101  ARHM      C3              7.2233970307       -1.9864849326      101.6289418068  LPSA3     29             21.0000000000
      3157       101  ARHM      H3              7.4034271038       -1.7921514314      100.4952263366  LPSA3     29             21.0000000000
      3158       101  ARHM      O3              7.4049340264       -0.7189936280      102.1995749427  LPSA3     29             21.0000000000
      3159       101  ARHM      HO3             6.5917426327       -0.3416902167      102.2092645043  LPSA3     29             21.0000000000
      3160       101  ARHM      C4              5.8683192674       -2.5089518547      101.8247918557  LPSA3     29             21.0000000000
      3161       101  ARHM      H4              5.6103948912       -2.6106696167      102.9338171738  LPSA3     29             21.0000000000
      3162       101  ARHM      O4              4.7669261702       -1.7047103681      101.3452167393  LPSA3     29             21.0000000000
      3163       101  ARHM      HO4             4.9170142334       -1.3046024935      100.4362974805  LPSA3     29             21.0000000000
      3164       101  ARHM      C6              4.5478758606       -4.7545101406      101.2162231226  LPSA3     29             21.0000000000
      3165       101  ARHM      H61             4.8777827109       -5.7609768851      100.7685423143  LPSA3     29             21.0000000000
      3166       101  ARHM      H62             4.2787636401       -4.9149394344      102.3013153741  LPSA3     29             21.0000000000
      3167       101  ARHM      H63             3.7790736214       -4.2667323445      100.6072571094  LPSA3     29             21.0000000000
      3168       102  ARHM      C1              9.3318226414       -3.0763994793      104.3945976075  LPSA3     30             22.0000000000
      3169       102  ARHM      H1              9.9658703099       -2.1816190552      104.2094096401  LPSA3     30             22.0000000000
      3170       102  ARHM      C5              9.3517539181       -5.5072595800      104.5143062533  LPSA3     30             22.0000000000
      3171       102  ARHM      H5              8.4041536826       -5.3575952482      103.8668162917  LPSA3     30             22.0000000000
      3172       102  ARHM      O5             10.0884565145       -4.2908054214      104.2052433351  LPSA3     30             22.0000000000
      3173       102  ARHM      C2              8.8933185272       -3.0296568217      105.8471183130  LPSA3     30             22.0000000000
      3174       102  ARHM      H2              8.3264500897       -2.1754230373      106.0289718167  LPSA3     30             22.0000000000
      3175       102  ARHM      O2             10.0680793513       -3.1009857022      106.5813641610  LPSA3     30             22.0000000000
      3176       102  ARHM      C3              8.1587202596       -4.2338476432      106.2079894766  LPSA3     30             22.0000000000
      3177       102  ARHM      H3              7.3611898129       -4.3599870743      105.5270001340  LPSA3     30             22.0000000000
      3178       102  ARHM      O3              7.5684318657       -4.1844295351      107.5373891676  LPSA3     30             22.0000000000
      3179       102  ARHM      C4              8.9741916670       -5.5092541057      105.9708288384  LPSA3     30             22.0000000000
      3180       102  ARHM      H4              9.9057191379       -5.5334365428      106.5400372406  LPSA3     30             22.0000000000
      3181       102  ARHM      O4              8.3617186594       -6.6762540104      106.2997755749  LPSA3     30             22.0000000000
      3182       102  ARHM      HO4             7.7165332838       -7.0670890508      105.6964454668  LPSA3     30             22.0000000000
      3183       102  ARHM      C6             10.1443864919       -6.7153446966      104.0930490251  LPSA3     30             22.0000000000
      3184       102  ARHM      H61             9.4694134983       -7.6077781784      104.2143179997  LPSA3     30             22.0000000000
      3185       102  ARHM      H62            10.2942208609       -6.6778229594      103.0019050467  LPSA3     30             22.0000000000
      3186       102  ARHM      H63            11.1272066035       -6.8381499870      104.6493652223  LPSA3     30             22.0000000000
      3187       103  BMANNA    C1             10.6433857212       -1.8672985909      106.9502319096  LPSA3     31             23.0000000000
      3188       103  BMANNA    H1              9.8129320796       -1.1550135104      107.1550799008  LPSA3     31             23.0000000000
      3189       103  BMANNA    C5             12.0121498909        0.0021675207      106.2136717625  LPSA3     31             23.0000000000
      3190       103  BMANNA    H5             11.1498263266        0.5969344552      106.5467054000  LPSA3     31             23.0000000000
      3191       103  BMANNA    O5             11.4692944717       -1.3072660768      105.8742289322  LPSA3     31             23.0000000000
      3192       103  BMANNA    C2             11.4972833086       -2.0481997282      108.0830629221  LPSA3     31             23.0000000000
      3193       103  BMANNA    H2             10.8233817072       -2.3616933530      108.9031915743  LPSA3     31             23.0000000000
      3194       103  BMANNA    N              12.4019037752       -3.1147675568      107.8252935315  LPSA3     31             23.0000000000
      3195       103  BMANNA    HN             12.6267296519       -3.3125750706      106.8111160773  LPSA3     31             23.0000000000
      3196       103  BMANNA    C              12.9198635901       -3.8833536913      108.7868858964  LPSA3     31             23.0000000000
      3197       103  BMANNA    O              12.5897658811       -3.7688260052      109.9536662434  LPSA3     31             23.0000000000
      3198       103  BMANNA    CT             13.9431781204       -4.9316112989      108.3237946568  LPSA3     31             23.0000000000
      3199       103  BMANNA    HT1            14.5485289109       -4.4896199588      107.5739831696  LPSA3     31             23.0000000000
      3200       103  BMANNA    HT2            13.3851300817       -5.7901514287      107.9347099034  LPSA3     31             23.0000000000
      3201       103  BMANNA    HT3            14.5040941050       -5.3447870707      109.1768357935  LPSA3     31             23.0000000000
      3202       103  BMANNA    C3             12.0719226051       -0.7304231335      108.4884560283  LPSA3     31             23.0000000000
      3203       103  BMANNA    H3             11.2500426321        0.0514251676      108.6988550870  LPSA3     31             23.0000000000
      3204       103  BMANNA    O3             12.7538351051       -0.8107422778      109.7404994872  LPSA3     31             23.0000000000
      3205       103  BMANNA    HO3            12.3560601249       -1.6175320640      110.0111610137  LPSA3     31             23.0000000000
      3206       103  BMANNA    C4             12.9345715278       -0.1901361807      107.4199857710  LPSA3     31             23.0000000000
      3207       103  BMANNA    H4             13.8339713300       -0.8801377849      107.0572414185  LPSA3     31             23.0000000000
      3208       103  BMANNA    O4             13.5343598796        1.0221738190      107.8525671122  LPSA3     31             23.0000000000
      3209       103  BMANNA    HO4            12.8726270210        1.6643910462      108.1943429300  LPSA3     31             23.0000000000
      3210       103  BMANNA    C6             12.7685984581        0.6658641577      105.0512686782  LPSA3     31             23.0000000000
      3211       103  BMANNA    H61            12.9675069694        1.7747273102      105.3397811046  LPSA3     31             23.0000000000
      3212       103  BMANNA    H62            13.7398676993        0.2146759575      104.8698551944  LPSA3     31             23.0000000000
      3213       103  BMANNA    O6             12.0143802653        0.6202592424      103.8241467834  LPSA3     31             23.0000000000
      3214       103  BMANNA    HO6            11.2155507289        1.2203520030      103.8134147631  LPSA3     31             23.0000000000
      3215       104  BGLCNA    C1              8.4004314421       -4.4766373210      108.6103969990  LPSA3     32             23.0000000000
      3216       104  BGLCNA    H1              9.4593379313       -4.1042983174      108.4325564695  LPSA3     32             23.0000000000
      3217       104  BGLCNA    C5              9.4762784518       -6.1943839281      109.9277617404  LPSA3     32             23.0000000000
      3218       104  BGLCNA    H5             10.4643039630       -5.7542538531      109.5374749077  LPSA3     32             23.0000000000
      3219       104  BGLCNA    O5              8.4945955134       -5.8625647604      108.9423333575  LPSA3     32             23.0000000000
      3220       104  BGLCNA    C2              7.9623940052       -3.7726087337      109.8194522937  LPSA3     32             23.0000000000
      3221       104  BGLCNA    H2              7.0661449798       -4.2707027675      110.1044894257  LPSA3     32             23.0000000000
      3222       104  BGLCNA    N               7.7150382457       -2.3887304471      109.5956973249  LPSA3     32             23.0000000000
      3223       104  BGLCNA    HN              8.3593255684       -2.0490503202      108.8809076996  LPSA3     32             23.0000000000
      3224       104  BGLCNA    C               6.7358680784       -1.5956543269      110.0864625708  LPSA3     32             23.0000000000
      3225       104  BGLCNA    O               5.9307805791       -1.9896214491      110.9304085025  LPSA3     32             23.0000000000
      3226       104  BGLCNA    CT              6.6910144302       -0.1355387173      109.5841031968  LPSA3     32             23.0000000000
      3227       104  BGLCNA    HT1             7.3612958848       -0.2349387250      108.6281101354  LPSA3     32             23.0000000000
      3228       104  BGLCNA    HT2             7.1683374812        0.5930475837      110.1898124037  LPSA3     32             23.0000000000
      3229       104  BGLCNA    HT3             5.6594012693        0.1964667456      109.3122359934  LPSA3     32             23.0000000000
      3230       104  BGLCNA    C3              8.9870134784       -3.9901222833      110.8930231790  LPSA3     32             23.0000000000
      3231       104  BGLCNA    H3              9.9064263034       -3.7161418148      110.4606187373  LPSA3     32             23.0000000000
      3232       104  BGLCNA    O3              8.7990324834       -3.1812454410      112.0657798240  LPSA3     32             23.0000000000
      3233       104  BGLCNA    C4              9.0335285560       -5.4678202949      111.1707572500  LPSA3     32             23.0000000000
      3234       104  BGLCNA    H4              8.0125128040       -5.7686314813      111.5318289610  LPSA3     32             23.0000000000
      3235       104  BGLCNA    O4              9.9296311486       -5.7719589602      112.2070236435  LPSA3     32             23.0000000000
      3236       104  BGLCNA    HO4             9.5001465156       -5.7715082536      113.0745323218  LPSA3     32             23.0000000000
      3237       104  BGLCNA    C6              9.6243962191       -7.6985503267      110.0229508171  LPSA3     32             23.0000000000
      3238       104  BGLCNA    H61            10.4936841165       -7.9928435565      110.7194343748  LPSA3     32             23.0000000000
      3239       104  BGLCNA    H62             8.6983774889       -8.1358964773      110.5717638480  LPSA3     32             23.0000000000
      3240       104  BGLCNA    O6              9.8973493539       -8.2937289455      108.7709294272  LPSA3     32             23.0000000000
      3241       104  BGLCNA    HO6            10.4822237462       -7.6986146512      108.2360311317  LPSA3     32             23.0000000000
      3242       105  AGAL      C1             10.0254021445       -2.7080213483      112.6842874521  LPSA3     33             24.0000000000
      3243       105  AGAL      H1             10.7477997452       -3.5233906051      112.5979959475  LPSA3     33             24.0000000000
      3244       105  AGAL      C5              9.6217804537       -0.4168287774      112.2149219831  LPSA3     33             24.0000000000
      3245       105  AGAL      H5              8.6506995094       -0.8223573249      111.8792915250  LPSA3     33             24.0000000000
      3246       105  AGAL      O5             10.5380466977       -1.4824795481      112.0726784748  LPSA3     33             24.0000000000
      3247       105  AGAL      C2              9.7052883191       -2.4142125800      114.1482787662  LPSA3     33             24.0000000000
      3248       105  AGAL      H2             10.6739175905       -1.9444178596      114.5751854976  LPSA3     33             24.0000000000
      3249       105  AGAL      O2              9.5760468204       -3.6372057259      114.8486222260  LPSA3     33             24.0000000000
      3250       105  AGAL      C3              8.7494404762       -1.2563620106      114.2945545625  LPSA3     33             24.0000000000
      3251       105  AGAL      H3              7.7734423092       -1.4755037543      113.7405815065  LPSA3     33             24.0000000000
      3252       105  AGAL      O3              8.2867810904       -1.0649531852      115.5672660328  LPSA3     33             24.0000000000
      3253       105  AGAL      HO3             8.9298647405       -0.9874382530      116.2400186851  LPSA3     33             24.0000000000
      3254       105  AGAL      C4              9.3236900545       -0.0052858899      113.6708488317  LPSA3     33             24.0000000000
      3255       105  AGAL      H4              8.5930364996        0.8126347835      113.6729875792  LPSA3     33             24.0000000000
      3256       105  AGAL      O4             10.5273325120        0.5557885941      114.2435538900  LPSA3     33             24.0000000000
      3257       105  AGAL      HO4            10.9173544636        0.0007604944      114.9085525172  LPSA3     33             24.0000000000
      3258       105  AGAL      C6              9.9492649684        0.7387631185      111.2992528405  LPSA3     33             24.0000000000
      3259       105  AGAL      H61             9.8647062795        0.3142541000      110.2783408757  LPSA3     33             24.0000000000
      3260       105  AGAL      H62             9.2787615553        1.6176252475      111.3458027743  LPSA3     33             24.0000000000
      3261       105  AGAL      O6             11.2066022708        1.3278028895      111.4129476537  LPSA3     33             24.0000000000
      3262       105  AGAL      HO6            11.8955403649        0.8989900004      110.8444757795  LPSA3     33             24.0000000000
      3263       106  ARHM      C1             10.3346743854       -3.7287604452      116.0109133884  LPSA3     34             25.0000000000
      3264       106  ARHM      H1             10.2558660981       -2.8249222423      116.6389743656  LPSA3     34             25.0000000000
      3265       106  ARHM      C5             12.1182315177       -5.0656374678      115.0727799907  LPSA3     34             25.0000000000
      3266       106  ARHM      H5             11.6538923708       -4.9402445874      114.0209633333  LPSA3     34             25.0000000000
      3267       106  ARHM      O5             11.7623408658       -3.8959538130      115.8926868953  LPSA3     34             25.0000000000
      3268       106  ARHM      C2              9.7345790841       -4.8854066233      116.7601555753  LPSA3     34             25.0000000000
      3269       106  ARHM      H2              8.6163052194       -4.8713862595      116.8710959342  LPSA3     34             25.0000000000
      3270       106  ARHM      O2             10.2484398091       -5.0628789027      118.1592972339  LPSA3     34             25.0000000000
      3271       106  ARHM      C3             10.0581959522       -6.1627242502      115.9988665506  LPSA3     34             25.0000000000
      3272       106  ARHM      H3              9.6629506260       -6.1262330747      114.9724172480  LPSA3     34             25.0000000000
      3273       106  ARHM      O3              9.5633115667       -7.3898989399      116.5878695042  LPSA3     34             25.0000000000
      3274       106  ARHM      HO3             9.2443220017       -8.0264555230      115.9559434517  LPSA3     34             25.0000000000
      3275       106  ARHM      C4             11.5864556631       -6.3535395812      115.7987835878  LPSA3     34             25.0000000000
      3276       106  ARHM      H4             12.1428849036       -6.3091585890      116.7495315617  LPSA3     34             25.0000000000
      3277       106  ARHM      O4             11.9066596206       -7.5211144304      115.1362621200  LPSA3     34             25.0000000000
      3278       106  ARHM      HO4            11.8378992021       -8.2916510750      115.6953140327  LPSA3     34             25.0000000000
      3279       106  ARHM      C6             13.6688889318       -5.1620326631      114.8413279703  LPSA3     34             25.0000000000
      3280       106  ARHM      H61            14.2626676200       -5.3217703840      115.7172490283  LPSA3     34             25.0000000000
      3281       106  ARHM      H62            13.8668709959       -6.1545234147      114.3996926230  LPSA3     34             25.0000000000
      3282       106  ARHM      H63            14.1158720735       -4.4154763614      114.1590834060  LPSA3     34             25.0000000000
      3283       107  ARHM      C1             10.0763416173       -3.9655699103      119.0795908573  LPSA3     35             26.0000000000
      3284       107  ARHM      H1              9.0310607003       -3.4833207227      118.8787348947  LPSA3     35             26.0000000000
      3285       107  ARHM      C5             12.4465852603       -3.4581602220      119.2408916176  LPSA3     35             26.0000000000
      3286       107  ARHM      H5             12.7108219629       -4.3378423392      118.5254732223  LPSA3     35             26.0000000000
      3287       107  ARHM      O5             11.1112597151       -2.9043913388      118.9290334222  LPSA3     35             26.0000000000
      3288       107  ARHM      C2             10.0878923132       -4.4847170311      120.5365485050  LPSA3     35             26.0000000000
      3289       107  ARHM      H2              9.2360219943       -5.2011843395      120.7134209997  LPSA3     35             26.0000000000
      3290       107  ARHM      O2              9.8948473090       -3.4369369521      121.4126203716  LPSA3     35             26.0000000000
      3291       107  ARHM      C3             11.4539767798       -5.1241949014      120.8720061906  LPSA3     35             26.0000000000
      3292       107  ARHM      H3             11.5803188845       -5.9829907284      120.1344793452  LPSA3     35             26.0000000000
      3293       107  ARHM      O3             11.4477795081       -5.7169990876      122.1540075829  LPSA3     35             26.0000000000
      3294       107  ARHM      HO3            10.8836682603       -5.1951401646      122.7288731339  LPSA3     35             26.0000000000
      3295       107  ARHM      C4             12.5023006921       -4.0631257196      120.6788917534  LPSA3     35             26.0000000000
      3296       107  ARHM      H4             12.3619862311       -3.1571288852      121.3307119103  LPSA3     35             26.0000000000
      3297       107  ARHM      O4             13.7718115151       -4.6877806588      120.9693790153  LPSA3     35             26.0000000000
      3298       107  ARHM      HO4            13.8817217237       -5.5767554064      120.5581709812  LPSA3     35             26.0000000000
      3299       107  ARHM      C6             13.5463736531       -2.4066492425      118.8642347863  LPSA3     35             26.0000000000
      3300       107  ARHM      H61            13.5707707157       -2.2257139937      117.7433556958  LPSA3     35             26.0000000000
      3301       107  ARHM      H62            13.2250496825       -1.5378885955      119.4176110492  LPSA3     35             26.0000000000
      3302       107  ARHM      H63            14.5441123625       -2.8935938014      119.0633705917  LPSA3     35             26.0000000000
      3303       108  BMANNA    C1              8.6152273587       -2.8804167782      121.4471464502  LPSA3     36             27.0000000000
      3304       108  BMANNA    H1              7.8451455376       -3.6083973169      121.0972061898  LPSA3     36             27.0000000000
      3305       108  BMANNA    C5              6.9316668427       -1.2974621354      120.7299884793  LPSA3     36             27.0000000000
      3306       108  BMANNA    H5              6.3246846125       -2.1602562795      120.4610684421  LPSA3     36             27.0000000000
      3307       108  BMANNA    O5              8.3411577178       -1.6850814941      120.6641532654  LPSA3     36             27.0000000000
      3308       108  BMANNA    C2              8.2756310038       -2.5485780335      122.8920138725  LPSA3     36             27.0000000000
      3309       108  BMANNA    H2              8.3953573957       -3.4828018502      123.4719477421  LPSA3     36             27.0000000000
      3310       108  BMANNA    N               9.2148517747       -1.5701848788      123.4395449790  LPSA3     36             27.0000000000
      3311       108  BMANNA    HN              9.4955782198       -0.7882536845      122.8746519580  LPSA3     36             27.0000000000
      3312       108  BMANNA    C               9.4769035744       -1.5259050167      124.7737151700  LPSA3     36             27.0000000000
      3313       108  BMANNA    O               9.1152274732       -2.3507362177      125.6190347561  LPSA3     36             27.0000000000
      3314       108  BMANNA    CT             10.2321807216       -0.3642305689      125.3570716528  LPSA3     36             27.0000000000
      3315       108  BMANNA    HT1             9.9215994498        0.5705784356      124.8802869227  LPSA3     36             27.0000000000
      3316       108  BMANNA    HT2            11.3425457804       -0.4110355562      125.1731404614  LPSA3     36             27.0000000000
      3317       108  BMANNA    HT3            10.1852429178       -0.2565416131      126.4547536948  LPSA3     36             27.0000000000
      3318       108  BMANNA    C3              6.8402400524       -2.0968451587      122.9763638711  LPSA3     36             27.0000000000
      3319       108  BMANNA    H3              6.1658046712       -2.8947548258      122.6403873786  LPSA3     36             27.0000000000
      3320       108  BMANNA    O3              6.4339816596       -1.8174267494      124.3414054450  LPSA3     36             27.0000000000
      3321       108  BMANNA    HO3             5.7552924872       -2.3682315360      124.7171830083  LPSA3     36             27.0000000000
      3322       108  BMANNA    C4              6.5844069385       -0.9173790741      122.1146940524  LPSA3     36             27.0000000000
      3323       108  BMANNA    H4              7.1398893277       -0.0611449003      122.4263894750  LPSA3     36             27.0000000000
      3324       108  BMANNA    O4              5.2304782678       -0.4811389508      122.2172873890  LPSA3     36             27.0000000000
      3325       108  BMANNA    HO4             5.2174314451       -0.3502286715      123.1985163392  LPSA3     36             27.0000000000
      3326       108  BMANNA    C6              6.6828302903       -0.2301041512      119.7412642597  LPSA3     36             27.0000000000
      3327       108  BMANNA    H61             6.8770817647       -0.5781303129      118.6946701192  LPSA3     36             27.0000000000
      3328       108  BMANNA    H62             5.5949082303       -0.1168533137      119.7045442506  LPSA3     36             27.0000000000
      3329       108  BMANNA    O6              7.3611154066        1.0296998810      120.0914698020  LPSA3     36             27.0000000000
      3330       108  BMANNA    HO6             6.7395439555        1.5133643944      120.6476247167  LPSA3     36             27.0000000000
      3331       109  ECLIPA    HB6S           12.5360548513        8.1225146410       20.4612168218  LPSA4     1               0.0000000000
      3332       109  ECLIPA    OB6            11.5828630793        9.3810418769       21.7140249152  LPSA4     1               0.0000000000
      3333       109  ECLIPA    CB6            11.5248998016        8.3095578863       20.7042159014  LPSA4     1               0.0000000000
      3334       109  ECLIPA    HB6R           10.9364873523        7.4811519407       21.0541931349  LPSA4     1               0.0000000000
      3335       109  ECLIPA    CB5            10.7403625266        8.7537472861       19.3988764877  LPSA4     1               0.0000000000
      3336       109  ECLIPA    OB5            11.4202382709       10.0019568596       18.9716901872  LPSA4     1               0.0000000000
      3337       109  ECLIPA    HB5             9.7359967471        9.0215455932       19.7771798410  LPSA4     1               0.0000000000
      3338       109  ECLIPA    CB1            10.7963782034       10.5153592200       17.7717324898  LPSA4     1               0.0000000000
      3339       109  ECLIPA    HB1             9.7187682303       10.7584895932       17.9003641080  LPSA4     1               0.0000000000
      3340       109  ECLIPA    OA6            11.4686050202       11.6529962305       17.3217246577  LPSA4     1               0.0000000000
      3341       109  ECLIPA    CA6            12.8831402399       11.7908615134       17.5745106853  LPSA4     1               0.0000000000
      3342       109  ECLIPA    HA6R           13.3100776516       10.7782050110       17.7226451425  LPSA4     1               0.0000000000
      3343       109  ECLIPA    HA6S           13.0100301541       12.5335467936       18.4598965841  LPSA4     1               0.0000000000
      3344       109  ECLIPA    CB4            10.7489351002        7.6525024241       18.3206521937  LPSA4     1               0.0000000000
      3345       109  ECLIPA    HB4            11.7837560276        7.3984251551       18.0085584641  LPSA4     1               0.0000000000
      3346       109  ECLIPA    OB4             9.9074236734        6.6324262048       18.9017319965  LPSA4     1               0.0000000000
      3347       109  ECLIPA    PB             10.5523663324        5.2189144077       19.3234616795  LPSA4     1               0.0000000000
      3348       109  ECLIPA    OPB4            9.7793705745        4.7187109559       20.5579515876  LPSA4     1               0.0000000000
      3349       109  ECLIPA    OPB3           12.0018095901        5.6449269448       19.6614545037  LPSA4     1               0.0000000000
      3350       109  ECLIPA    OPB2           10.5156418549        4.3139988140       18.0829495795  LPSA4     1               0.0000000000
      3351       109  ECLIPA    CB3            10.0930083161        8.2598361469       17.0955893951  LPSA4     1               0.0000000000
      3352       109  ECLIPA    OB3            10.0793499380        7.4327882074       15.9186528231  LPSA4     1               0.0000000000
      3353       109  ECLIPA    HB3             9.0817355927        8.7133138202       17.3284540628  LPSA4     1               0.0000000000
      3354       109  ECLIPA    C71             9.0453504845        6.6932326633       15.6929469039  LPSA4     1               0.0000000000
      3355       109  ECLIPA    O71             8.0001412918        6.7212983228       16.3832172580  LPSA4     1               0.0000000000
      3356       109  ECLIPA    C72             9.2845164690        5.9457879367       14.3548430386  LPSA4     1               0.0000000000
      3357       109  ECLIPA    H72R            9.4658766735        6.6860538685       13.5774555414  LPSA4     1               0.0000000000
      3358       109  ECLIPA    H72S            8.3768995626        5.2363612084       14.1464415926  LPSA4     1               0.0000000000
      3359       109  ECLIPA    CB2            10.8828441954        9.5141745737       16.6720734084  LPSA4     1               0.0000000000
      3360       109  ECLIPA    HB2            12.0009067922        9.1579450773       16.5298168153  LPSA4     1               0.0000000000
      3361       109  ECLIPA    NB2            10.3362783818       10.1566349205       15.4577284722  LPSA4     1               0.0000000000
      3362       109  ECLIPA    HNB2            9.5840026396       10.7991877020       15.5965609326  LPSA4     1               0.0000000000
      3363       109  ECLIPA    CA4            12.7479204302       13.5432514020       15.7929312798  LPSA4     1               0.0000000000
      3364       109  ECLIPA    HA4            11.7298001918       13.1883997001       15.4903430209  LPSA4     1               0.0000000000
      3365       109  ECLIPA    OA4            12.6336708915       14.5014957836       16.8012065728  LPSA4     1               0.0000000000
      3366       109  ECLIPA    HOA4           12.3510908864       14.1428918760       17.5928838569  LPSA4     1               0.0000000000
      3367       109  ECLIPA    CA5            13.5067785672       12.4147036185       16.3547806008  LPSA4     1               0.0000000000
      3368       109  ECLIPA    HA5            14.6374353958       12.5896361326       16.5880746347  LPSA4     1               0.0000000000
      3369       109  ECLIPA    OA5            13.5281380903       11.3730919564       15.3689671688  LPSA4     1               0.0000000000
      3370       109  ECLIPA    CA1            14.1312990517       11.8335697292       14.1076640156  LPSA4     1               0.0000000000
      3371       109  ECLIPA    HA1            13.7549441201       11.0338113214       13.4118188108  LPSA4     1               0.0000000000
      3372       109  ECLIPA    OA1            15.5451170129       11.8202610192       14.1359876212  LPSA4     1               0.0000000000
      3373       109  ECLIPA    OPA2           16.9435920090       11.1238383101       15.9734101064  LPSA4     1               0.0000000000
      3374       109  ECLIPA    OPA3           15.4913180339        9.3678100901       14.8300177673  LPSA4     1               0.0000000000
      3375       109  ECLIPA    OPA4           17.4392766080       10.2918365232       13.6615320840  LPSA4     1               0.0000000000
      3376       109  ECLIPA    PA             16.3569794604       10.5839040091       14.6765383084  LPSA4     1               0.0000000000
      3377       109  ECLIPA    CA3            13.3582073451       14.1164102239       14.5219348229  LPSA4     1               0.0000000000
      3378       109  ECLIPA    HA3            14.4049082470       14.5672573941       14.7377032538  LPSA4     1               0.0000000000
      3379       109  ECLIPA    OA3            12.5770581313       15.2658542264       14.2498111976  LPSA4     1               0.0000000000
      3380       109  ECLIPA    C31            11.4461111332       15.0656949301       13.5006246295  LPSA4     1               0.0000000000
      3381       109  ECLIPA    O31            11.3953506364       14.9070576018       12.2941239937  LPSA4     1               0.0000000000
      3382       109  ECLIPA    C32            10.2338368206       15.5985447028       14.2780289507  LPSA4     1               0.0000000000
      3383       109  ECLIPA    H32R            9.8083837160       16.4506321565       13.7149713840  LPSA4     1               0.0000000000
      3384       109  ECLIPA    H32S           10.5395642418       15.9122936417       15.2729523512  LPSA4     1               0.0000000000
      3385       109  ECLIPA    CA2            13.3847425264       12.9974177557       13.4984733916  LPSA4     1               0.0000000000
      3386       109  ECLIPA    HA2            12.3618708247       12.6251819301       13.3982259915  LPSA4     1               0.0000000000
      3387       109  ECLIPA    NA2            13.9774058051       13.3938436841       12.2035087571  LPSA4     1               0.0000000000
      3388       109  ECLIPA    HNA2           14.1444842319       14.3429303428       12.0865030408  LPSA4     1               0.0000000000
      3389       109  ECLIPA    C73            10.4784101729        5.0267948525       14.3319064372  LPSA4     1               0.0000000000
      3390       109  ECLIPA    H73R           10.5583879724        4.4148970581       15.2227416964  LPSA4     1               0.0000000000
      3391       109  ECLIPA    O73            11.6498471084        5.8774193850       14.2644256719  LPSA4     1               0.0000000000
      3392       109  ECLIPA    C81            12.8243141490        5.6014816457       14.8555734565  LPSA4     1               0.0000000000
      3393       109  ECLIPA    O81            12.8854539522        4.6267669080       15.6690894779  LPSA4     1               0.0000000000
      3394       109  ECLIPA    C82            13.9508174575        6.5260118720       14.3536111794  LPSA4     1               0.0000000000
      3395       109  ECLIPA    H82R           14.8914820028        6.3172389889       14.8531840528  LPSA4     1               0.0000000000
      3396       109  ECLIPA    H82S           13.7086200700        7.5988901553       14.5323473422  LPSA4     1               0.0000000000
      3397       109  ECLIPA    C83            14.1316903372        6.3544354020       12.8301722806  LPSA4     1               0.0000000000
      3398       109  ECLIPA    H83R           13.3579854384        6.9708273536       12.2351841548  LPSA4     1               0.0000000000
      3399       109  ECLIPA    H83S           13.8591726931        5.3249557621       12.5911296392  LPSA4     1               0.0000000000
      3400       109  ECLIPA    C84            15.4974903901        6.8423038514       12.3050927261  LPSA4     1               0.0000000000
      3401       109  ECLIPA    H84R           16.2568133686        6.0987615992       12.5767117503  LPSA4     1               0.0000000000
      3402       109  ECLIPA    H84S           15.6087255544        7.8139885985       12.7369555497  LPSA4     1               0.0000000000
      3403       109  ECLIPA    C85            15.4735298640        7.0232830951       10.7695484051  LPSA4     1               0.0000000000
      3404       109  ECLIPA    H85R           14.5197473276        7.5203945335       10.5503608829  LPSA4     1               0.0000000000
      3405       109  ECLIPA    H85S           15.4194690615        6.0253077262       10.2367999955  LPSA4     1               0.0000000000
      3406       109  ECLIPA    C86            16.6078656008        7.9776433579       10.3034592726  LPSA4     1               0.0000000000
      3407       109  ECLIPA    H86R           17.5608051613        7.4333075517        9.9932223571  LPSA4     1               0.0000000000
      3408       109  ECLIPA    H86S           16.8984777387        8.6593990332       11.0807540114  LPSA4     1               0.0000000000
      3409       109  ECLIPA    C87            16.1408317388        8.9427047070        9.1601018854  LPSA4     1               0.0000000000
      3410       109  ECLIPA    H87R           16.9597590401        9.5598946954        8.8049419625  LPSA4     1               0.0000000000
      3411       109  ECLIPA    H87S           15.3734626092        9.6698074531        9.5406723883  LPSA4     1               0.0000000000
      3412       109  ECLIPA    C88            15.4693955168        8.1993258729        8.0318999685  LPSA4     1               0.0000000000
      3413       109  ECLIPA    H88R           14.4266168911        7.8676346835        8.3479828359  LPSA4     1               0.0000000000
      3414       109  ECLIPA    H88S           15.9394710154        7.1785886670        7.9254521495  LPSA4     1               0.0000000000
      3415       109  ECLIPA    C89            15.3072505049        9.0195443439        6.7101000712  LPSA4     1               0.0000000000
      3416       109  ECLIPA    H89R           15.4220169770       10.1126276094        6.8746682686  LPSA4     1               0.0000000000
      3417       109  ECLIPA    H89S           14.3524762437        8.9142394182        6.2317001698  LPSA4     1               0.0000000000
      3418       109  ECLIPA    C810           16.3574293638        8.5146176564        5.7047246593  LPSA4     1               0.0000000000
      3419       109  ECLIPA    H810R          16.4648932412        7.4580031512        6.0108430704  LPSA4     1               0.0000000000
      3420       109  ECLIPA    H810S          17.2763364367        9.0478104963        5.8554647029  LPSA4     1               0.0000000000
      3421       109  ECLIPA    C811           15.9788909015        8.6306947899        4.2179945741  LPSA4     1               0.0000000000
      3422       109  ECLIPA    H811R          16.7585982497        8.5984168112        3.5081125689  LPSA4     1               0.0000000000
      3423       109  ECLIPA    H811S          15.3555605801        9.6003726508        4.1819101877  LPSA4     1               0.0000000000
      3424       109  ECLIPA    C812           14.9023321604        7.6434052615        3.7413673409  LPSA4     1               0.0000000000
      3425       109  ECLIPA    H812R          14.6095962985        7.9609562192        2.6403157337  LPSA4     1               0.0000000000
      3426       109  ECLIPA    H812S          14.0594233868        7.5483187194        4.4144737196  LPSA4     1               0.0000000000
      3427       109  ECLIPA    C813           15.3679725006        6.1770203368        3.6785234959  LPSA4     1               0.0000000000
      3428       109  ECLIPA    H813R          16.2035436996        6.1436878565        2.9398073555  LPSA4     1               0.0000000000
      3429       109  ECLIPA    H813S          15.7798155987        5.7365761542        4.6616087352  LPSA4     1               0.0000000000
      3430       109  ECLIPA    C814           14.3177852449        5.2287219361        3.1377409857  LPSA4     1               0.0000000000
      3431       109  ECLIPA    H814R          13.7533751680        5.5763266713        2.1719074593  LPSA4     1               0.0000000000
      3432       109  ECLIPA    H814S          13.5658745786        5.0428063470        3.9166242729  LPSA4     1               0.0000000000
      3433       109  ECLIPA    H814T          14.7660204427        4.2380453760        2.8964685373  LPSA4     1               0.0000000000
      3434       109  ECLIPA    C74            10.6457696767        4.0650635617       13.1792855021  LPSA4     1               0.0000000000
      3435       109  ECLIPA    H74R            9.8875192835        3.3064137155       12.9935747315  LPSA4     1               0.0000000000
      3436       109  ECLIPA    H74S           11.6480714735        3.4958306937       13.3086690609  LPSA4     1               0.0000000000
      3437       109  ECLIPA    C75            10.8902325256        4.8445489183       11.8151371119  LPSA4     1               0.0000000000
      3438       109  ECLIPA    H75R           11.6328398463        4.2081627524       11.2107603889  LPSA4     1               0.0000000000
      3439       109  ECLIPA    H75S           11.3654323446        5.8254778221       12.0082837783  LPSA4     1               0.0000000000
      3440       109  ECLIPA    C76             9.6373954843        5.0719728301       10.9251453624  LPSA4     1               0.0000000000
      3441       109  ECLIPA    H76R            9.0518836467        5.9305272958       11.3555905686  LPSA4     1               0.0000000000
      3442       109  ECLIPA    H76S            8.8839836593        4.1802909501       10.9731137071  LPSA4     1               0.0000000000
      3443       109  ECLIPA    C77             9.8659499362        5.3562991169        9.4191603634  LPSA4     1               0.0000000000
      3444       109  ECLIPA    H77R           10.3699167528        4.5004702337        9.0408775908  LPSA4     1               0.0000000000
      3445       109  ECLIPA    H77S           10.6322338992        6.1543217616        9.2852383479  LPSA4     1               0.0000000000
      3446       109  ECLIPA    C78             8.5213746455        5.8006620291        8.8297405752  LPSA4     1               0.0000000000
      3447       109  ECLIPA    H78R            7.7708939256        5.0815656233        9.1562620580  LPSA4     1               0.0000000000
      3448       109  ECLIPA    H78S            8.3234806988        6.7952898151        9.3169442960  LPSA4     1               0.0000000000
      3449       109  ECLIPA    C79             8.6051276693        6.1782415283        7.2570767761  LPSA4     1               0.0000000000
      3450       109  ECLIPA    H79R            8.7273562340        7.3019444896        7.1763205913  LPSA4     1               0.0000000000
      3451       109  ECLIPA    H79S            7.6538100208        5.9087563110        6.7882549413  LPSA4     1               0.0000000000
      3452       109  ECLIPA    C710            9.5575224668        5.3608466363        6.3785096220  LPSA4     1               0.0000000000
      3453       109  ECLIPA    H710R          10.5604335189        5.4986905192        6.8460783027  LPSA4     1               0.0000000000
      3454       109  ECLIPA    H710S           9.2982487512        4.3756387409        6.4843026416  LPSA4     1               0.0000000000
      3455       109  ECLIPA    C711            9.6259834209        5.8251301594        4.9384125046  LPSA4     1               0.0000000000
      3456       109  ECLIPA    H711R           8.6109984992        5.6699040582        4.5670708729  LPSA4     1               0.0000000000
      3457       109  ECLIPA    H711S           9.9510311635        6.8965823090        4.9306188492  LPSA4     1               0.0000000000
      3458       109  ECLIPA    C712           10.6653356289        4.9877040431        4.2148670498  LPSA4     1               0.0000000000
      3459       109  ECLIPA    H712R          10.3391724700        3.9464112832        4.3130666899  LPSA4     1               0.0000000000
      3460       109  ECLIPA    H712S          11.5619493824        5.0668048627        4.8522839389  LPSA4     1               0.0000000000
      3461       109  ECLIPA    C713           10.9235956361        5.5131368990        2.7357390519  LPSA4     1               0.0000000000
      3462       109  ECLIPA    H713R          11.3215513705        6.5561303659        2.8800411466  LPSA4     1               0.0000000000
      3463       109  ECLIPA    H713S          11.7013029121        4.7983212632        2.2750064041  LPSA4     1               0.0000000000
      3464       109  ECLIPA    C714            9.6454786128        5.3762799629        1.8879763961  LPSA4     1               0.0000000000
      3465       109  ECLIPA    H714R           9.3583130403        4.3227280911        1.7626189762  LPSA4     1               0.0000000000
      3466       109  ECLIPA    H714S           8.8556713496        6.0667773467        2.2081901572  LPSA4     1               0.0000000000
      3467       109  ECLIPA    H714T          10.0013774017        5.6908050507        0.9249202435  LPSA4     1               0.0000000000
      3468       109  ECLIPA    C51            10.6792443060        9.7112313706       14.2380633031  LPSA4     1               0.0000000000
      3469       109  ECLIPA    O51            11.7258469910        9.0370248488       14.1304636378  LPSA4     1               0.0000000000
      3470       109  ECLIPA    C52             9.7255548698        9.9707050174       13.0157035712  LPSA4     1               0.0000000000
      3471       109  ECLIPA    H52R            8.9430934780        9.2353331414       12.8950255930  LPSA4     1               0.0000000000
      3472       109  ECLIPA    H52S            9.3111383490       10.9321155153       13.2222025935  LPSA4     1               0.0000000000
      3473       109  ECLIPA    C53            10.6474836117       10.1680901939       11.7526064304  LPSA4     1               0.0000000000
      3474       109  ECLIPA    H53R           11.6419632803       10.5187741064       12.0082431084  LPSA4     1               0.0000000000
      3475       109  ECLIPA    O53             9.8894448343       10.9819374472       10.8431816314  LPSA4     1               0.0000000000
      3476       109  ECLIPA    C61            10.3717112625       12.1675869493       10.5090573566  LPSA4     1               0.0000000000
      3477       109  ECLIPA    O61            11.4092826775       12.6309024433       10.8659713306  LPSA4     1               0.0000000000
      3478       109  ECLIPA    C62             9.3763948096       12.8699447520        9.5765835255  LPSA4     1               0.0000000000
      3479       109  ECLIPA    H62R            8.5707126304       13.2895929348       10.2152837125  LPSA4     1               0.0000000000
      3480       109  ECLIPA    H62S            8.8308802269       12.0595643465        9.0470049452  LPSA4     1               0.0000000000
      3481       109  ECLIPA    C63            10.0738728987       13.9251742648        8.6803029234  LPSA4     1               0.0000000000
      3482       109  ECLIPA    H63R           10.9853092803       13.4525820702        8.2798705976  LPSA4     1               0.0000000000
      3483       109  ECLIPA    H63S           10.4099471538       14.8498636843        9.3252199642  LPSA4     1               0.0000000000
      3484       109  ECLIPA    C64             9.3214591093       14.4685135969        7.5279067597  LPSA4     1               0.0000000000
      3485       109  ECLIPA    H64R            9.8806295453       15.2964340104        6.9620099216  LPSA4     1               0.0000000000
      3486       109  ECLIPA    H64S            8.3394772616       14.8803954531        7.9657393466  LPSA4     1               0.0000000000
      3487       109  ECLIPA    C65             8.9469716067       13.3071247131        6.5414948800  LPSA4     1               0.0000000000
      3488       109  ECLIPA    H65R            8.3477665664       12.6725256934        7.2423230371  LPSA4     1               0.0000000000
      3489       109  ECLIPA    H65S            9.8763334111       12.8122910306        6.1828980290  LPSA4     1               0.0000000000
      3490       109  ECLIPA    C66             8.1360928391       13.6947960923        5.2222643966  LPSA4     1               0.0000000000
      3491       109  ECLIPA    H66R            7.1956951221       14.1403645927        5.5395647249  LPSA4     1               0.0000000000
      3492       109  ECLIPA    H66S            7.9649260078       12.6559275590        4.8113963288  LPSA4     1               0.0000000000
      3493       109  ECLIPA    C67             8.8167263063       14.5327522466        4.1696839457  LPSA4     1               0.0000000000
      3494       109  ECLIPA    H67R            9.2723560324       15.4370908781        4.5058181646  LPSA4     1               0.0000000000
      3495       109  ECLIPA    H67S            8.0868306152       14.7824722767        3.3478820057  LPSA4     1               0.0000000000
      3496       109  ECLIPA    C68             9.9902958289       13.8593496444        3.5077075145  LPSA4     1               0.0000000000
      3497       109  ECLIPA    H68R            9.8324153246       12.8722725600        3.0112508411  LPSA4     1               0.0000000000
      3498       109  ECLIPA    H68S           10.7065183079       13.8224513743        4.3087918325  LPSA4     1               0.0000000000
      3499       109  ECLIPA    C69            10.4382004901       14.6757134170        2.2963532923  LPSA4     1               0.0000000000
      3500       109  ECLIPA    H69R           10.2164526088       15.7601789360        2.3203210098  LPSA4     1               0.0000000000
      3501       109  ECLIPA    H69S            9.8092350949       14.3523632415        1.4693744207  LPSA4     1               0.0000000000
      3502       109  ECLIPA    C610           11.8684074936       14.4945736849        1.9396251084  LPSA4     1               0.0000000000
      3503       109  ECLIPA    H610R          12.1630198243       13.4156843487        2.0603347121  LPSA4     1               0.0000000000
      3504       109  ECLIPA    H610S          12.5235436269       15.0420527067        2.6933643884  LPSA4     1               0.0000000000
      3505       109  ECLIPA    C611           12.2398655536       15.0781633088        0.5312153135  LPSA4     1               0.0000000000
      3506       109  ECLIPA    H611R          11.9849246149       16.1550796402        0.5735373188  LPSA4     1               0.0000000000
      3507       109  ECLIPA    H611S          13.3018851485       15.1721398136        0.3609598123  LPSA4     1               0.0000000000
      3508       109  ECLIPA    C612           11.5867705329       14.2719875361       -0.5788949292  LPSA4     1               0.0000000000
      3509       109  ECLIPA    H612R          12.0683973052       13.2542648946       -0.6060949542  LPSA4     1               0.0000000000
      3510       109  ECLIPA    H612S          10.5408280933       14.0746577984       -0.3132441764  LPSA4     1               0.0000000000
      3511       109  ECLIPA    H612T          11.7039077111       14.7461365964       -1.5574606966  LPSA4     1               0.0000000000
      3512       109  ECLIPA    C54            10.7724448752        8.7452978038       11.1776054589  LPSA4     1               0.0000000000
      3513       109  ECLIPA    H54R            9.7396416858        8.3883765804       10.8869876633  LPSA4     1               0.0000000000
      3514       109  ECLIPA    H54S           11.1064751081        8.0419676731       11.9574517429  LPSA4     1               0.0000000000
      3515       109  ECLIPA    C55            11.6988372158        8.5049676145        9.9916770240  LPSA4     1               0.0000000000
      3516       109  ECLIPA    H55R           11.9279587675        7.4348732809        9.7856946516  LPSA4     1               0.0000000000
      3517       109  ECLIPA    H55S           12.6991483051        9.0086245302       10.2436295858  LPSA4     1               0.0000000000
      3518       109  ECLIPA    C56            10.9883879521        8.9781839765        8.7515486822  LPSA4     1               0.0000000000
      3519       109  ECLIPA    H56R           10.7527489552       10.0829819681        8.8382497819  LPSA4     1               0.0000000000
      3520       109  ECLIPA    H56S           10.1025355680        8.4913571642        8.4741334449  LPSA4     1               0.0000000000
      3521       109  ECLIPA    C57            11.8549987577        9.0760609473        7.4395707935  LPSA4     1               0.0000000000
      3522       109  ECLIPA    H57R           12.3461777238        8.1358095955        7.1827428724  LPSA4     1               0.0000000000
      3523       109  ECLIPA    H57S           12.6909532658        9.8028770849        7.5196553379  LPSA4     1               0.0000000000
      3524       109  ECLIPA    C58            10.9807658356        9.6155845309        6.2350750625  LPSA4     1               0.0000000000
      3525       109  ECLIPA    H58R            9.9734569324        9.1148807166        6.2095761879  LPSA4     1               0.0000000000
      3526       109  ECLIPA    H58S           10.6645158176       10.6557454821        6.5224540661  LPSA4     1               0.0000000000
      3527       109  ECLIPA    C59            11.6869974764        9.4030348495        4.8667186835  LPSA4     1               0.0000000000
      3528       109  ECLIPA    H59R           11.9161916054        8.3424343794        4.6589989540  LPSA4     1               0.0000000000
      3529       109  ECLIPA    H59S           12.5998584927        9.9923414609        5.0825555512  LPSA4     1               0.0000000000
      3530       109  ECLIPA    C510           10.7922763894        9.7906257784        3.6752379292  LPSA4     1               0.0000000000
      3531       109  ECLIPA    H510R          10.2279067380       10.7784350533        3.7937959224  LPSA4     1               0.0000000000
      3532       109  ECLIPA    H510S           9.9667579701        8.9724232168        3.4613250382  LPSA4     1               0.0000000000
      3533       109  ECLIPA    C511           11.4877061026        9.8805550747        2.3004848829  LPSA4     1               0.0000000000
      3534       109  ECLIPA    H511R          11.9852088899       10.8688613393        2.2679211996  LPSA4     1               0.0000000000
      3535       109  ECLIPA    H511S          12.3211528946        9.1268853572        2.1940961976  LPSA4     1               0.0000000000
      3536       109  ECLIPA    C512           10.5777381136        9.8171210505        1.0189424135  LPSA4     1               0.0000000000
      3537       109  ECLIPA    H512R          11.2097003974        9.6657519066        0.0815295424  LPSA4     1               0.0000000000
      3538       109  ECLIPA    H512S           9.8714013228        8.9829883134        1.1129704346  LPSA4     1               0.0000000000
      3539       109  ECLIPA    C513            9.8417238116       11.1832532400        0.6457389972  LPSA4     1               0.0000000000
      3540       109  ECLIPA    H513R          10.5869202365       12.0258741516        0.5010832175  LPSA4     1               0.0000000000
      3541       109  ECLIPA    H513S           9.2269103771       11.4817999755        1.4088770719  LPSA4     1               0.0000000000
      3542       109  ECLIPA    C514            9.1011580028       11.0497910290       -0.6567184026  LPSA4     1               0.0000000000
      3543       109  ECLIPA    H514R           8.4167881843       10.2021966609       -0.6273993866  LPSA4     1               0.0000000000
      3544       109  ECLIPA    H514S           8.4690469933       11.9393773348       -0.7024724270  LPSA4     1               0.0000000000
      3545       109  ECLIPA    H514T           9.8271653610       10.9412759106       -1.5427815912  LPSA4     1               0.0000000000
      3546       109  ECLIPA    C33             9.0027146520       14.6052143124       14.4880792826  LPSA4     1               0.0000000000
      3547       109  ECLIPA    H33R            8.1334614405       15.2288558761       14.8828993596  LPSA4     1               0.0000000000
      3548       109  ECLIPA    O33             9.3031887783       13.6305533507       15.4699768821  LPSA4     1               0.0000000000
      3549       109  ECLIPA    HO33            9.2936787456       14.0415001280       16.2926205744  LPSA4     1               0.0000000000
      3550       109  ECLIPA    C34             8.4848747877       13.8669868264       13.2255459338  LPSA4     1               0.0000000000
      3551       109  ECLIPA    H34R            9.2864681259       13.2725803731       12.8010908313  LPSA4     1               0.0000000000
      3552       109  ECLIPA    H34S            8.2606059095       14.6230958618       12.3772221142  LPSA4     1               0.0000000000
      3553       109  ECLIPA    C35             7.2669617529       12.9466650073       13.4256256262  LPSA4     1               0.0000000000
      3554       109  ECLIPA    H35R            6.4168389592       13.5686883706       13.6963698038  LPSA4     1               0.0000000000
      3555       109  ECLIPA    H35S            7.4705945231       12.2715257486       14.2668166019  LPSA4     1               0.0000000000
      3556       109  ECLIPA    C36             6.7522676939       12.1859202447       12.1865608177  LPSA4     1               0.0000000000
      3557       109  ECLIPA    H36R            7.7574819362       12.0316956886       11.7430812241  LPSA4     1               0.0000000000
      3558       109  ECLIPA    H36S            6.0919423507       12.7802490033       11.4785220412  LPSA4     1               0.0000000000
      3559       109  ECLIPA    C37             6.2459519719       10.7966109125       12.5255831563  LPSA4     1               0.0000000000
      3560       109  ECLIPA    H37R            5.0844562523       10.9566015978       12.6765215637  LPSA4     1               0.0000000000
      3561       109  ECLIPA    H37S            6.6010113206       10.4470977734       13.5128993321  LPSA4     1               0.0000000000
      3562       109  ECLIPA    C38             6.4310538590        9.7083116130       11.4317274953  LPSA4     1               0.0000000000
      3563       109  ECLIPA    H38R            7.4480886411        9.2829089131       11.4067421357  LPSA4     1               0.0000000000
      3564       109  ECLIPA    H38S            5.8035614097        8.8466081802       11.7230999881  LPSA4     1               0.0000000000
      3565       109  ECLIPA    C39             6.1408654334       10.2604872950       10.0213367345  LPSA4     1               0.0000000000
      3566       109  ECLIPA    H39R            6.7680721102       11.1675787825        9.8128797222  LPSA4     1               0.0000000000
      3567       109  ECLIPA    H39S            5.0327002443       10.4304709129        9.9697980947  LPSA4     1               0.0000000000
      3568       109  ECLIPA    C310            6.3472090911        9.2885826239        8.8401719124  LPSA4     1               0.0000000000
      3569       109  ECLIPA    H310R           5.5713797996        8.4647156703        9.0626900142  LPSA4     1               0.0000000000
      3570       109  ECLIPA    H310S           7.3821075037        8.8403165037        8.8945759064  LPSA4     1               0.0000000000
      3571       109  ECLIPA    C311            6.4148909536        9.9993594475        7.5676235846  LPSA4     1               0.0000000000
      3572       109  ECLIPA    H311R           5.6775454203       10.8418138491        7.5507520616  LPSA4     1               0.0000000000
      3573       109  ECLIPA    H311S           7.4191524396       10.4431707936        7.2851462164  LPSA4     1               0.0000000000
      3574       109  ECLIPA    C312            6.1823551366        9.1075107585        6.3280121142  LPSA4     1               0.0000000000
      3575       109  ECLIPA    H312R           6.6155744648        8.0877007748        6.4861373960  LPSA4     1               0.0000000000
      3576       109  ECLIPA    H312S           5.0768169832        9.0152845120        6.1820758986  LPSA4     1               0.0000000000
      3577       109  ECLIPA    C313            6.7494083927        9.6827933852        4.9895779706  LPSA4     1               0.0000000000
      3578       109  ECLIPA    H313R           6.1000970639       10.4764737527        4.7825120466  LPSA4     1               0.0000000000
      3579       109  ECLIPA    H313S           7.7821573165       10.0985998446        5.1572698764  LPSA4     1               0.0000000000
      3580       109  ECLIPA    C314            6.7895991342        8.7658883493        3.8116661598  LPSA4     1               0.0000000000
      3581       109  ECLIPA    H314R           5.7527450650        8.3833577947        3.6067793993  LPSA4     1               0.0000000000
      3582       109  ECLIPA    H314S           7.1829030286        9.1918532053        2.8849361441  LPSA4     1               0.0000000000
      3583       109  ECLIPA    H314T           7.4145426764        7.8337133393        4.0446347774  LPSA4     1               0.0000000000
      3584       109  ECLIPA    C11            14.4558171150       12.5858712886       11.2900808200  LPSA4     1               0.0000000000
      3585       109  ECLIPA    O11            14.2659165459       11.3852104701       11.1394597694  LPSA4     1               0.0000000000
      3586       109  ECLIPA    C12            15.4433336283       13.2501252143       10.2853014675  LPSA4     1               0.0000000000
      3587       109  ECLIPA    H12R           16.4988022846       12.9337239297       10.4852637814  LPSA4     1               0.0000000000
      3588       109  ECLIPA    H12S           15.3314185341       14.3413729831       10.5222272274  LPSA4     1               0.0000000000
      3589       109  ECLIPA    C13            15.1366528441       13.0229371528        8.8110583416  LPSA4     1               0.0000000000
      3590       109  ECLIPA    H13R           14.8488810868       11.9279185415        8.5839874118  LPSA4     1               0.0000000000
      3591       109  ECLIPA    O13            16.3920272416       13.2844759952        8.1311342176  LPSA4     1               0.0000000000
      3592       109  ECLIPA    HO13           16.4095489912       12.8349133159        7.3064966676  LPSA4     1               0.0000000000
      3593       109  ECLIPA    C14            13.9737394167       13.9206242085        8.4581579993  LPSA4     1               0.0000000000
      3594       109  ECLIPA    H14R           14.0416537401       14.9487946283        8.9706443184  LPSA4     1               0.0000000000
      3595       109  ECLIPA    H14S           13.0449639687       13.3742476478        8.7243868424  LPSA4     1               0.0000000000
      3596       109  ECLIPA    C15            13.8490880294       14.2215626060        6.9526486677  LPSA4     1               0.0000000000
      3597       109  ECLIPA    H15R           14.7821229056       14.5791521010        6.5500123177  LPSA4     1               0.0000000000
      3598       109  ECLIPA    H15S           13.0556585779       14.9669917787        6.8782608049  LPSA4     1               0.0000000000
      3599       109  ECLIPA    C16            13.4858653427       12.9395379954        6.1622847334  LPSA4     1               0.0000000000
      3600       109  ECLIPA    H16R           12.3695616911       12.6829119240        6.2733383262  LPSA4     1               0.0000000000
      3601       109  ECLIPA    H16S           13.9020955042       12.0819425070        6.7182496574  LPSA4     1               0.0000000000
      3602       109  ECLIPA    C17            13.8432306209       13.0247974204        4.6801229578  LPSA4     1               0.0000000000
      3603       109  ECLIPA    H17R           13.4749543190       14.0653435683        4.4246758429  LPSA4     1               0.0000000000
      3604       109  ECLIPA    H17S           13.3206286883       12.3395243398        4.0046542873  LPSA4     1               0.0000000000
      3605       109  ECLIPA    C18            15.3235860166       12.8868004515        4.4504458171  LPSA4     1               0.0000000000
      3606       109  ECLIPA    H18R           15.7151865579       13.6352345723        5.0865821920  LPSA4     1               0.0000000000
      3607       109  ECLIPA    H18S           15.6283547421       11.8508730779        4.7749867078  LPSA4     1               0.0000000000
      3608       109  ECLIPA    C19            15.7085820268       13.1132575449        3.0097966450  LPSA4     1               0.0000000000
      3609       109  ECLIPA    H19R           16.7860431927       13.1264743245        2.9245509529  LPSA4     1               0.0000000000
      3610       109  ECLIPA    H19S           15.2759580613       14.0946197630        2.6238151240  LPSA4     1               0.0000000000
      3611       109  ECLIPA    C110           15.2342696682       11.9499934324        2.1045801788  LPSA4     1               0.0000000000
      3612       109  ECLIPA    H110R          15.5047765093       10.9479907859        2.4416701971  LPSA4     1               0.0000000000
      3613       109  ECLIPA    H110S          14.1347960613       12.1092706627        2.1583327743  LPSA4     1               0.0000000000
      3614       109  ECLIPA    C111           15.7127109194       12.1958044383        0.7563571155  LPSA4     1               0.0000000000
      3615       109  ECLIPA    H111R          15.6183035799       13.2595484231        0.3999767799  LPSA4     1               0.0000000000
      3616       109  ECLIPA    H111S          16.7587606090       12.0359579922        0.7977177860  LPSA4     1               0.0000000000
      3617       109  ECLIPA    C112           15.1382675076       11.2320633823       -0.2937360943  LPSA4     1               0.0000000000
      3618       109  ECLIPA    H112R          15.4230674268       10.2649759340        0.1973446929  LPSA4     1               0.0000000000
      3619       109  ECLIPA    H112S          14.0498455895       11.1685376285       -0.2177998937  LPSA4     1               0.0000000000
      3620       109  ECLIPA    C113           15.4650306319       11.6130412891       -1.7468031795  LPSA4     1               0.0000000000
      3621       109  ECLIPA    H113R          14.9380564664       12.5669819221       -1.9802017524  LPSA4     1               0.0000000000
      3622       109  ECLIPA    H113S          16.5232358470       11.8721829348       -1.8531093719  LPSA4     1               0.0000000000
      3623       109  ECLIPA    C114           15.2736126858       10.5864226498       -2.8344928043  LPSA4     1               0.0000000000
      3624       109  ECLIPA    H114R          15.6961103802        9.5866871235       -2.7829422503  LPSA4     1               0.0000000000
      3625       109  ECLIPA    H114S          14.1727523768       10.4132897567       -2.9951089580  LPSA4     1               0.0000000000
      3626       109  ECLIPA    H114T          15.8207700671       10.9139870311       -3.7399523103  LPSA4     1               0.0000000000
      3627       110  AKDO      C1              9.3624382354        9.2308437891       22.4410509549  LPSA4     2               0.0000000000
      3628       110  AKDO      O11             8.7318741011        8.1194818780       22.4913720772  LPSA4     2               0.0000000000
      3629       110  AKDO      O12             8.9702483407       10.3759629480       22.0800765534  LPSA4     2               0.0000000000
      3630       110  AKDO      C2             10.8251374768        9.1634896542       22.8913181237  LPSA4     2               0.0000000000
      3631       110  AKDO      C6             12.4277955128        7.6796720582       23.8039205188  LPSA4     2               0.0000000000
      3632       110  AKDO      H6             13.0407687194        7.7960064897       22.9487387861  LPSA4     2               0.0000000000
      3633       110  AKDO      O6             11.0088637441        7.8969102731       23.4267274814  LPSA4     2               0.0000000000
      3634       110  AKDO      C3             11.1529181967       10.1333651665       23.9587385105  LPSA4     2               0.0000000000
      3635       110  AKDO      H31            10.5100209205       10.1169793093       24.7868435866  LPSA4     2               0.0000000000
      3636       110  AKDO      H32            11.1407005874       11.1957842153       23.4151264596  LPSA4     2               0.0000000000
      3637       110  AKDO      C4             12.6088818038        9.9651255293       24.3842593775  LPSA4     2               0.0000000000
      3638       110  AKDO      H4             13.2942775862       10.0166493385       23.5563617270  LPSA4     2               0.0000000000
      3639       110  AKDO      O4             12.9404382852       10.9666742751       25.3355834555  LPSA4     2               0.0000000000
      3640       110  AKDO      C5             12.8963629555        8.6391199420       24.9292437177  LPSA4     2               0.0000000000
      3641       110  AKDO      H5             14.0035216598        8.4770722788       25.0107888161  LPSA4     2               0.0000000000
      3642       110  AKDO      O5             12.1447594134        8.4965805489       26.2083878813  LPSA4     2               0.0000000000
      3643       110  AKDO      C7             12.7260079796        6.1605540701       24.1981149098  LPSA4     2               0.0000000000
      3644       110  AKDO      H7             12.1533898022        5.9287129514       25.0939202098  LPSA4     2               0.0000000000
      3645       110  AKDO      O7             14.1485669699        5.9111360823       24.3482682347  LPSA4     2               0.0000000000
      3646       110  AKDO      HO7            14.4848064262        5.8621453774       23.4945166536  LPSA4     2               0.0000000000
      3647       110  AKDO      C8             12.2303213027        5.2994830415       22.9864433882  LPSA4     2               0.0000000000
      3648       110  AKDO      H81            11.1400006752        5.5283123714       22.9153150275  LPSA4     2               0.0000000000
      3649       110  AKDO      H82            12.8523768393        5.6308552994       22.0745354517  LPSA4     2               0.0000000000
      3650       110  AKDO      O8             12.4112026499        3.8682196718       23.3537996748  LPSA4     2               0.0000000000
      3651       110  AKDO      HO8            11.6867423736        3.3486221667       22.9179804014  LPSA4     2               0.0000000000
      3652       111  AKDO      C1             14.2680344458       12.1958243232       23.8027969005  LPSA4     3               1.0000000000
      3653       111  AKDO      O11            13.8067460920       12.4392613764       22.6471489042  LPSA4     3               1.0000000000
      3654       111  AKDO      O12            15.4585491502       11.9020371613       24.0656860145  LPSA4     3               1.0000000000
      3655       111  AKDO      C2             13.3534719396       12.2791739808       25.0166033796  LPSA4     3               1.0000000000
      3656       111  AKDO      C6             11.2293797869       13.1168820868       25.7688829792  LPSA4     3               1.0000000000
      3657       111  AKDO      H6             10.8514467364       12.0641108527       25.9810553331  LPSA4     3               1.0000000000
      3658       111  AKDO      O6             12.1641962703       13.0868219255       24.7076657818  LPSA4     3               1.0000000000
      3659       111  AKDO      C3             13.9968003670       12.8265278103       26.3187707743  LPSA4     3               1.0000000000
      3660       111  AKDO      H31            14.3542532991       13.9246625906       26.1504935106  LPSA4     3               1.0000000000
      3661       111  AKDO      H32            14.8858130579       12.2419356314       26.5929217108  LPSA4     3               1.0000000000
      3662       111  AKDO      C4             12.9504808004       12.8043732666       27.4036122013  LPSA4     3               1.0000000000
      3663       111  AKDO      H4             12.5086671678       11.8032147330       27.4051754129  LPSA4     3               1.0000000000
      3664       111  AKDO      O4             13.4016965931       13.0751980926       28.7388570077  LPSA4     3               1.0000000000
      3665       111  AKDO      HO4            13.2255740071       12.3897598544       29.3717785514  LPSA4     3               1.0000000000
      3666       111  AKDO      C5             11.8622661887       13.6294657977       27.0369167275  LPSA4     3               1.0000000000
      3667       111  AKDO      H5             11.1238368185       13.6737122235       27.9236884022  LPSA4     3               1.0000000000
      3668       111  AKDO      O5             12.2967592296       14.9895100701       26.8495261943  LPSA4     3               1.0000000000
      3669       111  AKDO      HO5            12.9570353325       15.0249264558       26.1887877298  LPSA4     3               1.0000000000
      3670       111  AKDO      C7             10.0737040685       13.9786743172       25.3258859863  LPSA4     3               1.0000000000
      3671       111  AKDO      H7             10.4011032959       15.0418266290       25.1324849511  LPSA4     3               1.0000000000
      3672       111  AKDO      O7              9.0579070543       13.9553775761       26.3661029982  LPSA4     3               1.0000000000
      3673       111  AKDO      HO7             8.3876474234       14.6421865607       26.1647669547  LPSA4     3               1.0000000000
      3674       111  AKDO      C8              9.4678057177       13.3258637688       24.1539635864  LPSA4     3               1.0000000000
      3675       111  AKDO      H81            10.2016634571       13.2387929936       23.3419478721  LPSA4     3               1.0000000000
      3676       111  AKDO      H82             9.0365359733       12.3220335222       24.2853144505  LPSA4     3               1.0000000000
      3677       111  AKDO      O8              8.4155683167       14.1200899599       23.6541307456  LPSA4     3               1.0000000000
      3678       111  AKDO      HO8             8.9849351364       14.7999384160       23.2473452835  LPSA4     3               1.0000000000
      3679       112  AHEP      C1             12.7279181585        7.7722028419       27.2793229502  LPSA4     4               2.0000000000
      3680       112  AHEP      H1             12.4432953271        6.7556635655       26.8517192453  LPSA4     4               2.0000000000
      3681       112  AHEP      C5             14.7141583604        8.9472047155       28.0185271385  LPSA4     4               2.0000000000
      3682       112  AHEP      H5             14.1599047300        9.8565670055       27.5619054335  LPSA4     4               2.0000000000
      3683       112  AHEP      O5             14.1526976767        7.7958252180       27.3942805697  LPSA4     4               2.0000000000
      3684       112  AHEP      C2             12.1778601074        7.7833313193       28.6827861277  LPSA4     4               2.0000000000
      3685       112  AHEP      H2             11.0843666880        7.8131163081       28.7442425996  LPSA4     4               2.0000000000
      3686       112  AHEP      O2             12.5705635117        6.6334361060       29.3407203943  LPSA4     4               2.0000000000
      3687       112  AHEP      HO2            11.8544495001        6.3050884984       29.8507927467  LPSA4     4               2.0000000000
      3688       112  AHEP      C3             12.7092874506        8.9878051198       29.4857672188  LPSA4     4               2.0000000000
      3689       112  AHEP      H3             12.2821161549        9.9664050345       29.2269906369  LPSA4     4               2.0000000000
      3690       112  AHEP      O3             12.3432348852        8.8720349709       30.7882097304  LPSA4     4               2.0000000000
      3691       112  AHEP      C4             14.2160958818        8.9795447145       29.4546205599  LPSA4     4               2.0000000000
      3692       112  AHEP      H4             14.7071513078        8.1218741746       29.9788637739  LPSA4     4               2.0000000000
      3693       112  AHEP      O4             14.6883152851       10.1693310143       30.0145912217  LPSA4     4               2.0000000000
      3694       112  AHEP      P4             15.4357496868       10.2275436647       31.4978499249  LPSA4     4               2.0000000000
      3695       112  AHEP      OP42           15.0982228907       11.5065230978       32.1560374192  LPSA4     4               2.0000000000
      3696       112  AHEP      OP43           16.8631641145       10.1655840038       31.0397938518  LPSA4     4               2.0000000000
      3697       112  AHEP      OP44           15.0849969366        8.9416318912       32.3098937101  LPSA4     4               2.0000000000
      3698       112  AHEP      C6             16.2675932521        9.0279432821       27.7982482844  LPSA4     4               2.0000000000
      3699       112  AHEP      H6             16.5604174680       10.0840275705       28.0833143566  LPSA4     4               2.0000000000
      3700       112  AHEP      O6             16.8759658470        8.1098581278       28.7103505027  LPSA4     4               2.0000000000
      3701       112  AHEP      HO6            17.6196515455        8.5293397259       29.2203787365  LPSA4     4               2.0000000000
      3702       112  AHEP      C7             16.7115445899        8.7849121648       26.3054198206  LPSA4     4               2.0000000000
      3703       112  AHEP      H71            17.8183477370        9.0176115385       26.1576126064  LPSA4     4               2.0000000000
      3704       112  AHEP      H72            16.0218732260        9.3326727815       25.6323487339  LPSA4     4               2.0000000000
      3705       112  AHEP      O7             16.5994669428        7.4035746649       25.9755159574  LPSA4     4               2.0000000000
      3706       112  AHEP      HO7            17.3846026327        6.9534618837       26.3256794122  LPSA4     4               2.0000000000
      3707       113  AHEP      C1             11.5263848500        9.8748658789       31.4342177374  LPSA4     5               3.0000000000
      3708       113  AHEP      H1             11.6862034264       10.8875949646       30.9794447437  LPSA4     5               3.0000000000
      3709       113  AHEP      C5              9.7728605526        8.3358058252       31.9165413065  LPSA4     5               3.0000000000
      3710       113  AHEP      H5             10.5312980502        7.5406523855       31.6031509785  LPSA4     5               3.0000000000
      3711       113  AHEP      O5             10.1271236058        9.5645906228       31.3013865768  LPSA4     5               3.0000000000
      3712       113  AHEP      C2             11.7827705199       10.0211262259       32.9718957084  LPSA4     5               3.0000000000
      3713       113  AHEP      H2             12.8998119778       10.1988583317       33.0921707216  LPSA4     5               3.0000000000
      3714       113  AHEP      O2             11.0872179452       11.1490426304       33.4691025827  LPSA4     5               3.0000000000
      3715       113  AHEP      HO2            11.6956940722       11.8608258704       33.6403503244  LPSA4     5               3.0000000000
      3716       113  AHEP      C3             11.4490670818        8.7028012972       33.7004304811  LPSA4     5               3.0000000000
      3717       113  AHEP      H3             12.0848107538        7.8876351674       33.3375632548  LPSA4     5               3.0000000000
      3718       113  AHEP      O3             11.6177655040        8.7097233992       35.1462238331  LPSA4     5               3.0000000000
      3719       113  AHEP      C4             10.0051817355        8.4305592084       33.4524658705  LPSA4     5               3.0000000000
      3720       113  AHEP      H4              9.3482528379        9.2567120186       33.8188816395  LPSA4     5               3.0000000000
      3721       113  AHEP      O4              9.6701562096        7.1571618386       34.0881196202  LPSA4     5               3.0000000000
      3722       113  AHEP      P4              8.6139981574        7.0970656058       35.2810123301  LPSA4     5               3.0000000000
      3723       113  AHEP      OP42            8.6856153148        5.6879393913       35.8202965042  LPSA4     5               3.0000000000
      3724       113  AHEP      OP43            7.2466115772        7.3946185122       34.6107506294  LPSA4     5               3.0000000000
      3725       113  AHEP      OP44            8.9807302692        8.1970878289       36.2417033353  LPSA4     5               3.0000000000
      3726       113  AHEP      C6              8.3608777611        7.8539633091       31.5493607386  LPSA4     5               3.0000000000
      3727       113  AHEP      H6              8.1520177510        6.8492518867       31.9533288164  LPSA4     5               3.0000000000
      3728       113  AHEP      O6              7.3864566150        8.7669057599       32.0428602265  LPSA4     5               3.0000000000
      3729       113  AHEP      HO6             7.2839165035        9.6160522927       31.5367188277  LPSA4     5               3.0000000000
      3730       113  AHEP      C7              8.2772759259        7.5982823850       30.0822725317  LPSA4     5               3.0000000000
      3731       113  AHEP      H71             7.5736087920        6.7531236332       29.9169108581  LPSA4     5               3.0000000000
      3732       113  AHEP      H72             9.2395700799        7.3118119297       29.6179339851  LPSA4     5               3.0000000000
      3733       113  AHEP      O7              7.6462491039        8.7562106157       29.4957736452  LPSA4     5               3.0000000000
      3734       114  AHEP      C1              8.5228979331        9.5842221300       28.7926622005  LPSA4     6               4.0000000000
      3735       114  AHEP      H1              9.6083117063        9.3181362083       29.0422981953  LPSA4     6               4.0000000000
      3736       114  AHEP      C5              7.0496584307        9.7679948995       26.9237617191  LPSA4     6               4.0000000000
      3737       114  AHEP      H5              6.3287001780        9.1545461465       27.4818042043  LPSA4     6               4.0000000000
      3738       114  AHEP      O5              8.3852416110        9.4622364110       27.3547530115  LPSA4     6               4.0000000000
      3739       114  AHEP      C2              8.3109376047       11.0040459544       29.2397872647  LPSA4     6               4.0000000000
      3740       114  AHEP      H2              8.5180980605       11.0347606881       30.3523091474  LPSA4     6               4.0000000000
      3741       114  AHEP      O2              9.2804984709       11.8808360851       28.7267108980  LPSA4     6               4.0000000000
      3742       114  AHEP      HO2             9.8140579742       12.0947936215       29.4669064354  LPSA4     6               4.0000000000
      3743       114  AHEP      C3              6.8695512607       11.4144057045       28.8468391403  LPSA4     6               4.0000000000
      3744       114  AHEP      H3              6.1896019427       10.7820978944       29.4311808254  LPSA4     6               4.0000000000
      3745       114  AHEP      O3              6.5220941256       12.8355231099       29.2225362108  LPSA4     6               4.0000000000
      3746       114  AHEP      HO3             6.0263213704       12.9570102993       29.9865592523  LPSA4     6               4.0000000000
      3747       114  AHEP      C4              6.7603903829       11.2286871726       27.2761740859  LPSA4     6               4.0000000000
      3748       114  AHEP      H4              7.3673117623       11.9823294986       26.7944950683  LPSA4     6               4.0000000000
      3749       114  AHEP      O4              5.4479443134       11.5539440960       26.7938835778  LPSA4     6               4.0000000000
      3750       114  AHEP      HO4             4.8836193488       10.7692224804       27.1589530594  LPSA4     6               4.0000000000
      3751       114  AHEP      C6              6.7917762419        9.4091983809       25.4906533340  LPSA4     6               4.0000000000
      3752       114  AHEP      H6              5.7334833801        9.5954839396       25.3442628137  LPSA4     6               4.0000000000
      3753       114  AHEP      O6              7.4331469645       10.3593051260       24.6375675438  LPSA4     6               4.0000000000
      3754       114  AHEP      HO6             8.0034237739        9.9231303212       23.9977784313  LPSA4     6               4.0000000000
      3755       114  AHEP      C7              7.0299574238        7.9602214584       25.1799756221  LPSA4     6               4.0000000000
      3756       114  AHEP      H71             6.6454747980        7.7737053654       24.1408078076  LPSA4     6               4.0000000000
      3757       114  AHEP      H72             6.4464085531        7.3907426721       25.9252229174  LPSA4     6               4.0000000000
      3758       114  AHEP      O7              8.3705418298        7.5737827677       25.2517430265  LPSA4     6               4.0000000000
      3759       114  AHEP      HO7             8.5138355088        7.3822805306       26.2011285002  LPSA4     6               4.0000000000
      3760       115  AGLC      C1             12.9036998793        8.3816613402       35.6520976122  LPSA4     7               4.0000000000
      3761       115  AGLC      H1             13.2329934232        7.3812551793       35.2047739589  LPSA4     7               4.0000000000
      3762       115  AGLC      C5             13.6233029796       10.5832325197       36.0987679218  LPSA4     7               4.0000000000
      3763       115  AGLC      H5             12.6381726475       10.9926799967       35.8327124756  LPSA4     7               4.0000000000
      3764       115  AGLC      O5             13.8545606544        9.3842163414       35.4366254460  LPSA4     7               4.0000000000
      3765       115  AGLC      C2             12.8708321059        8.1704243705       37.1582745954  LPSA4     7               4.0000000000
      3766       115  AGLC      H2             13.9549261338        7.9816680968       37.4887389927  LPSA4     7               4.0000000000
      3767       115  AGLC      O2             12.2403670271        6.9213700303       37.5024056006  LPSA4     7               4.0000000000
      3768       115  AGLC      HO2            11.3208358322        7.1354428208       37.6430208865  LPSA4     7               4.0000000000
      3769       115  AGLC      C3             12.5968630094        9.3249166223       37.9903802326  LPSA4     7               4.0000000000
      3770       115  AGLC      H3             11.6045353686        9.6475461945       37.6727250444  LPSA4     7               4.0000000000
      3771       115  AGLC      O3             12.4377975465        9.0975431934       39.4204481292  LPSA4     7               4.0000000000
      3772       115  AGLC      C4             13.6621891782       10.3045754779       37.5928595998  LPSA4     7               4.0000000000
      3773       115  AGLC      H4             14.6934907792        9.9424253876       37.9560286200  LPSA4     7               4.0000000000
      3774       115  AGLC      O4             13.2796952214       11.5454380567       38.2243117391  LPSA4     7               4.0000000000
      3775       115  AGLC      HO4            13.9924458743       12.0054025492       38.6132003238  LPSA4     7               4.0000000000
      3776       115  AGLC      C6             14.5476705707       11.6859637881       35.5245160098  LPSA4     7               4.0000000000
      3777       115  AGLC      H61            14.4074238321       11.6688992698       34.4135318240  LPSA4     7               4.0000000000
      3778       115  AGLC      H62            14.3920997855       12.7296268809       35.8722646349  LPSA4     7               4.0000000000
      3779       115  AGLC      O6             15.9266375619       11.2352391467       35.6892983147  LPSA4     7               4.0000000000
      3780       115  AGLC      HO6            16.1496662399       11.7195093373       36.4386090630  LPSA4     7               4.0000000000
      3781       116  AGLC      C1             11.1727081951        9.3231568764       39.9328324507  LPSA4     8               5.0000000000
      3782       116  AGLC      H1             10.7942301084       10.3013949547       39.5884769495  LPSA4     8               5.0000000000
      3783       116  AGLC      C5             10.4221839266        6.9735009437       40.2153373402  LPSA4     8               5.0000000000
      3784       116  AGLC      H5             11.3989058538        6.6448734676       39.8400606936  LPSA4     8               5.0000000000
      3785       116  AGLC      O5             10.1886029543        8.2790118994       39.6195505863  LPSA4     8               5.0000000000
      3786       116  AGLC      C2             11.2108225054        9.4237011737       41.4170311384  LPSA4     8               5.0000000000
      3787       116  AGLC      H2             10.1802264510        9.7730179188       41.6529594578  LPSA4     8               5.0000000000
      3788       116  AGLC      O2             11.9946691835       10.4880966873       41.9438754185  LPSA4     8               5.0000000000
      3789       116  AGLC      C3             11.4945197684        8.1509009690       42.1297388169  LPSA4     8               5.0000000000
      3790       116  AGLC      H3             12.4966980807        7.9144661793       41.6567950186  LPSA4     8               5.0000000000
      3791       116  AGLC      O3             11.6172311385        8.3886036072       43.5370978028  LPSA4     8               5.0000000000
      3792       116  AGLC      C4             10.4510284585        7.2049941407       41.7603093222  LPSA4     8               5.0000000000
      3793       116  AGLC      H4              9.4822204727        7.5753992528       42.0401368658  LPSA4     8               5.0000000000
      3794       116  AGLC      O4             10.6502150694        5.9620191640       42.3914819843  LPSA4     8               5.0000000000
      3795       116  AGLC      HO4            11.5567566005        5.7742898439       42.3800652601  LPSA4     8               5.0000000000
      3796       116  AGLC      C6              9.5015515645        5.8265420792       39.7357334439  LPSA4     8               5.0000000000
      3797       116  AGLC      H61             9.3508626132        5.7968959988       38.6468043611  LPSA4     8               5.0000000000
      3798       116  AGLC      H62             9.8161132973        4.8418848931       40.0276014644  LPSA4     8               5.0000000000
      3799       116  AGLC      O6              8.2252811189        5.8443613921       40.3040784562  LPSA4     8               5.0000000000
      3800       116  AGLC      HO6             8.2163412724        5.4830900527       41.2121845210  LPSA4     8               5.0000000000
      3801       117  AGAL      C1             11.8118833341       11.7833113712       41.4573847493  LPSA4     9               6.0000000000
      3802       117  AGAL      H1             11.7650685625       11.7723511214       40.3420235153  LPSA4     9               6.0000000000
      3803       117  AGAL      C5             10.6057178623       12.7328040707       43.2125447641  LPSA4     9               6.0000000000
      3804       117  AGAL      H5             10.9112741388       11.7475767029       43.7424973645  LPSA4     9               6.0000000000
      3805       117  AGAL      O5             10.5987712895       12.4993899176       41.8451689838  LPSA4     9               6.0000000000
      3806       117  AGAL      C2             13.0160820783       12.6025878785       41.8393925249  LPSA4     9               6.0000000000
      3807       117  AGAL      H2             12.9223155688       13.5904564363       41.4115621152  LPSA4     9               6.0000000000
      3808       117  AGAL      O2             14.2073783730       12.1620426343       41.1608705954  LPSA4     9               6.0000000000
      3809       117  AGAL      C3             13.0589455129       12.8791086293       43.3264191845  LPSA4     9               6.0000000000
      3810       117  AGAL      H3             13.2057228898       11.8889320547       43.9424563891  LPSA4     9               6.0000000000
      3811       117  AGAL      O3             14.2058145278       13.5532299559       43.7491515633  LPSA4     9               6.0000000000
      3812       117  AGAL      HO3            14.9157775102       13.2614932581       43.1585960960  LPSA4     9               6.0000000000
      3813       117  AGAL      C4             11.8048532244       13.5867996779       43.6505755014  LPSA4     9               6.0000000000
      3814       117  AGAL      H4             11.6687646928       13.7567667737       44.7734818408  LPSA4     9               6.0000000000
      3815       117  AGAL      O4             11.6588746134       14.8365189157       43.0499075873  LPSA4     9               6.0000000000
      3816       117  AGAL      HO4            11.1339287911       15.3749619877       43.6622427513  LPSA4     9               6.0000000000
      3817       117  AGAL      C6              9.2392068711       13.0230632938       43.8349081587  LPSA4     9               6.0000000000
      3818       117  AGAL      H61             8.4797031980       12.2222067523       43.6417203355  LPSA4     9               6.0000000000
      3819       117  AGAL      H62             9.2400975107       13.0990924071       44.9292747136  LPSA4     9               6.0000000000
      3820       117  AGAL      O6              8.7336031321       14.2513737365       43.4062227539  LPSA4     9               6.0000000000
      3821       117  AGAL      HO6             8.0971801060       14.0617212991       42.6923548993  LPSA4     9               6.0000000000
      3822       118  AGAL      C1             15.4995005605       11.8881291042       41.7517281777  LPSA4     10              7.0000000000
      3823       118  AGAL      H1             15.9466799524       12.8871419850       41.8429972083  LPSA4     10              7.0000000000
      3824       118  AGAL      C5             15.1465655755        9.9004767453       43.0613392294  LPSA4     10              7.0000000000
      3825       118  AGAL      H5             14.0529946686        9.9309451120       42.6233508762  LPSA4     10              7.0000000000
      3826       118  AGAL      O5             15.6595405087       11.2464499640       43.0470213554  LPSA4     10              7.0000000000
      3827       118  AGAL      C2             16.2723109387       11.0426686344       40.7227968417  LPSA4     10              7.0000000000
      3828       118  AGAL      H2             17.3824593601       11.1244429360       41.0433947026  LPSA4     10              7.0000000000
      3829       118  AGAL      O2             16.5067869968       11.6983917311       39.5532095562  LPSA4     10              7.0000000000
      3830       118  AGAL      HO2            17.4315238272       11.6963430179       39.3379401176  LPSA4     10              7.0000000000
      3831       118  AGAL      C3             15.8010608322        9.6326894469       40.6928251787  LPSA4     10              7.0000000000
      3832       118  AGAL      H3             14.7408080104        9.7287639758       40.4679648945  LPSA4     10              7.0000000000
      3833       118  AGAL      O3             16.4479567818        8.8051017826       39.7732034444  LPSA4     10              7.0000000000
      3834       118  AGAL      HO3            15.8300688876        8.6576613389       39.0151094934  LPSA4     10              7.0000000000
      3835       118  AGAL      C4             15.9496353317        9.0402473149       42.0524071915  LPSA4     10              7.0000000000
      3836       118  AGAL      H4             15.5126757796        8.0246186720       42.1099272557  LPSA4     10              7.0000000000
      3837       118  AGAL      O4             17.2715340811        8.9422185347       42.4965010455  LPSA4     10              7.0000000000
      3838       118  AGAL      HO4            17.5513705739        9.8371325987       42.5675127347  LPSA4     10              7.0000000000
      3839       118  AGAL      C6             15.0025447155        9.2419598770       44.3959537205  LPSA4     10              7.0000000000
      3840       118  AGAL      H61            14.4606238885        9.8609610365       45.1044438806  LPSA4     10              7.0000000000
      3841       118  AGAL      H62            14.2969209233        8.2877174036       44.2564473849  LPSA4     10              7.0000000000
      3842       118  AGAL      O6             16.1672107267        8.7781828475       45.1112340130  LPSA4     10              7.0000000000
      3843       118  AGAL      HO6            16.2492415327        9.3098817237       45.9237589285  LPSA4     10              7.0000000000
      3844       119  BGLC      C1             10.5894823693        8.2525600809       44.5018065681  LPSA4     11              6.0000000000
      3845       119  BGLC      H1             10.4991351293        7.1798790432       44.5883763758  LPSA4     11              6.0000000000
      3846       119  BGLC      C5              8.2417009067        8.8674554364       45.1248117688  LPSA4     11              6.0000000000
      3847       119  BGLC      H5              7.9426748705        7.7926729610       45.3871201921  LPSA4     11              6.0000000000
      3848       119  BGLC      O5              9.3527793616        8.9561949797       44.0830650888  LPSA4     11              6.0000000000
      3849       119  BGLC      C2             11.0454916132        8.8731971847       45.7977571702  LPSA4     11              6.0000000000
      3850       119  BGLC      H2             11.3501703267        9.9479790704       45.7293388291  LPSA4     11              6.0000000000
      3851       119  BGLC      O2             12.2744526997        8.2236482023       46.0886391483  LPSA4     11              6.0000000000
      3852       119  BGLC      HO2            12.9231728366        8.8736847011       46.2788110113  LPSA4     11              6.0000000000
      3853       119  BGLC      C3             10.0412082846        8.8351382365       46.8736276645  LPSA4     11              6.0000000000
      3854       119  BGLC      H3              9.8920989840        7.7204971896       47.1984917368  LPSA4     11              6.0000000000
      3855       119  BGLC      O3             10.5962667625        9.4948962110       48.0056213318  LPSA4     11              6.0000000000
      3856       119  BGLC      C4              8.8179003396        9.4768397392       46.4390836423  LPSA4     11              6.0000000000
      3857       119  BGLC      H4              9.0996129560       10.5575737405       46.2001611147  LPSA4     11              6.0000000000
      3858       119  BGLC      O4              7.8537110783        9.5447249071       47.4766894645  LPSA4     11              6.0000000000
      3859       119  BGLC      HO4             8.1568213937       10.1916184840       48.1247908570  LPSA4     11              6.0000000000
      3860       119  BGLC      C6              6.9475549480        9.4481826564       44.5291127165  LPSA4     11              6.0000000000
      3861       119  BGLC      H61             6.1928997275        9.7367396450       45.2481190913  LPSA4     11              6.0000000000
      3862       119  BGLC      H62             7.2486634304       10.3164629035       43.8913252379  LPSA4     11              6.0000000000
      3863       119  BGLC      O6              6.2835155516        8.5878406393       43.5637942269  LPSA4     11              6.0000000000
      3864       119  BGLC      HO6             5.5028467927        8.3491680854       44.0054369298  LPSA4     11              6.0000000000
      3865       120  BGLCNA    C1             10.6232634481        8.9011105875       49.3238540420  LPSA4     12              7.0000000000
      3866       120  BGLCNA    H1             11.5693551589        8.2646392652       49.3874222992  LPSA4     12              7.0000000000
      3867       120  BGLCNA    C5              9.5757508196        7.4047552814       50.8763077070  LPSA4     12              7.0000000000
      3868       120  BGLCNA    H5             10.5498530649        6.7450330769       50.9814236466  LPSA4     12              7.0000000000
      3869       120  BGLCNA    O5              9.4756297418        8.0632568101       49.5875345322  LPSA4     12              7.0000000000
      3870       120  BGLCNA    C2             10.6493813706       10.0082464365       50.3245054808  LPSA4     12              7.0000000000
      3871       120  BGLCNA    H2              9.5711596123       10.4671392786       50.3375086743  LPSA4     12              7.0000000000
      3872       120  BGLCNA    N              11.7566841856       10.9400212149       50.0347611965  LPSA4     12              7.0000000000
      3873       120  BGLCNA    HN             12.5584798249       10.4417766178       49.9972643287  LPSA4     12              7.0000000000
      3874       120  BGLCNA    C              11.5412032982       12.2122334118       49.8903426450  LPSA4     12              7.0000000000
      3875       120  BGLCNA    O              10.4227861970       12.6667645922       50.0855928044  LPSA4     12              7.0000000000
      3876       120  BGLCNA    CT             12.7287789655       13.0672105006       49.5677689528  LPSA4     12              7.0000000000
      3877       120  BGLCNA    HT1            12.9825615778       13.7580805676       50.3918503408  LPSA4     12              7.0000000000
      3878       120  BGLCNA    HT2            12.4504695736       13.8282604604       48.7104760971  LPSA4     12              7.0000000000
      3879       120  BGLCNA    HT3            13.5388081839       12.3736026123       49.2316245990  LPSA4     12              7.0000000000
      3880       120  BGLCNA    C3             10.7732304266        9.4718282034       51.6995695120  LPSA4     12              7.0000000000
      3881       120  BGLCNA    H3             11.8126488484        8.9240665867       51.8605307917  LPSA4     12              7.0000000000
      3882       120  BGLCNA    O3             10.8550027904       10.4969757289       52.7272334264  LPSA4     12              7.0000000000
      3883       120  BGLCNA    C4              9.6224924408        8.5525982266       51.9591692987  LPSA4     12              7.0000000000
      3884       120  BGLCNA    H4              8.5853881542        9.0583951136       51.9037868612  LPSA4     12              7.0000000000
      3885       120  BGLCNA    O4              9.6787174545        7.9940441603       53.2294962294  LPSA4     12              7.0000000000
      3886       120  BGLCNA    HO4            10.3682782795        7.2695423202       53.2834945119  LPSA4     12              7.0000000000
      3887       120  BGLCNA    C6              8.4084447322        6.3998256434       50.9528560558  LPSA4     12              7.0000000000
      3888       120  BGLCNA    H61             8.3726882489        5.9423065985       51.9144325068  LPSA4     12              7.0000000000
      3889       120  BGLCNA    H62             7.5347932401        7.0301530640       50.8287962869  LPSA4     12              7.0000000000
      3890       120  BGLCNA    O6              8.4472297714        5.5174605107       49.8597561973  LPSA4     12              7.0000000000
      3891       120  BGLCNA    HO6             8.9751996683        4.8035357608       50.1903398796  LPSA4     12              7.0000000000
      3892       121  AGAL      C1             11.8054477602       10.2502676893       53.8132743488  LPSA4     13              8.0000000000
      3893       121  AGAL      H1             11.6613745448        9.2152788615       54.1959401301  LPSA4     13              8.0000000000
      3894       121  AGAL      C5             13.2991851319       12.0694300609       53.2950732168  LPSA4     13              8.0000000000
      3895       121  AGAL      H5             12.5397556244       12.3384469301       52.5641412600  LPSA4     13              8.0000000000
      3896       121  AGAL      O5             13.1850223763       10.6511547224       53.4918445955  LPSA4     13              8.0000000000
      3897       121  AGAL      C2             11.5133836564       11.0690134531       55.1010141246  LPSA4     13              8.0000000000
      3898       121  AGAL      H2             12.3725976359       10.9530150453       55.7917211299  LPSA4     13              8.0000000000
      3899       121  AGAL      O2             10.3501373192       10.6289084112       55.7701983428  LPSA4     13              8.0000000000
      3900       121  AGAL      C3             11.6501569596       12.5973798457       54.8979691660  LPSA4     13              8.0000000000
      3901       121  AGAL      H3             11.0392040029       12.8835284271       54.0477453328  LPSA4     13              8.0000000000
      3902       121  AGAL      O3             11.1025575486       13.3530896638       55.9888739531  LPSA4     13              8.0000000000
      3903       121  AGAL      HO3            10.6386153744       14.1265197084       55.6848713412  LPSA4     13              8.0000000000
      3904       121  AGAL      C4             12.9869348668       12.9295720401       54.5514025965  LPSA4     13              8.0000000000
      3905       121  AGAL      H4             13.0648046356       14.0266622582       54.1954731349  LPSA4     13              8.0000000000
      3906       121  AGAL      O4             13.9241871080       12.6727798041       55.5743212917  LPSA4     13              8.0000000000
      3907       121  AGAL      HO4            13.8367653788       11.8334860016       56.0499681296  LPSA4     13              8.0000000000
      3908       121  AGAL      C6             14.5263495998       12.5250782404       52.5301443486  LPSA4     13              8.0000000000
      3909       121  AGAL      H61            14.6446123297       11.9127229034       51.6253596531  LPSA4     13              8.0000000000
      3910       121  AGAL      H62            14.4445611945       13.6287515514       52.3684678279  LPSA4     13              8.0000000000
      3911       121  AGAL      O6             15.6999282213       12.3570800794       53.2985910507  LPSA4     13              8.0000000000
      3912       121  AGAL      HO6            15.7622010220       13.0907466111       53.9299633642  LPSA4     13              8.0000000000
      3913       122  ARHM      C1             10.4487522617        9.9903903831       57.0117786358  LPSA4     14              9.0000000000
      3914       122  ARHM      H1             11.4466313333        9.5049471925       56.9981767125  LPSA4     14              9.0000000000
      3915       122  ARHM      C5              8.1834495031        9.4856758450       57.1930138837  LPSA4     14              9.0000000000
      3916       122  ARHM      H5              8.0343251429       10.0501398625       56.1976867078  LPSA4     14              9.0000000000
      3917       122  ARHM      O5              9.4658850069        8.9798292520       57.1718909996  LPSA4     14              9.0000000000
      3918       122  ARHM      C2             10.3240317872       11.0363845919       58.1413490634  LPSA4     14              9.0000000000
      3919       122  ARHM      H2             11.0640064575       11.7848495136       57.8875987320  LPSA4     14              9.0000000000
      3920       122  ARHM      O2             10.5103655550       10.5432369010       59.4330148990  LPSA4     14              9.0000000000
      3921       122  ARHM      C3              8.9444790670       11.6278651690       58.1095432995  LPSA4     14              9.0000000000
      3922       122  ARHM      H3              8.7260701409       11.9336556793       57.0440121713  LPSA4     14              9.0000000000
      3923       122  ARHM      O3              8.7882145461       12.7947441983       58.8567888868  LPSA4     14              9.0000000000
      3924       122  ARHM      HO3             8.7742484841       12.4905744273       59.8104957846  LPSA4     14              9.0000000000
      3925       122  ARHM      C4              7.9938325999       10.5114675530       58.3490442956  LPSA4     14              9.0000000000
      3926       122  ARHM      H4              8.1327086785        9.9294830501       59.2902338481  LPSA4     14              9.0000000000
      3927       122  ARHM      O4              6.6456780311       11.0481855793       58.4446785014  LPSA4     14              9.0000000000
      3928       122  ARHM      HO4             6.2175798256       10.9862168866       59.2969967688  LPSA4     14              9.0000000000
      3929       122  ARHM      C6              7.1674081671        8.3323516525       57.2492155848  LPSA4     14              9.0000000000
      3930       122  ARHM      H61             7.3907466271        7.4624250936       56.5358243550  LPSA4     14              9.0000000000
      3931       122  ARHM      H62             7.1128344959        8.0379787654       58.3170764683  LPSA4     14              9.0000000000
      3932       122  ARHM      H63             6.1336892692        8.5082168687       56.9421594120  LPSA4     14              9.0000000000
      3933       123  ARHM      C1             11.5935299411        9.8099638900       59.7267990175  LPSA4     15             10.0000000000
      3934       123  ARHM      H1             12.4391660891       10.0476488218       59.0458905905  LPSA4     15             10.0000000000
      3935       123  ARHM      C5             10.4331053679        7.8164043313       60.6468530148  LPSA4     15             10.0000000000
      3936       123  ARHM      H5              9.3717458063        8.1659727684       60.4457705401  LPSA4     15             10.0000000000
      3937       123  ARHM      O5             11.3614859210        8.3801344775       59.6688136410  LPSA4     15             10.0000000000
      3938       123  ARHM      C2             12.0657725286       10.1417088398       61.1407671534  LPSA4     15             10.0000000000
      3939       123  ARHM      H2             12.1375453115       11.2930417413       61.2133420761  LPSA4     15             10.0000000000
      3940       123  ARHM      O2             13.3596445003        9.4940933975       61.3234079317  LPSA4     15             10.0000000000
      3941       123  ARHM      C3             11.0399097992        9.6602322763       62.1677656617  LPSA4     15             10.0000000000
      3942       123  ARHM      H3             10.0536320816       10.1086872900       61.8628392879  LPSA4     15             10.0000000000
      3943       123  ARHM      O3             11.3985545638       10.3238898592       63.4092175029  LPSA4     15             10.0000000000
      3944       123  ARHM      C4             10.9142535563        8.2183502465       62.0487117432  LPSA4     15             10.0000000000
      3945       123  ARHM      H4             11.9751897984        7.7527103062       62.1496903561  LPSA4     15             10.0000000000
      3946       123  ARHM      O4             10.0460559040        7.5441570835       62.9635513464  LPSA4     15             10.0000000000
      3947       123  ARHM      HO4            10.2705619346        6.6258675864       62.9565205260  LPSA4     15             10.0000000000
      3948       123  ARHM      C6             10.3465234104        6.3208848340       60.4460959132  LPSA4     15             10.0000000000
      3949       123  ARHM      H61             9.5901747828        5.8057266565       61.0956562646  LPSA4     15             10.0000000000
      3950       123  ARHM      H62            10.2833530824        6.0983724381       59.3910198679  LPSA4     15             10.0000000000
      3951       123  ARHM      H63            11.2470660402        5.7842433321       60.8578185328  LPSA4     15             10.0000000000
      3952       124  BMANNA    C1             14.0977716130        9.7165640675       62.5145562334  LPSA4     16             11.0000000000
      3953       124  BMANNA    H1             13.5475016269        9.1331702548       63.3432051365  LPSA4     16             11.0000000000
      3954       124  BMANNA    C5             14.8904911942       11.1691583776       64.1851548173  LPSA4     16             11.0000000000
      3955       124  BMANNA    H5             14.4095413249       10.5842392806       64.9800677769  LPSA4     16             11.0000000000
      3956       124  BMANNA    O5             14.1917031502       11.0782676620       62.9158851071  LPSA4     16             11.0000000000
      3957       124  BMANNA    C2             15.5022669183        9.1137242706       62.2781089586  LPSA4     16             11.0000000000
      3958       124  BMANNA    H2             15.3018183065        8.0481107027       61.9912908466  LPSA4     16             11.0000000000
      3959       124  BMANNA    N              16.3416573609        9.6947964203       61.2264456342  LPSA4     16             11.0000000000
      3960       124  BMANNA    HN             16.8846555985       10.4259254803       61.5688724990  LPSA4     16             11.0000000000
      3961       124  BMANNA    C              16.3401264965        9.3227641464       59.9704010620  LPSA4     16             11.0000000000
      3962       124  BMANNA    O              15.6499945650        8.3504775830       59.5582221915  LPSA4     16             11.0000000000
      3963       124  BMANNA    CT             17.2188226796       10.1228678574       59.1331689300  LPSA4     16             11.0000000000
      3964       124  BMANNA    HT1            18.1428561471        9.6531467205       58.8344492748  LPSA4     16             11.0000000000
      3965       124  BMANNA    HT2            17.4906044585       11.1105446818       59.5043001239  LPSA4     16             11.0000000000
      3966       124  BMANNA    HT3            16.7389757598       10.3329183867       58.1231520073  LPSA4     16             11.0000000000
      3967       124  BMANNA    C3             16.2033664786        9.1770432233       63.6119771117  LPSA4     16             11.0000000000
      3968       124  BMANNA    H3             15.6173460081        8.6131886584       64.3839812837  LPSA4     16             11.0000000000
      3969       124  BMANNA    O3             17.4625346567        8.5683673879       63.6122488842  LPSA4     16             11.0000000000
      3970       124  BMANNA    HO3            17.5196635312        7.9131059619       64.2950500102  LPSA4     16             11.0000000000
      3971       124  BMANNA    C4             16.3296445965       10.6243250455       64.1045846713  LPSA4     16             11.0000000000
      3972       124  BMANNA    H4             16.9267869061       11.2481517678       63.4124605202  LPSA4     16             11.0000000000
      3973       124  BMANNA    O4             16.9605999402       10.8300946613       65.3816866120  LPSA4     16             11.0000000000
      3974       124  BMANNA    HO4            17.3227400942       11.7134023976       65.4353184152  LPSA4     16             11.0000000000
      3975       124  BMANNA    C6             14.9068965764       12.5982565740       64.7427751243  LPSA4     16             11.0000000000
      3976       124  BMANNA    H61            14.9281516457       12.5120791403       65.8875394407  LPSA4     16             11.0000000000
      3977       124  BMANNA    H62            15.8090669616       13.1334539331       64.4389269682  LPSA4     16             11.0000000000
      3978       124  BMANNA    O6             13.7651624943       13.3935633057       64.3660927576  LPSA4     16             11.0000000000
      3979       124  BMANNA    HO6            14.1947192607       14.1468721259       63.9036969990  LPSA4     16             11.0000000000
      3980       125  BGLCNA    C1             10.3646919754       10.7289546359       64.1715778089  LPSA4     17             11.0000000000
      3981       125  BGLCNA    H1              9.4415788704       10.0701380619       63.9082176002  LPSA4     17             11.0000000000
      3982       125  BGLCNA    C5              8.8110429810       12.5754985310       64.5563394407  LPSA4     17             11.0000000000
      3983       125  BGLCNA    H5              7.8725062898       11.9625890473       64.2825289487  LPSA4     17             11.0000000000
      3984       125  BGLCNA    O5              9.9047162954       12.0560200692       63.7849982893  LPSA4     17             11.0000000000
      3985       125  BGLCNA    C2             10.8013143480       10.6837806133       65.5899343931  LPSA4     17             11.0000000000
      3986       125  BGLCNA    H2             11.6911662924       11.3600857338       65.8249043900  LPSA4     17             11.0000000000
      3987       125  BGLCNA    N              11.3338972989        9.4153113930       65.8849826081  LPSA4     17             11.0000000000
      3988       125  BGLCNA    HN             10.9395771850        8.6032411661       65.4150135415  LPSA4     17             11.0000000000
      3989       125  BGLCNA    C              12.2110589520        9.0536669832       66.8043620798  LPSA4     17             11.0000000000
      3990       125  BGLCNA    O              12.8248900319        9.8767263852       67.4729873017  LPSA4     17             11.0000000000
      3991       125  BGLCNA    CT             12.4156724348        7.5961525597       66.9728872304  LPSA4     17             11.0000000000
      3992       125  BGLCNA    HT1            13.3167234927        7.1135793417       66.5529393721  LPSA4     17             11.0000000000
      3993       125  BGLCNA    HT2            11.4655786613        7.0951145469       66.7043805047  LPSA4     17             11.0000000000
      3994       125  BGLCNA    HT3            12.4852381748        7.3313105144       68.1408097225  LPSA4     17             11.0000000000
      3995       125  BGLCNA    C3              9.6055046192       11.1178960443       66.4076579941  LPSA4     17             11.0000000000
      3996       125  BGLCNA    H3              8.8068334426       10.3878933756       66.0441361901  LPSA4     17             11.0000000000
      3997       125  BGLCNA    O3              9.9063016254       10.8263929746       67.8205355914  LPSA4     17             11.0000000000
      3998       125  BGLCNA    C4              9.2626111179       12.5572562234       66.0496966154  LPSA4     17             11.0000000000
      3999       125  BGLCNA    H4             10.1832771162       13.2368853048       66.1123142204  LPSA4     17             11.0000000000
      4000       125  BGLCNA    O4              8.2976943099       13.1149047669       66.9186044206  LPSA4     17             11.0000000000
      4001       125  BGLCNA    HO4             8.0199931683       14.0011647420       66.7204061560  LPSA4     17             11.0000000000
      4002       125  BGLCNA    C6              8.5122247080       14.0232518317       64.1200051697  LPSA4     17             11.0000000000
      4003       125  BGLCNA    H61             7.4540258923       14.1982953960       64.1272946536  LPSA4     17             11.0000000000
      4004       125  BGLCNA    H62             8.9939127363       14.7724065315       64.8212395067  LPSA4     17             11.0000000000
      4005       125  BGLCNA    O6              8.9777392569       14.3032653854       62.7926115083  LPSA4     17             11.0000000000
      4006       125  BGLCNA    HO6             8.5563966774       13.7051426792       62.1856770532  LPSA4     17             11.0000000000
      4007       126  AGAL      C1              8.7779431862       10.3886856756       68.6198653987  LPSA4     18             12.0000000000
      4008       126  AGAL      H1              8.1317935443       11.2966387958       68.8082567594  LPSA4     18             12.0000000000
      4009       126  AGAL      C5              8.7343971862        8.1096903292       67.8636918791  LPSA4     18             12.0000000000
      4010       126  AGAL      H5              9.7062414819        8.3169111321       67.4068928888  LPSA4     18             12.0000000000
      4011       126  AGAL      O5              8.0129087171        9.3886110647       67.9834320655  LPSA4     18             12.0000000000
      4012       126  AGAL      C2              9.2344358715        9.7796056988       70.0000206359  LPSA4     18             12.0000000000
      4013       126  AGAL      H2              8.2287355250        9.5011464574       70.3908489884  LPSA4     18             12.0000000000
      4014       126  AGAL      O2              9.7187129445       10.7789856590       70.8342757016  LPSA4     18             12.0000000000
      4015       126  AGAL      C3              9.9972545830        8.5075780345       69.8682924558  LPSA4     18             12.0000000000
      4016       126  AGAL      H3             10.8530979286        8.6755604102       69.0958348126  LPSA4     18             12.0000000000
      4017       126  AGAL      O3             10.5584438947        8.0891191772       71.0758896640  LPSA4     18             12.0000000000
      4018       126  AGAL      HO3            11.4742096327        7.8262111289       70.9682873819  LPSA4     18             12.0000000000
      4019       126  AGAL      C4              9.1601087312        7.5187238675       69.1634745928  LPSA4     18             12.0000000000
      4020       126  AGAL      H4              9.6584695406        6.5552341312       68.9039691178  LPSA4     18             12.0000000000
      4021       126  AGAL      O4              8.0127358080        7.1514717903       69.9734134928  LPSA4     18             12.0000000000
      4022       126  AGAL      HO4             8.3215838738        6.5340048166       70.7236544006  LPSA4     18             12.0000000000
      4023       126  AGAL      C6              8.0835120202        7.3374060727       66.8042742825  LPSA4     18             12.0000000000
      4024       126  AGAL      H61             8.1797907102        7.9216411619       65.8877991861  LPSA4     18             12.0000000000
      4025       126  AGAL      H62             8.7091604792        6.4166735151       66.6499463921  LPSA4     18             12.0000000000
      4026       126  AGAL      O6              6.7881667933        7.0664614709       66.9803033045  LPSA4     18             12.0000000000
      4027       126  AGAL      HO6             6.3276392234        7.5322972591       67.6707071977  LPSA4     18             12.0000000000
      4028       127  ARHM      C1              9.2125754076       10.5889581122       72.1803514454  LPSA4     19             13.0000000000
      4029       127  ARHM      H1              8.8814174147        9.5793257372       72.3185909119  LPSA4     19             13.0000000000
      4030       127  ARHM      C5              8.1137529865       12.6891517969       72.2512180912  LPSA4     19             13.0000000000
      4031       127  ARHM      H5              8.5023853395       12.8544274360       71.2133247196  LPSA4     19             13.0000000000
      4032       127  ARHM      O5              7.9757922499       11.2768124247       72.4162684983  LPSA4     19             13.0000000000
      4033       127  ARHM      C2             10.2793471177       11.0358409581       73.1100514097  LPSA4     19             13.0000000000
      4034       127  ARHM      H2             11.2423513725       10.6270206106       72.9420985559  LPSA4     19             13.0000000000
      4035       127  ARHM      O2              9.9144670780       10.7381558166       74.4131644751  LPSA4     19             13.0000000000
      4036       127  ARHM      C3             10.4020783089       12.5862159194       72.9859276785  LPSA4     19             13.0000000000
      4037       127  ARHM      H3             10.6375469793       12.8030902748       71.9471750908  LPSA4     19             13.0000000000
      4038       127  ARHM      O3             11.4360012858       13.0704020985       73.7644258584  LPSA4     19             13.0000000000
      4039       127  ARHM      HO3            11.3163071798       12.7009310802       74.6464134549  LPSA4     19             13.0000000000
      4040       127  ARHM      C4              9.1357149751       13.2872779988       73.2443334127  LPSA4     19             13.0000000000
      4041       127  ARHM      H4              8.8508765194       13.0219167940       74.2703943704  LPSA4     19             13.0000000000
      4042       127  ARHM      O4              9.1958510082       14.6768539896       73.1708570575  LPSA4     19             13.0000000000
      4043       127  ARHM      HO4             9.4043801872       14.8870885781       72.2126258713  LPSA4     19             13.0000000000
      4044       127  ARHM      C6              6.7469427038       13.3952601424       72.3031700958  LPSA4     19             13.0000000000
      4045       127  ARHM      H61             6.2217918047       12.8739801020       71.5186681997  LPSA4     19             13.0000000000
      4046       127  ARHM      H62             6.1794743744       13.2945943727       73.2001761489  LPSA4     19             13.0000000000
      4047       127  ARHM      H63             6.8014742405       14.4660638303       72.0875448643  LPSA4     19             13.0000000000
      4048       128  ARHM      C1             10.0712485066        9.3871872454       74.6981797177  LPSA4     20             14.0000000000
      4049       128  ARHM      H1             10.6557773921        8.8324272547       73.8936196974  LPSA4     20             14.0000000000
      4050       128  ARHM      C5              8.0892064087        9.0258372942       75.9960310464  LPSA4     20             14.0000000000
      4051       128  ARHM      H5              7.9089012187       10.1149740808       75.8071112250  LPSA4     20             14.0000000000
      4052       128  ARHM      O5              8.8813167141        8.6170594075       74.8741575474  LPSA4     20             14.0000000000
      4053       128  ARHM      C2             10.9391774776        9.2250636825       75.9438944127  LPSA4     20             14.0000000000
      4054       128  ARHM      H2             11.8627884759        9.9244347513       75.7904987900  LPSA4     20             14.0000000000
      4055       128  ARHM      O2             11.3333014111        7.8604941843       76.2145535291  LPSA4     20             14.0000000000
      4056       128  ARHM      C3             10.1082685803        9.6560480933       77.0746584307  LPSA4     20             14.0000000000
      4057       128  ARHM      H3              9.8152104487       10.7647597824       76.9570890266  LPSA4     20             14.0000000000
      4058       128  ARHM      O3             10.9641159372        9.5969565422       78.2431898216  LPSA4     20             14.0000000000
      4059       128  ARHM      C4              8.8593376873        8.8518967936       77.2147849866  LPSA4     20             14.0000000000
      4060       128  ARHM      H4              9.0442902203        7.7999742999       77.2882629629  LPSA4     20             14.0000000000
      4061       128  ARHM      O4              8.1810347900        9.2482739732       78.4294019453  LPSA4     20             14.0000000000
      4062       128  ARHM      HO4             7.3334156420        9.0683217608       78.0714846557  LPSA4     20             14.0000000000
      4063       128  ARHM      C6              6.7961184591        8.3234280120       75.9818768401  LPSA4     20             14.0000000000
      4064       128  ARHM      H61             6.7757628591        7.1944144579       76.0487105533  LPSA4     20             14.0000000000
      4065       128  ARHM      H62             6.1382001351        8.7353165284       76.7492574554  LPSA4     20             14.0000000000
      4066       128  ARHM      H63             6.2014256927        8.4524447706       75.0059134709  LPSA4     20             14.0000000000
      4067       129  BMANNA    C1             12.4606079842        7.6297358766       75.4501725836  LPSA4     21             15.0000000000
      4068       129  BMANNA    H1             12.6180459111        8.4604382618       74.6495731600  LPSA4     21             15.0000000000
      4069       129  BMANNA    C5             13.4106564618        6.3866209642       73.6578092950  LPSA4     21             15.0000000000
      4070       129  BMANNA    H5             13.6843258760        7.3488918580       73.0422409194  LPSA4     21             15.0000000000
      4071       129  BMANNA    O5             12.2454465757        6.4924198684       74.5460975074  LPSA4     21             15.0000000000
      4072       129  BMANNA    C2             13.6497875053        7.4050521969       76.3268603500  LPSA4     21             15.0000000000
      4073       129  BMANNA    H2             13.6958614337        8.3527882280       76.8663433126  LPSA4     21             15.0000000000
      4074       129  BMANNA    N              13.4428180828        6.3009795303       77.2602735953  LPSA4     21             15.0000000000
      4075       129  BMANNA    HN             13.1612399534        5.4604354394       76.8630196157  LPSA4     21             15.0000000000
      4076       129  BMANNA    C              13.8750748303        6.2745199884       78.6142451918  LPSA4     21             15.0000000000
      4077       129  BMANNA    O              14.6388868017        7.1442652720       79.0340579138  LPSA4     21             15.0000000000
      4078       129  BMANNA    CT             13.4130099055        5.1055948725       79.5125915666  LPSA4     21             15.0000000000
      4079       129  BMANNA    HT1            14.0657863905        4.2262371401       79.3040814335  LPSA4     21             15.0000000000
      4080       129  BMANNA    HT2            12.3351169824        4.9710353494       79.3224353366  LPSA4     21             15.0000000000
      4081       129  BMANNA    HT3            13.5470726322        5.3757294709       80.6000991146  LPSA4     21             15.0000000000
      4082       129  BMANNA    C3             14.8391503290        7.2688836160       75.4428482744  LPSA4     21             15.0000000000
      4083       129  BMANNA    H3             14.8762147665        8.2583825402       75.0091666053  LPSA4     21             15.0000000000
      4084       129  BMANNA    O3             16.0392064183        7.0794994726       76.1769203835  LPSA4     21             15.0000000000
      4085       129  BMANNA    HO3            15.9119901682        6.3359169552       76.7354970047  LPSA4     21             15.0000000000
      4086       129  BMANNA    C4             14.6522670779        6.1190386568       74.4866217523  LPSA4     21             15.0000000000
      4087       129  BMANNA    H4             14.6076565215        5.0389630727       75.0002820064  LPSA4     21             15.0000000000
      4088       129  BMANNA    O4             15.7362981312        5.9693053064       73.6152290754  LPSA4     21             15.0000000000
      4089       129  BMANNA    HO4            16.1994637785        5.1164938696       73.7703874424  LPSA4     21             15.0000000000
      4090       129  BMANNA    C6             13.2155286482        5.3920155478       72.6348027846  LPSA4     21             15.0000000000
      4091       129  BMANNA    H61            13.9996192512        5.4049103894       71.8494922130  LPSA4     21             15.0000000000
      4092       129  BMANNA    H62            13.4376467718        4.3738506949       73.0558617198  LPSA4     21             15.0000000000
      4093       129  BMANNA    O6             11.9453497143        5.2900077042       72.0654385618  LPSA4     21             15.0000000000
      4094       129  BMANNA    HO6            11.3161974597        5.1863049220       72.7784055652  LPSA4     21             15.0000000000
      4095       130  BGLCNA    C1             10.8678732549       10.5674228880       79.2248726046  LPSA4     22             15.0000000000
      4096       130  BGLCNA    H1              9.8623345324       11.0790750294       79.2753119810  LPSA4     22             15.0000000000
      4097       130  BGLCNA    C5             11.6591290261       12.6589729348       80.1145289529  LPSA4     22             15.0000000000
      4098       130  BGLCNA    H5             10.5441368692       13.0138188920       80.0727605020  LPSA4     22             15.0000000000
      4099       130  BGLCNA    O5             11.7752030283       11.6208902190       79.0803056561  LPSA4     22             15.0000000000
      4100       130  BGLCNA    C2             11.1029552563        9.9100832303       80.5602818744  LPSA4     22             15.0000000000
      4101       130  BGLCNA    H2             12.1819943497        9.5326577220       80.4633107900  LPSA4     22             15.0000000000
      4102       130  BGLCNA    N              10.1677032367        8.8145145849       80.7025670875  LPSA4     22             15.0000000000
      4103       130  BGLCNA    HN              9.2433233721        9.0048414046       80.4501896382  LPSA4     22             15.0000000000
      4104       130  BGLCNA    C              10.4244683781        7.6850009572       81.3295640408  LPSA4     22             15.0000000000
      4105       130  BGLCNA    O              11.5372785814        7.4719938475       81.8448112003  LPSA4     22             15.0000000000
      4106       130  BGLCNA    CT              9.3246540527        6.6898252143       81.4359073222  LPSA4     22             15.0000000000
      4107       130  BGLCNA    HT1             9.4664017736        6.1036606210       80.5353412834  LPSA4     22             15.0000000000
      4108       130  BGLCNA    HT2             8.3669996280        7.2360104878       81.2752873926  LPSA4     22             15.0000000000
      4109       130  BGLCNA    HT3             9.2456208143        6.1708918900       82.3679651303  LPSA4     22             15.0000000000
      4110       130  BGLCNA    C3             11.0117940813       10.9152746040       81.6855161512  LPSA4     22             15.0000000000
      4111       130  BGLCNA    H3              9.9993573462       11.3897842894       81.6419517197  LPSA4     22             15.0000000000
      4112       130  BGLCNA    O3             11.1174725761       10.1624666619       82.8729300216  LPSA4     22             15.0000000000
      4113       130  BGLCNA    C4             12.0125776894       12.0549960738       81.4704242134  LPSA4     22             15.0000000000
      4114       130  BGLCNA    H4             12.9632048499       11.5935041784       81.4144045074  LPSA4     22             15.0000000000
      4115       130  BGLCNA    O4             11.9996123088       13.0038272443       82.5140850489  LPSA4     22             15.0000000000
      4116       130  BGLCNA    HO4            12.9154097628       13.2645588809       82.7130071916  LPSA4     22             15.0000000000
      4117       130  BGLCNA    C6             12.6177011437       13.7766502382       79.7284495560  LPSA4     22             15.0000000000
      4118       130  BGLCNA    H61            12.7534834084       14.3500481265       80.6924177192  LPSA4     22             15.0000000000
      4119       130  BGLCNA    H62            13.6203699778       13.3782467632       79.4648784538  LPSA4     22             15.0000000000
      4120       130  BGLCNA    O6             12.1108530726       14.6849219203       78.8100863794  LPSA4     22             15.0000000000
      4121       130  BGLCNA    HO6            11.8594511467       14.2126407417       78.0328486455  LPSA4     22             15.0000000000
      4122       131  AGAL      C1             10.6553219872       10.6903455747       84.0628261254  LPSA4     23             16.0000000000
      4123       131  AGAL      H1             11.3557458362       11.4485496232       84.5106287163  LPSA4     23             16.0000000000
      4124       131  AGAL      C5              8.3176207378       10.3541239556       83.7583018441  LPSA4     23             16.0000000000
      4125       131  AGAL      H5              8.5973017112        9.7204734234       82.8366412438  LPSA4     23             16.0000000000
      4126       131  AGAL      O5              9.3528479214       11.2800435839       83.9976212264  LPSA4     23             16.0000000000
      4127       131  AGAL      C2             10.6254599361        9.6248738663       85.1427633740  LPSA4     23             16.0000000000
      4128       131  AGAL      H2             10.2695643620       10.1364537220       86.0076373284  LPSA4     23             16.0000000000
      4129       131  AGAL      O2             11.8949293145        9.1330707930       85.5000844886  LPSA4     23             16.0000000000
      4130       131  AGAL      C3              9.5746641253        8.5928788123       84.9194901020  LPSA4     23             16.0000000000
      4131       131  AGAL      H3              9.7464075622        8.2172285017       83.8641570193  LPSA4     23             16.0000000000
      4132       131  AGAL      O3              9.6454642936        7.4646150134       85.7108298168  LPSA4     23             16.0000000000
      4133       131  AGAL      HO3             9.7797228881        7.8143935101       86.6206525111  LPSA4     23             16.0000000000
      4134       131  AGAL      C4              8.2500705408        9.2949790354       84.8901212015  LPSA4     23             16.0000000000
      4135       131  AGAL      H4              7.4054522827        8.6097646752       84.6506069022  LPSA4     23             16.0000000000
      4136       131  AGAL      O4              7.8168607052        9.8703873240       86.1132943683  LPSA4     23             16.0000000000
      4137       131  AGAL      HO4             7.3802945140       10.6081639927       85.8278371007  LPSA4     23             16.0000000000
      4138       131  AGAL      C6              7.0550867203       11.0517448027       83.3278962909  LPSA4     23             16.0000000000
      4139       131  AGAL      H61             7.2843845319       11.7923688137       82.6074235255  LPSA4     23             16.0000000000
      4140       131  AGAL      H62             6.3845758223       10.3984619981       82.7620574208  LPSA4     23             16.0000000000
      4141       131  AGAL      O6              6.4700400720       11.7083972036       84.3845202183  LPSA4     23             16.0000000000
      4142       131  AGAL      HO6             5.6925869483       12.2040164009       84.1740981585  LPSA4     23             16.0000000000
      4143       132  ARHM      C1             12.8418620091        9.8378523805       86.2818185944  LPSA4     24             17.0000000000
      4144       132  ARHM      H1             12.4985579664       10.8507038007       86.3680542693  LPSA4     24             17.0000000000
      4145       132  ARHM      C5             14.8230653831        8.6551221088       85.6157638072  LPSA4     24             17.0000000000
      4146       132  ARHM      H5             14.2035088508        8.0312275200       85.0070975499  LPSA4     24             17.0000000000
      4147       132  ARHM      O5             14.2542557085        9.9370007120       85.8657410059  LPSA4     24             17.0000000000
      4148       132  ARHM      C2             12.7694657192        9.1268495101       87.5921581840  LPSA4     24             17.0000000000
      4149       132  ARHM      H2             11.7565041202        8.9427461798       87.8984046741  LPSA4     24             17.0000000000
      4150       132  ARHM      O2             13.5643869735        9.7684751095       88.6075763533  LPSA4     24             17.0000000000
      4151       132  ARHM      C3             13.4168379151        7.7451624445       87.4133527752  LPSA4     24             17.0000000000
      4152       132  ARHM      H3             12.8011679410        7.2372197431       86.6640279609  LPSA4     24             17.0000000000
      4153       132  ARHM      O3             13.2842585608        6.8666252734       88.5620392964  LPSA4     24             17.0000000000
      4154       132  ARHM      HO3            14.0443343126        7.0766221275       89.1463757531  LPSA4     24             17.0000000000
      4155       132  ARHM      C4             14.8599643444        7.8576619637       86.9402325015  LPSA4     24             17.0000000000
      4156       132  ARHM      H4             15.4265973042        8.5223718085       87.7071552895  LPSA4     24             17.0000000000
      4157       132  ARHM      O4             15.5455731611        6.6284734419       86.8379508285  LPSA4     24             17.0000000000
      4158       132  ARHM      HO4            16.4696178714        6.6789015640       87.0219124236  LPSA4     24             17.0000000000
      4159       132  ARHM      C6             16.2430725359        8.7322702021       84.9175891319  LPSA4     24             17.0000000000
      4160       132  ARHM      H61            16.4180679546        7.7986344132       84.3853494017  LPSA4     24             17.0000000000
      4161       132  ARHM      H62            16.1843969232        9.5454974433       84.2649634992  LPSA4     24             17.0000000000
      4162       132  ARHM      H63            17.0429640860        9.0121356336       85.6811466487  LPSA4     24             17.0000000000
      4163       133  ARHM      C1             12.8749372963       10.8849280491       89.1588742089  LPSA4     25             18.0000000000
      4164       133  ARHM      H1             12.1397713423       11.2251335082       88.4722246341  LPSA4     25             18.0000000000
      4165       133  ARHM      C5             14.8080981556       11.8698795920       90.1670531641  LPSA4     25             18.0000000000
      4166       133  ARHM      H5             15.4588155224       11.0850215483       89.8870230824  LPSA4     25             18.0000000000
      4167       133  ARHM      O5             13.7222202140       12.0486099640       89.2315309535  LPSA4     25             18.0000000000
      4168       133  ARHM      C2             12.3061680720       10.5026721501       90.4685713243  LPSA4     25             18.0000000000
      4169       133  ARHM      H2             11.7548337498        9.5107935662       90.3413143991  LPSA4     25             18.0000000000
      4170       133  ARHM      O2             11.3922799349       11.5439597888       90.9328696740  LPSA4     25             18.0000000000
      4171       133  ARHM      C3             13.5102528104       10.3673474329       91.4562257518  LPSA4     25             18.0000000000
      4172       133  ARHM      H3             14.1504633665        9.5357175980       91.0689171631  LPSA4     25             18.0000000000
      4173       133  ARHM      O3             12.9523451059        9.9718990804       92.6920647463  LPSA4     25             18.0000000000
      4174       133  ARHM      C4             14.3036008232       11.5508669222       91.5960769721  LPSA4     25             18.0000000000
      4175       133  ARHM      H4             13.6574543404       12.4791825631       91.8876801091  LPSA4     25             18.0000000000
      4176       133  ARHM      O4             15.2939248780       11.2730813114       92.5862492282  LPSA4     25             18.0000000000
      4177       133  ARHM      HO4            15.4031363560       12.1026316033       93.0149361445  LPSA4     25             18.0000000000
      4178       133  ARHM      C6             15.7326598403       13.0856258033       90.2083352735  LPSA4     25             18.0000000000
      4179       133  ARHM      H61            16.0416202323       13.4104751694       89.1912344565  LPSA4     25             18.0000000000
      4180       133  ARHM      H62            15.2570040968       13.9934986896       90.6686969550  LPSA4     25             18.0000000000
      4181       133  ARHM      H63            16.6949480423       12.9088787681       90.8233913566  LPSA4     25             18.0000000000
      4182       134  BMANNA    C1             10.1281789310       11.5143148764       90.3138108879  LPSA4     26             19.0000000000
      4183       134  BMANNA    H1              9.9139883887       10.5119443060       89.8388342826  LPSA4     26             19.0000000000
      4184       134  BMANNA    C5              8.6404492073       12.3217713478       88.6312665858  LPSA4     26             19.0000000000
      4185       134  BMANNA    H5              8.6120341850       11.3309347654       88.1771240033  LPSA4     26             19.0000000000
      4186       134  BMANNA    O5              9.9323362957       12.4683319567       89.2346891933  LPSA4     26             19.0000000000
      4187       134  BMANNA    C2              9.1393622482       11.7477867734       91.3475147821  LPSA4     26             19.0000000000
      4188       134  BMANNA    H2              9.3210791628       10.9192708008       92.1081287357  LPSA4     26             19.0000000000
      4189       134  BMANNA    N               9.3743984346       13.0904339266       91.9238920796  LPSA4     26             19.0000000000
      4190       134  BMANNA    HN              9.3715017124       13.8232304366       91.3050515894  LPSA4     26             19.0000000000
      4191       134  BMANNA    C               9.4847790135       13.3526046064       93.1798471680  LPSA4     26             19.0000000000
      4192       134  BMANNA    O               9.5897400242       12.4238613671       94.0003587425  LPSA4     26             19.0000000000
      4193       134  BMANNA    CT              9.4644281147       14.7978465897       93.6758917343  LPSA4     26             19.0000000000
      4194       134  BMANNA    HT1             9.7382755806       15.4037811192       92.8666282051  LPSA4     26             19.0000000000
      4195       134  BMANNA    HT2             9.9337283023       15.1154692276       94.6620984389  LPSA4     26             19.0000000000
      4196       134  BMANNA    HT3             8.4041063610       15.0185047978       93.8484898219  LPSA4     26             19.0000000000
      4197       134  BMANNA    C3              7.7607637923       11.5526872742       90.7100883268  LPSA4     26             19.0000000000
      4198       134  BMANNA    H3              7.7032634345       10.4992087251       90.3384445889  LPSA4     26             19.0000000000
      4199       134  BMANNA    O3              6.7659408324       11.6641188827       91.7636866611  LPSA4     26             19.0000000000
      4200       134  BMANNA    HO3             6.8681161988       10.8410624377       92.2265744207  LPSA4     26             19.0000000000
      4201       134  BMANNA    C4              7.6056873461       12.4940242917       89.6481622736  LPSA4     26             19.0000000000
      4202       134  BMANNA    H4              7.6631345059       13.5921025338       89.9013799111  LPSA4     26             19.0000000000
      4203       134  BMANNA    O4              6.3261591086       12.3797275283       89.0416847738  LPSA4     26             19.0000000000
      4204       134  BMANNA    HO4             5.7020062196       12.8867082702       89.5591157304  LPSA4     26             19.0000000000
      4205       134  BMANNA    C6              8.6806421356       13.2635429095       87.3900617492  LPSA4     26             19.0000000000
      4206       134  BMANNA    H61             9.6794512845       13.2813142530       86.9191763972  LPSA4     26             19.0000000000
      4207       134  BMANNA    H62             7.9800867476       12.9749659821       86.6504270337  LPSA4     26             19.0000000000
      4208       134  BMANNA    O6              8.3544971022       14.6059270061       87.7329108337  LPSA4     26             19.0000000000
      4209       134  BMANNA    HO6             7.5279639779       14.6284971872       88.1688153196  LPSA4     26             19.0000000000
      4210       135  BGLCNA    C1             13.4404696511        8.9745712628       93.4616184899  LPSA4     27             19.0000000000
      4211       135  BGLCNA    H1             14.5257574619        8.9688622604       93.4392217979  LPSA4     27             19.0000000000
      4212       135  BGLCNA    C5             13.6305472865        6.6611968029       93.9656603721  LPSA4     27             19.0000000000
      4213       135  BGLCNA    H5             14.7397193955        6.8175199137       93.9564344452  LPSA4     27             19.0000000000
      4214       135  BGLCNA    O5             13.0912647751        7.6344134213       93.0607755266  LPSA4     27             19.0000000000
      4215       135  BGLCNA    C2             12.9484083260        9.2685894532       94.8806799918  LPSA4     27             19.0000000000
      4216       135  BGLCNA    H2             11.8520464383        9.1408754071       94.8757458582  LPSA4     27             19.0000000000
      4217       135  BGLCNA    N              13.2660308626       10.6352719632       95.2501113516  LPSA4     27             19.0000000000
      4218       135  BGLCNA    HN             14.2623003853       10.9362542377       95.0827132934  LPSA4     27             19.0000000000
      4219       135  BGLCNA    C              12.2784512547       11.3187224320       95.9523160909  LPSA4     27             19.0000000000
      4220       135  BGLCNA    O              11.2743940695       10.7951961150       96.5238801166  LPSA4     27             19.0000000000
      4221       135  BGLCNA    CT             12.5130952286       12.8592284561       96.0293745529  LPSA4     27             19.0000000000
      4222       135  BGLCNA    HT1            13.3661619373       13.1628834725       95.3635606282  LPSA4     27             19.0000000000
      4223       135  BGLCNA    HT2            12.6330731309       13.2462187035       97.0167906789  LPSA4     27             19.0000000000
      4224       135  BGLCNA    HT3            11.5172951537       13.3566937581       95.7039804309  LPSA4     27             19.0000000000
      4225       135  BGLCNA    C3             13.5134158637        8.2579556097       95.7540348103  LPSA4     27             19.0000000000
      4226       135  BGLCNA    H3             14.6317313933        8.2649888962       95.7401190096  LPSA4     27             19.0000000000
      4227       135  BGLCNA    O3             13.0161126866        8.6538533606       97.0775356047  LPSA4     27             19.0000000000
      4228       135  BGLCNA    C4             13.1147136311        6.8254724234       95.3486864533  LPSA4     27             19.0000000000
      4229       135  BGLCNA    H4             12.0037342724        6.7486122812       95.3090014479  LPSA4     27             19.0000000000
      4230       135  BGLCNA    O4             13.6346037654        5.8856614256       96.2156872787  LPSA4     27             19.0000000000
      4231       135  BGLCNA    HO4            14.5493030115        5.8941722918       96.0162444362  LPSA4     27             19.0000000000
      4232       135  BGLCNA    C6             13.3792877031        5.2724496057       93.2852949846  LPSA4     27             19.0000000000
      4233       135  BGLCNA    H61            13.9867203213        4.5636579695       93.8557506920  LPSA4     27             19.0000000000
      4234       135  BGLCNA    H62            12.3286498131        4.9477558098       93.4725180191  LPSA4     27             19.0000000000
      4235       135  BGLCNA    O6             13.7134151843        5.2997925843       91.9076175409  LPSA4     27             19.0000000000
      4236       135  BGLCNA    HO6            13.5128469096        4.4165382737       91.5273290588  LPSA4     27             19.0000000000
      4237       136  AGAL      C1             13.6484401207        8.1130887776       98.2622020222  LPSA4     28             20.0000000000
      4238       136  AGAL      H1             13.4225052259        7.0816472351       98.3007149491  LPSA4     28             20.0000000000
      4239       136  AGAL      C5             15.5854193197        9.5684522636       98.1710438288  LPSA4     28             20.0000000000
      4240       136  AGAL      H5             14.9510158811       10.2907616657       97.4646141937  LPSA4     28             20.0000000000
      4241       136  AGAL      O5             15.0652660184        8.1774885160       98.1147365872  LPSA4     28             20.0000000000
      4242       136  AGAL      C2             13.3160578318        8.7565426940       99.6197190629  LPSA4     28             20.0000000000
      4243       136  AGAL      H2             13.9234701009        8.1593245097      100.2965066153  LPSA4     28             20.0000000000
      4244       136  AGAL      O2             11.9786743869        8.6319040409      100.0788731798  LPSA4     28             20.0000000000
      4245       136  AGAL      C3             13.8218205050       10.1597860019       99.7396972452  LPSA4     28             20.0000000000
      4246       136  AGAL      H3             13.4069117924       10.7464722704       98.8607737785  LPSA4     28             20.0000000000
      4247       136  AGAL      O3             13.4740936196       10.9337725449      100.9043404272  LPSA4     28             20.0000000000
      4248       136  AGAL      HO3            12.9417391469       11.6773789798      100.5606486229  LPSA4     28             20.0000000000
      4249       136  AGAL      C4             15.2801215709       10.1651046701       99.5102226768  LPSA4     28             20.0000000000
      4250       136  AGAL      H4             15.6020987211       11.1786657506       99.4798298294  LPSA4     28             20.0000000000
      4251       136  AGAL      O4             16.0050431936        9.4725793778      100.4757933835  LPSA4     28             20.0000000000
      4252       136  AGAL      HO4            16.3641397010       10.1208376631      101.0376442747  LPSA4     28             20.0000000000
      4253       136  AGAL      C6             17.0098646185        9.7405204157       97.6362902244  LPSA4     28             20.0000000000
      4254       136  AGAL      H61            17.0277914347        9.4762473446       96.5809275898  LPSA4     28             20.0000000000
      4255       136  AGAL      H62            17.4918163764       10.7779768908       97.7651048223  LPSA4     28             20.0000000000
      4256       136  AGAL      O6             17.8874320371        8.8907663092       98.3456070822  LPSA4     28             20.0000000000
      4257       136  AGAL      HO6            17.9059678934        8.0222122062       97.9416813930  LPSA4     28             20.0000000000
      4258       137  ARHM      C1             11.9954224337        8.2738868721      101.4808913342  LPSA4     29             21.0000000000
      4259       137  ARHM      H1             12.9314715555        8.6649107829      101.9964955809  LPSA4     29             21.0000000000
      4260       137  ARHM      C5             10.7654554346        6.3015305226      101.1486206043  LPSA4     29             21.0000000000
      4261       137  ARHM      H5             10.7213880394        6.6378414935      100.0935446791  LPSA4     29             21.0000000000
      4262       137  ARHM      O5             11.9163655036        6.8912603651      101.6833506475  LPSA4     29             21.0000000000
      4263       137  ARHM      C2             10.8911807985        8.9700033874      102.1437305515  LPSA4     29             21.0000000000
      4264       137  ARHM      H2             10.8808727705       10.0141294881      101.9067628034  LPSA4     29             21.0000000000
      4265       137  ARHM      O2             10.9468409253        8.8378521757      103.5748524404  LPSA4     29             21.0000000000
      4266       137  ARHM      C3              9.6097314797        8.3784003639      101.6289418068  LPSA4     29             21.0000000000
      4267       137  ARHM      H3              9.5106959983        8.6240999983      100.4952263366  LPSA4     29             21.0000000000
      4268       137  ARHM      O3              8.5405947534        9.0829828988      102.1995749427  LPSA4     29             21.0000000000
      4269       137  ARHM      HO3             7.8526101368        8.5082522886      102.2092645043  LPSA4     29             21.0000000000
      4270       137  ARHM      C4              9.5046272528        6.9298975056      101.8247918557  LPSA4     29             21.0000000000
      4271       137  ARHM      H4              9.4866768360        6.6532221190      102.9338171738  LPSA4     29             21.0000000000
      4272       137  ARHM      O4              8.3075791753        6.2764856725      101.3452167393  LPSA4     29             21.0000000000
      4273       137  ARHM      HO4             8.0096416907        6.5828286066      100.4362974805  LPSA4     29             21.0000000000
      4274       137  ARHM      C6             10.9729411849        4.7781175440      101.2162231226  LPSA4     29             21.0000000000
      4275       137  ARHM      H61            12.0240076279        4.6474532030      100.7685423143  LPSA4     29             21.0000000000
      4276       137  ARHM      H62            11.0033295947        4.4662914866      102.3013153741  LPSA4     29             21.0000000000
      4277       137  ARHM      H63            10.2039494738        4.2906385090      100.6072571094  LPSA4     29             21.0000000000
      4278       138  ARHM      C1             11.4945186950        9.8209499916      104.3945976075  LPSA4     30             22.0000000000
      4279       138  ARHM      H1             10.9554431779       10.7759610073      104.2094096401  LPSA4     30             22.0000000000
      4280       138  ARHM      C5             13.7018930946        8.8026296367      104.5143062533  LPSA4     30             22.0000000000
      4281       138  ARHM      H5             13.1625208211        8.0092676959      103.8668162917  LPSA4     30             22.0000000000
      4282       138  ARHM      O5             12.9156068811        9.9876382553      104.2052433351  LPSA4     30             22.0000000000
      4283       138  ARHM      C2             11.2652891741        9.4442212284      105.8471183130  LPSA4     30             22.0000000000
      4284       138  ARHM      H2             10.2509037957        9.2956362766      106.0289718167  LPSA4     30             22.0000000000
      4285       138  ARHM      O2             11.8306472056       10.4764620430      106.5813641610  LPSA4     30             22.0000000000
      4286       138  ARHM      C3             12.0413795105        8.2663443507      106.2079894766  LPSA4     30             22.0000000000
      4287       138  ARHM      H3             11.8154696745        7.4911471398      105.5270001340  LPSA4     30             22.0000000000
      4288       138  ARHM      O3             11.7450196125        7.7534570840      107.5373891676  LPSA4     30             22.0000000000
      4289       138  ARHM      C4             13.5427310152        8.4602487610      105.9708288384  LPSA4     30             22.0000000000
      4290       138  ARHM      H4             13.9617441343        9.2925685465      106.5400372406  LPSA4     30             22.0000000000
      4291       138  ARHM      O4             14.3372453661        7.4086980448      106.2997755749  LPSA4     30             22.0000000000
      4292       138  ARHM      HO4            14.4157199147        6.6584594542      105.6964454668  LPSA4     30             22.0000000000
      4293       138  ARHM      C6             15.1326110075        9.0045759159      104.0930490251  LPSA4     30             22.0000000000
      4294       138  ARHM      H61            15.6521158469        8.0135457532      104.2143179997  LPSA4     30             22.0000000000
      4295       138  ARHM      H62            15.1625490081        9.1561078762      103.0019050467  LPSA4     30             22.0000000000
      4296       138  ARHM      H63            15.6627027681        9.8412474383      104.6493652223  LPSA4     30             22.0000000000
      4297       139  BMANNA    C1             10.9599645063       11.5228238089      106.9502319096  LPSA4     31             23.0000000000
      4298       139  BMANNA    H1              9.9616069314       11.0752911963      107.1550799008  LPSA4     31             23.0000000000
      4299       139  BMANNA    C5              9.8524519491       13.5579736388      106.2136717625  LPSA4     31             23.0000000000
      4300       139  BMANNA    H5              8.9468103553       13.0315109721      106.5467054000  LPSA4     31             23.0000000000
      4301       139  BMANNA    O5             10.8054872860       12.5086729198      105.8742289322  LPSA4     31             23.0000000000
      4302       139  BMANNA    C2             11.4876442927       12.2181081783      108.0830629221  LPSA4     31             23.0000000000
      4303       139  BMANNA    H2             11.4839157091       11.4748668185      108.9031915743  LPSA4     31             23.0000000000
      4304       139  BMANNA    N              12.8380941057       12.5816881886      107.8252935315  LPSA4     31             23.0000000000
      4305       139  BMANNA    HN             13.1128744620       12.7007270192      106.8111160773  LPSA4     31             23.0000000000
      4306       139  BMANNA    C              13.7541541698       12.7225461851      108.7868858964  LPSA4     31             23.0000000000
      4307       139  BMANNA    O              13.5098254591       12.4727771528      109.9536662434  LPSA4     31             23.0000000000
      4308       139  BMANNA    CT             15.1386440384       13.2012991940      108.3237946568  LPSA4     31             23.0000000000
      4309       139  BMANNA    HT1            14.9969124684       13.9373141982      107.5739831696  LPSA4     31             23.0000000000
      4310       139  BMANNA    HT2            15.6773387144       12.3304853138      107.9347099034  LPSA4     31             23.0000000000
      4311       139  BMANNA    HT3            15.7515249530       13.5325361858      109.1768357935  LPSA4     31             23.0000000000
      4312       139  BMANNA    C3             10.5406125844       13.2997164336      108.4884560283  LPSA4     31             23.0000000000
      4313       139  BMANNA    H3              9.4829855951       12.8895961984      108.6988550870  LPSA4     31             23.0000000000
      4314       139  BMANNA    O3             10.9039866971       13.8823098396      109.7404994872  LPSA4     31             23.0000000000
      4315       139  BMANNA    HO3            11.4641989691       13.1785365066      110.0111610137  LPSA4     31             23.0000000000
      4316       139  BMANNA    C4             10.4196600095       14.3103813780      107.4199857710  LPSA4     31             23.0000000000
      4317       139  BMANNA    H4             11.4272545194       14.8297805711      107.0572414185  LPSA4     31             23.0000000000
      4318       139  BMANNA    O4              9.5787517641       15.3697750371      107.8525671122  LPSA4     31             23.0000000000
      4319       139  BMANNA    HO4             8.7157060910       15.0449897093      108.1943429300  LPSA4     31             23.0000000000
      4320       139  BMANNA    C6              9.5745905432       14.5251864901      105.0512686782  LPSA4     31             23.0000000000
      4321       139  BMANNA    H61             8.6563496960       15.1778547316      105.3397811046  LPSA4     31             23.0000000000
      4322       139  BMANNA    H62            10.3968023307       15.2114098557      104.8698551944  LPSA4     31             23.0000000000
      4323       139  BMANNA    O6              9.2942971303       13.8235024493      103.8241467834  LPSA4     31             23.0000000000
      4324       139  BMANNA    HO6             8.4109074009       13.3567449794      103.8134147631  LPSA4     31             23.0000000000
      4325       140  BGLCNA    C1             12.3640479902        8.3814798167      108.6103969990  LPSA4     32             23.0000000000
      4326       140  BGLCNA    H1             12.4786862404        9.4980716661      108.4325564695  LPSA4     32             23.0000000000
      4327       140  BGLCNA    C5             14.3765320548        8.6223284923      109.9277617404  LPSA4     32             23.0000000000
      4328       140  BGLCNA    H5             14.3996299885        9.7037051054      109.5374749077  LPSA4     32             23.0000000000
      4329       140  BGLCNA    O5             13.6578579412        7.8757945882      108.9423333575  LPSA4     32             23.0000000000
      4330       140  BGLCNA    C2             11.5404579253        8.2853941630      109.8194522937  LPSA4     32             23.0000000000
      4331       140  BGLCNA    H2             11.6089194111        7.2623237808      110.1044894257  LPSA4     32             23.0000000000
      4332       140  BGLCNA    N              10.1831912989        8.6516335500      109.5956973249  LPSA4     32             23.0000000000
      4333       140  BGLCNA    HN             10.1506069563        9.3792508969      108.8809076996  LPSA4     32             23.0000000000
      4334       140  BGLCNA    C               9.0483503988        8.1040204745      110.0864625708  LPSA4     32             23.0000000000
      4335       140  BGLCNA    O               9.0614869918        7.2078043149      110.9304085025  LPSA4     32             23.0000000000
      4336       140  BGLCNA    CT              7.7084547708        8.6859389819      109.5841031968  LPSA4     32             23.0000000000
      4337       140  BGLCNA    HT1             8.0841301447        9.2498765701      108.6281101354  LPSA4     32             23.0000000000
      4338       140  BGLCNA    HT2             7.2528965917        9.4283283935      110.1898124037  LPSA4     32             23.0000000000
      4339       140  BGLCNA    HT3             6.9683253694        7.8943192434      109.3122359934  LPSA4     32             23.0000000000
      4340       140  BGLCNA    C3             12.1740400392        9.1194990210      110.8930231790  LPSA4     32             23.0000000000
      4341       140  BGLCNA    H3             12.3181798368       10.0679761997      110.4606187373  LPSA4     32             23.0000000000
      4342       140  BGLCNA    O3             11.3622143094        9.2943063001      112.0657798240  LPSA4     32             23.0000000000
      4343       140  BGLCNA    C4             13.5305484549        8.5315874763      111.1707572500  LPSA4     32             23.0000000000
      4344       140  BGLCNA    H4             13.3673624374        7.4797648395      111.5318289610  LPSA4     32             23.0000000000
      4345       140  BGLCNA    O4             14.1876981826        9.2125092189      112.2070236435  LPSA4     32             23.0000000000
      4346       140  BGLCNA    HO4            14.0041881359        8.8242035198      113.0745323218  LPSA4     32             23.0000000000
      4347       140  BGLCNA    C6             15.8002992281        8.1150391629      110.0229508171  LPSA4     32             23.0000000000
      4348       140  BGLCNA    H61            16.4371111752        8.7759026115      110.7194343748  LPSA4     32             23.0000000000
      4349       140  BGLCNA    H62            15.8011184220        7.0909387415      110.5717638480  LPSA4     32             23.0000000000
      4350       140  BGLCNA    O6             16.4550466918        8.1082009688      108.7709294272  LPSA4     32             23.0000000000
      4351       140  BGLCNA    HO6            16.1660753600        8.8909746574      108.2360311317  LPSA4     32             23.0000000000
      4352       141  AGAL      C1             11.4569898246       10.6053902751      112.6842874521  LPSA4     33             24.0000000000
      4353       141  AGAL      H1             12.5025264228       10.9112309854      112.5979959475  LPSA4     33             24.0000000000
      4354       141  AGAL      C5              9.2123752512       11.2170922311      112.2149219831  LPSA4     33             24.0000000000
      4355       141  AGAL      H5              9.1652018834       10.1657948057      111.8792915250  LPSA4     33             24.0000000000
      4356       141  AGAL      O5             10.5669604722       11.5915976032      112.0726784748  LPSA4     33             24.0000000000
      4357       141  AGAL      C2             11.0547457032       10.4410853136      114.1482787662  LPSA4     33             24.0000000000
      4358       141  AGAL      H2             11.0427407557       11.5175636580      114.5751854976  LPSA4     33             24.0000000000
      4359       141  AGAL      O2             12.1059260002        9.8027785041      114.8486222260  LPSA4     33             24.0000000000
      4360       141  AGAL      C3              9.5998847003       10.0700832893      114.2945545625  LPSA4     33             24.0000000000
      4361       141  AGAL      H3              9.3820155224        9.0938002631      113.7405815065  LPSA4     33             24.0000000000
      4362       141  AGAL      O3              9.2294967365        9.7331800361      115.5672660328  LPSA4     33             24.0000000000
      4363       141  AGAL      HO3             9.4335453514       10.3479395894      116.2400186851  LPSA4     33             24.0000000000
      4364       141  AGAL      C4              8.7130219256       11.1229025789      113.6708488317  LPSA4     33             24.0000000000
      4365       141  AGAL      H4              7.6616576345       10.8106815470      113.6729875792  LPSA4     33             24.0000000000
      4366       141  AGAL      O4              8.7186415326       12.4508815555      114.2435538900  LPSA4     33             24.0000000000
      4367       141  AGAL      HO4             9.3869801355       12.5670573972      114.9085525172  LPSA4     33             24.0000000000
      4368       141  AGAL      C6              8.3066809584       12.0059880325      111.2992528405  LPSA4     33             24.0000000000
      4369       141  AGAL      H61             8.6546280891       11.7485178927      110.2783408757  LPSA4     33             24.0000000000
      4370       141  AGAL      H62             7.2258348396       11.7741580597      111.3458027743  LPSA4     33             24.0000000000
      4371       141  AGAL      O6              8.3098958195       13.3944600734      111.4129476537  LPSA4     33             24.0000000000
      4372       141  AGAL      HO6             8.9915012787       13.8348351288      110.8444757795  LPSA4     33             24.0000000000
      4373       142  ARHM      C1             12.5121694129       10.4499757991      116.0109133884  LPSA4     34             25.0000000000
      4374       142  ARHM      H1             11.6609883640       10.7640220778      116.6389743656  LPSA4     34             25.0000000000
      4375       142  ARHM      C5             14.4818495564       11.4933723440      115.0727799907  LPSA4     34             25.0000000000
      4376       142  ARHM      H5             14.1704613390       11.1268050297      114.0209633333  LPSA4     34             25.0000000000
      4377       142  ARHM      O5             13.2720647134       11.6701169113      115.8926868953  LPSA4     34             25.0000000000
      4378       142  ARHM      C2             13.3025951115        9.4140356624      116.7601555753  LPSA4     34             25.0000000000
      4379       142  ARHM      H2             12.8131586103        8.4084587541      116.8710959342  LPSA4     34             25.0000000000
      4380       142  ARHM      O2             13.6822052154        9.8031955571      118.1592972339  LPSA4     34             25.0000000000
      4381       142  ARHM      C3             14.5959828547        9.1622096449      115.9988665506  LPSA4     34             25.0000000000
      4382       142  ARHM      H3             14.3944690276        8.8202408579      114.9724172480  LPSA4     34             25.0000000000
      4383       142  ARHM      O3             15.4950609650        8.1913714372      116.5878695042  LPSA4     34             25.0000000000
      4384       142  ARHM      HO3            15.9348744278        7.6314404200      115.9559434517  LPSA4     34             25.0000000000
      4385       142  ARHM      C4             15.4201317673       10.4632733652      115.7987835878  LPSA4     34             25.0000000000
      4386       142  ARHM      H4             15.6172088597       10.9855221487      116.7495315617  LPSA4     34             25.0000000000
      4387       142  ARHM      O4             16.6127947309       10.2551468212      115.1362621200  LPSA4     34             25.0000000000
      4388       142  ARHM      HO4            17.2804824956        9.8644451900      115.6953140327  LPSA4     34             25.0000000000
      4389       142  ARHM      C6             15.2301379028       12.8549504726      114.8413279703  LPSA4     34             25.0000000000
      4390       142  ARHM      H61            15.6277773577       13.3239623423      115.7172490283  LPSA4     34             25.0000000000
      4391       142  ARHM      H62            16.2123185708       12.6109096456      114.3996926230  LPSA4     34             25.0000000000
      4392       142  ARHM      H63            14.7453898192       13.5775565451      114.1590834060  LPSA4     34             25.0000000000
      4393       143  ARHM      C1             12.6162444528       10.1153372958      119.0795908573  LPSA4     35             26.0000000000
      4394       143  ARHM      H1             11.7343824782        9.3754076153      118.8787348947  LPSA4     35             26.0000000000
      4395       143  ARHM      C5             13.1677650321       12.4757068791      119.2408916176  LPSA4     35             26.0000000000
      4396       143  ARHM      H5             14.0761490395       12.3396915955      118.5254732223  LPSA4     35             26.0000000000
      4397       143  ARHM      O5             12.0975538237       11.5039032687      118.9290334222  LPSA4     35             26.0000000000
      4398       143  ARHM      C2             13.0907724887        9.9044574845      120.5365485050  LPSA4     35             26.0000000000
      4399       143  ARHM      H2             13.3756873371        8.8284314749      120.7134209997  LPSA4     35             26.0000000000
      4400       143  ARHM      O2             12.0606837097       10.1765357361      121.4126203716  LPSA4     35             26.0000000000
      4401       143  ARHM      C3             14.2516267259       10.8675442700      120.8720061906  LPSA4     35             26.0000000000
      4402       143  ARHM      H3             15.0823290156       10.6156984724      120.1344793452  LPSA4     35             26.0000000000
      4403       143  ARHM      O3             14.7852160526       10.6092079781      122.1540075829  LPSA4     35             26.0000000000
      4404       143  ARHM      HO3            14.0726616518       10.3214155856      122.7288731339  LPSA4     35             26.0000000000
      4405       143  ARHM      C4             13.7387503533       12.2681900711      120.6788917534  LPSA4     35             26.0000000000
      4406       143  ARHM      H4             12.8593947253       12.5275201531      121.3307119103  LPSA4     35             26.0000000000
      4407       143  ARHM      O4             14.8450239692       13.1502389415      120.9693790153  LPSA4     35             26.0000000000
      4408       143  ARHM      HO4            15.6960197134       12.8706631934      120.5581709812  LPSA4     35             26.0000000000
      4409       143  ARHM      C6             12.6854755710       13.9188308255      118.8642347863  LPSA4     35             26.0000000000
      4410       143  ARHM      H61            12.5322086312       14.0180378115      117.7433556958  LPSA4     35             26.0000000000
      4411       143  ARHM      H62            11.7626327334       13.9985506661      119.4176110492  LPSA4     35             26.0000000000
      4412       143  ARHM      H63            13.5513161380       14.6137535898      119.0633705917  LPSA4     35             26.0000000000
      4413       144  BMANNA    C1             11.0117327612        9.2562945563      121.4471464502  LPSA4     36             27.0000000000
      4414       144  BMANNA    H1             11.3419310262        8.2493433253      121.0972061898  LPSA4     36             27.0000000000
      4415       144  BMANNA    C5              8.8620903919        8.4082620709      120.7299884793  LPSA4     36             27.0000000000
      4416       144  BMANNA    H5              9.3837709781        7.4913702950      120.4610684421  LPSA4     36             27.0000000000
      4417       144  BMANNA    O5              9.8136270713        9.5179878218      120.6641532654  LPSA4     36             27.0000000000
      4418       144  BMANNA    C2             10.5667819641        9.0905796663      122.8920138725  LPSA4     36             27.0000000000
      4419       144  BMANNA    H2             11.4628934839        8.8005922653      123.4719477421  LPSA4     36             27.0000000000
      4420       144  BMANNA    N              10.0821776551       10.3572870063      123.4395449790  LPSA4     36             27.0000000000
      4421       144  BMANNA    HN              9.4945503100       10.9445840631      122.8746519580  LPSA4     36             27.0000000000
      4422       144  BMANNA    C              10.1538441766       10.6132084036      124.7737151700  LPSA4     36             27.0000000000
      4423       144  BMANNA    O              10.7457661757        9.9343973406      125.6190347561  LPSA4     36             27.0000000000
      4424       144  BMANNA    CT              9.4250288059       11.7916647020      125.3570716528  LPSA4     36             27.0000000000
      4425       144  BMANNA    HT1             8.4470207083       11.9092604611      124.8802869227  LPSA4     36             27.0000000000
      4426       144  BMANNA    HT2             9.9407494482       12.7761104799      125.1731404614  LPSA4     36             27.0000000000
      4427       144  BMANNA    HT3             9.3076058620       11.7951173641      126.4547536948  LPSA4     36             27.0000000000
      4428       144  BMANNA    C3              9.5462082908        7.9847590882      122.9763638711  LPSA4     36             27.0000000000
      4429       144  BMANNA    H3              9.9804391582        7.0345136072      122.6403873786  LPSA4     36             27.0000000000
      4430       144  BMANNA    O3              9.1202551735        7.7363955017      124.3414054450  LPSA4     36             27.0000000000
      4431       144  BMANNA    HO3             9.3291494717        6.8876505001      124.7171830083  LPSA4     36             27.0000000000
      4432       144  BMANNA    C4              8.3702321490        8.2561830015      122.1146940524  LPSA4     36             27.0000000000
      4433       144  BMANNA    H4              7.8325295515        9.1236929795      122.4263894750  LPSA4     36             27.0000000000
      4434       144  BMANNA    O4              7.3984025616        7.2174455257      122.2172873890  LPSA4     36             27.0000000000
      4435       144  BMANNA    HO4             7.2744231179        7.2614548244      123.1985163392  LPSA4     36             27.0000000000
      4436       144  BMANNA    C6              7.7905064432        8.6382197562      119.7412642597  LPSA4     36             27.0000000000
      4437       144  BMANNA    H61             8.1881349121        8.6655592005      118.6946701192  LPSA4     36             27.0000000000
      4438       144  BMANNA    H62             7.2242491754        7.7024030714      119.7045442506  LPSA4     36             27.0000000000
      4439       144  BMANNA    O6              6.9401021950        9.7888671883      120.0914698020  LPSA4     36             27.0000000000
      4440       144  BMANNA    HO6             6.2376001854        9.4328147246      120.6476247167  LPSA4     36             27.0000000000
      4441       145  ECLIPA    HB6S          -15.3153640578        4.7106222753       20.4612168218  LPSA5     1               0.0000000000
      4442       145  ECLIPA    OB6           -14.2246118914        5.8519920967       21.7140249152  LPSA5     1               0.0000000000
      4443       145  ECLIPA    CB6           -15.2916606772        5.7386581987       20.7042159014  LPSA5     1               0.0000000000
      4444       145  ECLIPA    HB6R          -16.2031672949        6.1877030819       21.0541931349  LPSA5     1               0.0000000000
      4445       145  ECLIPA    CB5           -14.9780169673        6.5838981539       19.3988764877  LPSA5     1               0.0000000000
      4446       145  ECLIPA    OB5           -13.6375002836        6.1113802306       18.9716901872  LPSA5     1               0.0000000000
      4447       145  ECLIPA    HB5           -14.8735074660        7.6180859108       19.7771798410  LPSA5     1               0.0000000000
      4448       145  ECLIPA    CB1           -13.2299496068        6.8090089380       17.7717324898  LPSA5     1               0.0000000000
      4449       145  ECLIPA    HB1           -13.1614524786        7.9115803760       17.9003641080  LPSA5     1               0.0000000000
      4450       145  ECLIPA    OA6           -11.9998132021        6.3264415471       17.3217246577  LPSA5     1               0.0000000000
      4451       145  ECLIPA    CA6           -11.6385409482        4.9518874076       17.5745106853  LPSA5     1               0.0000000000
      4452       145  ECLIPA    HA6R          -12.5703261382        4.3691995796       17.7226451425  LPSA5     1               0.0000000000
      4453       145  ECLIPA    HA6S          -10.8851268874        4.9448355405       18.4598965841  LPSA5     1               0.0000000000
      4454       145  ECLIPA    CB4           -16.0638560303        6.4001394417       18.3206521937  LPSA5     1               0.0000000000
      4455       145  ECLIPA    HB4           -16.1499716104        5.3380689557       18.0085584641  LPSA5     1               0.0000000000
      4456       145  ECLIPA    OB4           -17.2048771955        7.0685462603       18.9017319965  LPSA5     1               0.0000000000
      4457       145  ECLIPA    PB            -18.4977047141        6.2068249358       19.3234616795  LPSA5     1               0.0000000000
      4458       145  ECLIPA    OPB4          -19.1145753753        6.8903426915       20.5579515876  LPSA5     1               0.0000000000
      4459       145  ECLIPA    OPB3          -17.8464025363        4.8436749396       19.6614545037  LPSA5     1               0.0000000000
      4460       145  ECLIPA    OPB2          -19.3969281246        6.0990372883       18.0829495795  LPSA5     1               0.0000000000
      4461       145  ECLIPA    CB3           -15.5686760049        7.1443779381       17.0955893951  LPSA5     1               0.0000000000
      4462       145  ECLIPA    OB3           -16.3873529519        7.0262132139       15.9186528231  LPSA5     1               0.0000000000
      4463       145  ECLIPA    HB3           -15.2819540513        8.2149408940       17.3284540628  LPSA5     1               0.0000000000
      4464       145  ECLIPA    C71           -17.2820702888        7.9293068744       15.6929469039  LPSA5     1               0.0000000000
      4465       145  ECLIPA    O71           -17.4207381957        8.9656567909       16.3832172580  LPSA5     1               0.0000000000
      4466       145  ECLIPA    C72           -17.9819145713        7.5742125663       14.3548430386  LPSA5     1               0.0000000000
      4467       145  ECLIPA    H72R          -17.2222184661        7.5129998122       13.5774555414  LPSA5     1               0.0000000000
      4468       145  ECLIPA    H72S          -18.8267697527        8.3573309827       14.1464415926  LPSA5     1               0.0000000000
      4469       145  ECLIPA    CB2           -14.2046052299        6.5642774933       16.6720734084  LPSA5     1               0.0000000000
      4470       145  ECLIPA    HB2           -14.3783202093        5.4037661705       16.5298168153  LPSA5     1               0.0000000000
      4471       145  ECLIPA    NB2           -13.6573384481        7.2061408395       15.4577284722  LPSA5     1               0.0000000000
      4472       145  ECLIPA    HNB2          -13.1427251828        8.0511059610       15.5965609326  LPSA5     1               0.0000000000
      4473       145  ECLIPA    CA4            -9.9300187895        5.3643274056       15.7929312798  LPSA5     1               0.0000000000
      4474       145  ECLIPA    HA4           -10.4424097374        6.3129812238       15.4903430209  LPSA5     1               0.0000000000
      4475       145  ECLIPA    OA4            -9.0021784959        5.6296529445       16.8012065728  LPSA5     1               0.0000000000
      4476       145  ECLIPA    HOA4           -9.4011909912        5.8515476276       17.5928838569  LPSA5     1               0.0000000000
      4477       145  ECLIPA    CA5           -10.9233826846        4.4355034483       16.3547806008  LPSA5     1               0.0000000000
      4478       145  ECLIPA    HA5           -10.5707033963        3.3471084978       16.5880746347  LPSA5     1               0.0000000000
      4479       145  ECLIPA    OA5           -11.9483134717        4.2486131983       15.3689671688  LPSA5     1               0.0000000000
      4480       145  ECLIPA    CA1           -11.3976961670        3.7264412837       14.1076640156  LPSA5     1               0.0000000000
      4481       145  ECLIPA    HA1           -12.2471653342        3.9706925465       13.4118188108  LPSA5     1               0.0000000000
      4482       145  ECLIPA    OA1           -11.1857845621        2.3285314794       14.1359876212  LPSA5     1               0.0000000000
      4483       145  ECLIPA    OPA2          -11.6507193189        0.8370313699       15.9734101064  LPSA5     1               0.0000000000
      4484       145  ECLIPA    OPA3          -13.6155296483        1.9912649587       14.8300177673  LPSA5     1               0.0000000000
      4485       145  ECLIPA    OPA4          -12.3932100659        0.2152294034       13.6615320840  LPSA5     1               0.0000000000
      4486       145  ECLIPA    PA            -12.2771458902        1.3302180307       14.6765383084  LPSA5     1               0.0000000000
      4487       145  ECLIPA    CA3            -9.2670228503        4.8530568919       14.5219348229  LPSA5     1               0.0000000000
      4488       145  ECLIPA    HA3            -8.6553109554        3.8914673191       14.7377032538  LPSA5     1               0.0000000000
      4489       145  ECLIPA    OA3            -8.2565774488        5.8072139543       14.2498111976  LPSA5     1               0.0000000000
      4490       145  ECLIPA    C31            -8.6342080588        6.8918797916       13.5006246295  LPSA5     1               0.0000000000
      4491       145  ECLIPA    O31            -8.7989027336        6.9167412892       12.2941239937  LPSA5     1               0.0000000000
      4492       145  ECLIPA    C32            -8.3011213277        8.1735159018       14.2780289507  LPSA5     1               0.0000000000
      4493       145  ECLIPA    H32R           -7.5276216088        8.7291790713       13.7149713840  LPSA5     1               0.0000000000
      4494       145  ECLIPA    H32S           -7.9427072953        7.9216289548       15.2729523512  LPSA5     1               0.0000000000
      4495       145  ECLIPA    CA2           -10.3675239557        4.6487395485       13.4984733916  LPSA5     1               0.0000000000
      4496       145  ECLIPA    HA2           -10.8978337090        5.5993170538       13.3982259915  LPSA5     1               0.0000000000
      4497       145  ECLIPA    NA2            -9.8818128283        4.1267357369       12.2035087571  LPSA5     1               0.0000000000
      4498       145  ECLIPA    HNA2           -8.9182318909        4.1128626108       12.0865030408  LPSA5     1               0.0000000000
      4499       145  ECLIPA    C73           -18.6991469773        6.2492566649       14.3319064372  LPSA5     1               0.0000000000
      4500       145  ECLIPA    H73R          -19.2905120661        6.0728971144       15.2227416964  LPSA5     1               0.0000000000
      4501       145  ECLIPA    O73           -17.6728996079        5.2281577833       14.2644256719  LPSA5     1               0.0000000000
      4502       145  ECLIPA    C81           -17.7583681527        4.0247419810       14.8555734565  LPSA5     1               0.0000000000
      4503       145  ECLIPA    O81           -18.7109227733        3.8092272711       15.6690894779  LPSA5     1               0.0000000000
      4504       145  ECLIPA    C82           -16.6663099161        3.0597680687       14.3536111794  LPSA5     1               0.0000000000
      4505       145  ECLIPA    H82R          -16.7226865074        2.0978649637       14.8531840528  LPSA5     1               0.0000000000
      4506       145  ECLIPA    H82S          -15.6456639950        3.4696574306       14.5323473422  LPSA5     1               0.0000000000
      4507       145  ECLIPA    C83           -16.8069075041        2.8538899448       12.8301722806  LPSA5     1               0.0000000000
      4508       145  ECLIPA    H83R          -16.3215325891        3.7158467304       12.2351841548  LPSA5     1               0.0000000000
      4509       145  ECLIPA    H83S          -17.8666401327        2.9590610020       12.5911296392  LPSA5     1               0.0000000000
      4510       145  ECLIPA    C84           -16.1078523675        1.5831628598       12.3050927261  LPSA5     1               0.0000000000
      4511       145  ECLIPA    H84R          -16.7210456811        0.7151649182       12.5767117503  LPSA5     1               0.0000000000
      4512       145  ECLIPA    H84S          -15.1308505689        1.6280181260       12.7369555497  LPSA5     1               0.0000000000
      4513       145  ECLIPA    C85           -15.9329946878        1.6356260400       10.7695484051  LPSA5     1               0.0000000000
      4514       145  ECLIPA    H85R          -15.5940440628        2.6563774214       10.5503608829  LPSA5     1               0.0000000000
      4515       145  ECLIPA    H85S          -16.9268509166        1.5301404793       10.2367999955  LPSA5     1               0.0000000000
      4516       145  ECLIPA    C86           -14.8102399963        0.6676678912       10.3034592726  LPSA5     1               0.0000000000
      4517       145  ECLIPA    H86R          -15.1959470476       -0.3597684067        9.9932223571  LPSA5     1               0.0000000000
      4518       145  ECLIPA    H86S          -14.0909174714        0.4892825760       11.0807540114  LPSA5     1               0.0000000000
      4519       145  ECLIPA    C87           -13.9318256330        1.2823647615        9.1601018854  LPSA5     1               0.0000000000
      4520       145  ECLIPA    H87R          -13.1921486975        0.5721229452        8.8049419625  LPSA5     1               0.0000000000
      4521       145  ECLIPA    H87S          -13.3361429978        2.1556894334        9.5406723883  LPSA5     1               0.0000000000
      4522       145  ECLIPA    C88           -14.7726049321        1.8269093982        8.0318999685  LPSA5     1               0.0000000000
      4523       145  ECLIPA    H88R          -15.2660557776        2.8035938768        8.3479828359  LPSA5     1               0.0000000000
      4524       145  ECLIPA    H88S          -15.7055011015        1.2003472265        7.9254521495  LPSA5     1               0.0000000000
      4525       145  ECLIPA    C89           -13.9886546452        2.1175488530        6.7101000712  LPSA5     1               0.0000000000
      4526       145  ECLIPA    H89R          -12.8912400866        2.1782419739        6.8746682686  LPSA5     1               0.0000000000
      4527       145  ECLIPA    H89S          -14.2445972462        3.0433870691        6.2317001698  LPSA5     1               0.0000000000
      4528       145  ECLIPA    C810          -14.3199765683        1.0003862065        5.7047246593  LPSA5     1               0.0000000000
      4529       145  ECLIPA    H810R         -15.3460128723        0.7261013173        6.0108430704  LPSA5     1               0.0000000000
      4530       145  ECLIPA    H810S         -13.6473110759        0.1780687810        5.8554647029  LPSA5     1               0.0000000000
      4531       145  ECLIPA    C811          -14.2656349617        1.3925752658        4.2179945741  LPSA5     1               0.0000000000
      4532       145  ECLIPA    H811R         -14.1733880768        0.6176714465        3.5081125689  LPSA5     1               0.0000000000
      4533       145  ECLIPA    H811S         -13.4075421176        2.1623106192        4.1819101877  LPSA5     1               0.0000000000
      4534       145  ECLIPA    C812          -15.4117021556        2.2982514347        3.7413673409  LPSA5     1               0.0000000000
      4535       145  ECLIPA    H812R         -15.1447975779        2.6378023764        2.6403157337  LPSA5     1               0.0000000000
      4536       145  ECLIPA    H812S         -15.6397499850        3.1152770394        4.4144737196  LPSA5     1               0.0000000000
      4537       145  ECLIPA    C813          -16.7852698792        1.6051299574        3.6785234959  LPSA5     1               0.0000000000
      4538       145  ECLIPA    H813R         -16.6851716792        0.7749067144        2.9398073555  LPSA5     1               0.0000000000
      4539       145  ECLIPA    H813S         -17.1545413416        1.1284283710        4.6616087352  LPSA5     1               0.0000000000
      4540       145  ECLIPA    C814          -17.8886452987        2.4909774683        3.1377409857  LPSA5     1               0.0000000000
      4541       145  ECLIPA    H814R         -17.6353150638        3.1035226330        2.1719074593  LPSA5     1               0.0000000000
      4542       145  ECLIPA    H814S         -18.1918790563        3.2037071117        3.9166242729  LPSA5     1               0.0000000000
      4543       145  ECLIPA    H814T         -18.7953406300        1.8907621606        2.8964685373  LPSA5     1               0.0000000000
      4544       145  ECLIPA    C74           -19.6219757112        5.9309432859       13.1792855021  LPSA5     1               0.0000000000
      4545       145  ECLIPA    H74R          -20.4916503355        6.5587643557       12.9935747315  LPSA5     1               0.0000000000
      4546       145  ECLIPA    H74S          -20.0244049302        4.8508110378       13.3086690609  LPSA5     1               0.0000000000
      4547       145  ECLIPA    C75           -18.8135156033        5.8136753888       11.8151371119  LPSA5     1               0.0000000000
      4548       145  ECLIPA    H75R          -19.3235798924        4.9792370111       11.2107603889  LPSA5     1               0.0000000000
      4549       145  ECLIPA    H75S          -17.7694518566        5.5006781442       12.0082837783  LPSA5     1               0.0000000000
      4550       145  ECLIPA    C76           -18.7884172050        7.0867395498       10.9251453624  LPSA5     1               0.0000000000
      4551       145  ECLIPA    H76R          -18.0340109758        7.8014500672       11.3555905686  LPSA5     1               0.0000000000
      4552       145  ECLIPA    H76S          -19.7886574622        7.6886077920       10.9731137071  LPSA5     1               0.0000000000
      4553       145  ECLIPA    C77           -18.4713350196        6.9063581134        9.4191603634  LPSA5     1               0.0000000000
      4554       145  ECLIPA    H77R          -19.2360307020        6.2725867485        9.0408775908  LPSA5     1               0.0000000000
      4555       145  ECLIPA    H77S          -17.5615108341        6.2768732408        9.2852383479  LPSA5     1               0.0000000000
      4556       145  ECLIPA    C78           -18.2466664971        8.3045230411        8.8297405752  LPSA5     1               0.0000000000
      4557       145  ECLIPA    H78R          -19.0760552284        8.9309695945        9.1562620580  LPSA5     1               0.0000000000
      4558       145  ECLIPA    H78S          -17.2962211616        8.6582179818        9.3169442960  LPSA5     1               0.0000000000
      4559       145  ECLIPA    C79           -17.8605695048        8.2819407544        7.2570767761  LPSA5     1               0.0000000000
      4560       145  ECLIPA    H79R          -16.7317378501        8.3401409501        7.1763205913  LPSA5     1               0.0000000000
      4561       145  ECLIPA    H79S          -18.2780488250        9.1782323185        6.7882549413  LPSA5     1               0.0000000000
      4562       145  ECLIPA    C710          -18.5159407668        7.2115769057        6.3785096220  LPSA5     1               0.0000000000
      4563       145  ECLIPA    H710R         -18.2202117076        6.2433951882        6.8460783027  LPSA5     1               0.0000000000
      4564       145  ECLIPA    H710S         -19.5298579698        7.3107200462        6.4843026416  LPSA5     1               0.0000000000
      4565       145  ECLIPA    C711          -18.0466794361        7.2178932001        4.9384125046  LPSA5     1               0.0000000000
      4566       145  ECLIPA    H711R         -18.3614909955        8.1952279513        4.5670708729  LPSA5     1               0.0000000000
      4567       145  ECLIPA    H711S         -16.9371477537        7.0675429766        4.9306188492  LPSA5     1               0.0000000000
      4568       145  ECLIPA    C712          -18.7079846938        6.0584921182        4.2148670498  LPSA5     1               0.0000000000
      4569       145  ECLIPA    H712R         -19.7879190795        6.2147442881        4.3130666899  LPSA5     1               0.0000000000
      4570       145  ECLIPA    H712S         -18.4871700401        5.1859016923        4.8522839389  LPSA5     1               0.0000000000
      4571       145  ECLIPA    C713          -18.1481416138        5.8871630688        2.7357390519  LPSA5     1               0.0000000000
      4572       145  ECLIPA    H713R         -17.0551003101        5.6603044191        2.8800411466  LPSA5     1               0.0000000000
      4573       145  ECLIPA    H713S         -18.7300481839        5.0055879196        2.2750064041  LPSA5     1               0.0000000000
      4574       145  ECLIPA    C714          -18.4867034178        7.1271988954        1.8879763961  LPSA5     1               0.0000000000
      4575       145  ECLIPA    H714R         -19.5725329974        7.2429993131        1.7626189762  LPSA5     1               0.0000000000
      4576       145  ECLIPA    H714S         -17.9307311023        8.0168487897        2.2081901572  LPSA5     1               0.0000000000
      4577       145  ECLIPA    H714T         -18.1195368870        6.8259038284        0.9249202435  LPSA5     1               0.0000000000
      4578       145  ECLIPA    C51           -14.0424698680        6.7966487923       14.2380633031  LPSA5     1               0.0000000000
      4579       145  ECLIPA    O51           -14.5414825068        5.6560708684       14.1304636378  LPSA5     1               0.0000000000
      4580       145  ECLIPA    C52           -13.9381122576        7.7794812313       13.0157035712  LPSA5     1               0.0000000000
      4581       145  ECLIPA    H52R          -14.7886596042        8.4349099740       12.8950255930  LPSA5     1               0.0000000000
      4582       145  ECLIPA    H52S          -13.0549266019        8.3416505081       13.2222025935  LPSA5     1               0.0000000000
      4583       145  ECLIPA    C53           -13.5964917868        6.9007270183       11.7526064304  LPSA5     1               0.0000000000
      4584       145  ECLIPA    H53R          -13.0919785781        5.9747489192       12.0082431084  LPSA5     1               0.0000000000
      4585       145  ECLIPA    O53           -12.9136854649        7.7786482372       10.8431816314  LPSA5     1               0.0000000000
      4586       145  ECLIPA    C61           -11.6663865143        7.4912617768       10.5090573566  LPSA5     1               0.0000000000
      4587       145  ECLIPA    O61           -11.0438184966        6.5406699866       10.8659713306  LPSA5     1               0.0000000000
      4588       145  ECLIPA    C62           -11.1314178234        8.5856884870        9.5765835255  LPSA5     1               0.0000000000
      4589       145  ECLIPA    H62R          -10.8453682543        9.4478972872       10.2152837125  LPSA5     1               0.0000000000
      4590       145  ECLIPA    H62S          -12.0183002778        8.9952517588        9.0470049452  LPSA5     1               0.0000000000
      4591       145  ECLIPA    C63            -9.9786187135        8.0650742137        8.6803029234  LPSA5     1               0.0000000000
      4592       145  ECLIPA    H63R          -10.3001033562        7.0900320174        8.2798705976  LPSA5     1               0.0000000000
      4593       145  ECLIPA    H63S           -9.0122232965        7.8804764733        9.3252199642  LPSA5     1               0.0000000000
      4594       145  ECLIPA    C64            -9.5619758688        8.8943828899        7.5279067597  LPSA5     1               0.0000000000
      4595       145  ECLIPA    H64R           -8.6556033172        8.4741298882        6.9620099216  LPSA5     1               0.0000000000
      4596       145  ECLIPA    H64S           -9.3116568698        9.9294072429        7.9657393466  LPSA5     1               0.0000000000
      4597       145  ECLIPA    C65           -10.7681673523        9.0792264297        6.5414948800  LPSA5     1               0.0000000000
      4598       145  ECLIPA    H65R          -11.4900561017        9.5697763554        7.2423230371  LPSA5     1               0.0000000000
      4599       145  ECLIPA    H65S          -11.1087565397        8.0829469798        6.1828980290  LPSA5     1               0.0000000000
      4600       145  ECLIPA    C66           -10.5145140619        9.9414755133        5.2222643966  LPSA5     1               0.0000000000
      4601       145  ECLIPA    H66R          -10.2243185992       10.9408081647        5.5395647249  LPSA5     1               0.0000000000
      4602       145  ECLIPA    H66S          -11.5673829160        9.9450934949        4.8113963288  LPSA5     1               0.0000000000
      4603       145  ECLIPA    C67            -9.5788993220        9.4029056556        4.1696839457  LPSA5     1               0.0000000000
      4604       145  ECLIPA    H67R           -8.6135644519        9.0970373892        4.5058181646  LPSA5     1               0.0000000000
      4605       145  ECLIPA    H67S           -9.4485476236       10.1632452166        3.3478820057  LPSA5     1               0.0000000000
      4606       145  ECLIPA    C68           -10.0569077927        8.1371077290        3.5077075145  LPSA5     1               0.0000000000
      4607       145  ECLIPA    H68R          -11.0565306463        8.1358529176        3.0112508411  LPSA5     1               0.0000000000
      4608       145  ECLIPA    H68S           -9.9793277692        7.4241438717        4.3087918325  LPSA5     1               0.0000000000
      4609       145  ECLIPA    C69            -9.1796557449        7.8248622496        2.2963532923  LPSA5     1               0.0000000000
      4610       145  ECLIPA    H69R           -8.1443151899        8.2164072916        2.3203210098  LPSA5     1               0.0000000000
      4611       145  ECLIPA    H69S           -9.5990014057        8.3943374651        1.4693744207  LPSA5     1               0.0000000000
      4612       145  ECLIPA    C610           -9.1308264662        6.3840571354        1.9396251084  LPSA5     1               0.0000000000
      4613       145  ECLIPA    H610R         -10.1490634207        5.9214643021        2.0603347121  LPSA5     1               0.0000000000
      4614       145  ECLIPA    H610S          -8.4860438319        5.8244215512        2.6933643884  LPSA5     1               0.0000000000
      4615       145  ECLIPA    C611           -8.4955493429        6.1102307010        0.5312153135  LPSA5     1               0.0000000000
      4616       145  ECLIPA    H611R          -7.4729453703        6.5333439036        0.5735373188  LPSA5     1               0.0000000000
      4617       145  ECLIPA    H611S          -8.2337194794        5.0767113128        0.3609598123  LPSA5     1               0.0000000000
      4618       145  ECLIPA    C612           -9.3954053592        6.6266720168       -0.5788949292  LPSA5     1               0.0000000000
      4619       145  ECLIPA    H612R         -10.3234866766        5.9891857102       -0.6060949542  LPSA5     1               0.0000000000
      4620       145  ECLIPA    H612S          -9.7567115179        7.6278675381       -0.3132441764  LPSA5     1               0.0000000000
      4621       145  ECLIPA    H612T          -8.9086560303        6.5865031143       -1.5574606966  LPSA5     1               0.0000000000
      4622       145  ECLIPA    C54           -14.9812518685        6.5508798824       11.1776054589  LPSA5     1               0.0000000000
      4623       145  ECLIPA    H54R          -15.4980231735        7.5137000141       10.8869876633  LPSA5     1               0.0000000000
      4624       145  ECLIPA    H54S          -15.6224436009        6.1091530080       11.9574517429  LPSA5     1               0.0000000000
      4625       145  ECLIPA    C55           -15.0710552406        5.5980437354        9.9916770240  LPSA5     1               0.0000000000
      4626       145  ECLIPA    H55R          -16.0910341113        5.2015066356        9.7856946516  LPSA5     1               0.0000000000
      4627       145  ECLIPA    H55S          -14.4145912415        4.6906587113       10.2436295858  LPSA5     1               0.0000000000
      4628       145  ECLIPA    C56           -14.7169613899        6.3747608181        8.7515486822  LPSA5     1               0.0000000000
      4629       145  ECLIPA    H56R          -13.6637587866        6.7832563693        8.8382497819  LPSA5     1               0.0000000000
      4630       145  ECLIPA    H56S          -15.3385904125        7.1718255268        8.4741334449  LPSA5     1               0.0000000000
      4631       145  ECLIPA    C57           -14.4823858367        5.5347795685        7.4395707935  LPSA5     1               0.0000000000
      4632       145  ECLIPA    H57R          -15.3324631359        4.9001946912        7.1827428724  LPSA5     1               0.0000000000
      4633       145  ECLIPA    H57S          -13.6317701405        4.8251778669        7.5196553379  LPSA5     1               0.0000000000
      4634       145  ECLIPA    C58           -14.0889011789        6.4837467563        6.2350750625  LPSA5     1               0.0000000000
      4635       145  ECLIPA    H58R          -14.7435636371        7.3985104427        6.2095761879  LPSA5     1               0.0000000000
      4636       145  ECLIPA    H58S          -13.1123430831        6.9615366304        6.5224540661  LPSA5     1               0.0000000000
      4637       145  ECLIPA    C59           -14.1863232905        5.7526862733        4.8667186835  LPSA5     1               0.0000000000
      4638       145  ECLIPA    H59R          -15.1969177947        5.3575887486        4.6589989540  LPSA5     1               0.0000000000
      4639       145  ECLIPA    H59S          -13.4592219023        4.9452699690        5.0825555512  LPSA5     1               0.0000000000
      4640       145  ECLIPA    C510          -13.9460953906        6.6976958542        3.6752379292  LPSA5     1               0.0000000000
      4641       145  ECLIPA    H510R         -13.0607169926        7.4121084516        3.7937959224  LPSA5     1               0.0000000000
      4642       145  ECLIPA    H510S         -14.8852710949        7.3824476988        3.4613250382  LPSA5     1               0.0000000000
      4643       145  ECLIPA    C511          -13.7466146715        6.0254479779        2.3004848829  LPSA5     1               0.0000000000
      4644       145  ECLIPA    H511R         -12.6917174557        5.6916064585        2.2679211996  LPSA5     1               0.0000000000
      4645       145  ECLIPA    H511S         -14.3580073415        5.0826592417        2.1940961976  LPSA5     1               0.0000000000
      4646       145  ECLIPA    C512          -13.9540880050        6.9137161989        1.0189424135  LPSA5     1               0.0000000000
      4647       145  ECLIPA    H512R         -14.0029317984        6.2657167932        0.0815295424  LPSA5     1               0.0000000000
      4648       145  ECLIPA    H512S         -14.8900195158        7.4782702637        1.1129704346  LPSA5     1               0.0000000000
      4649       145  ECLIPA    C513          -12.7225327138        7.8578061188        0.6457389972  LPSA5     1               0.0000000000
      4650       145  ECLIPA    H513R         -11.7720356041        7.2562390346        0.5010832175  LPSA5     1               0.0000000000
      4651       145  ECLIPA    H513S         -12.5256581473        8.5123029618        1.4088770719  LPSA5     1               0.0000000000
      4652       145  ECLIPA    C514          -12.9721760235        8.5676850499       -0.6567184026  LPSA5     1               0.0000000000
      4653       145  ECLIPA    H514R         -13.9179008369        9.1084094147       -0.6273993866  LPSA5     1               0.0000000000
      4654       145  ECLIPA    H514S         -12.1945512459        9.3333402131       -0.7024724270  LPSA5     1               0.0000000000
      4655       145  ECLIPA    H514T         -12.9637421600        7.8336611505       -1.5427815912  LPSA5     1               0.0000000000
      4656       145  ECLIPA    C33            -9.4777556666        9.2308231849       14.4880792826  LPSA5     1               0.0000000000
      4657       145  ECLIPA    H33R           -9.0004328926       10.1882640005       14.8828993596  LPSA5     1               0.0000000000
      4658       145  ECLIPA    O33           -10.3921601147        8.7790343008       15.4699768821  LPSA5     1               0.0000000000
      4659       145  ECLIPA    HO33           -9.9879668404        8.8538373185       16.2926205744  LPSA5     1               0.0000000000
      4660       145  ECLIPA    C34           -10.2889999304        9.6245498547       13.2255459338  LPSA5     1               0.0000000000
      4661       145  ECLIPA    H34R          -10.7482304056        8.7385598535       12.8010908313  LPSA5     1               0.0000000000
      4662       145  ECLIPA    H34S           -9.5782305001        9.9663161784       12.3772221142  LPSA5     1               0.0000000000
      4663       145  ECLIPA    C35           -11.3914539592       10.6804378817       13.4256256262  LPSA5     1               0.0000000000
      4664       145  ECLIPA    H35R          -10.9126835856       11.6187346142       13.6963698038  LPSA5     1               0.0000000000
      4665       145  ECLIPA    H35S          -12.0255708455       10.3719332655       14.2668166019  LPSA5     1               0.0000000000
      4666       145  ECLIPA    C36           -12.2244276501       11.0674745706       12.1865608177  LPSA5     1               0.0000000000
      4667       145  ECLIPA    H36R          -12.2166764439       10.0505277650       11.7430812241  LPSA5     1               0.0000000000
      4668       145  ECLIPA    H36S          -11.7427869313       11.8139854214       11.4785220412  LPSA5     1               0.0000000000
      4669       145  ECLIPA    C37           -13.6766178540       11.3461852492       12.5255831563  LPSA5     1               0.0000000000
      4670       145  ECLIPA    H37R          -13.7035532348       12.5183387424       12.6765215637  LPSA5     1               0.0000000000
      4671       145  ECLIPA    H37S          -13.9651564729       10.9400177458       13.5128993321  LPSA5     1               0.0000000000
      4672       145  ECLIPA    C38           -14.7215765931       10.9902086947       11.4317274953  LPSA5     1               0.0000000000
      4673       145  ECLIPA    H38R          -14.9796643374        9.9184261042       11.4067421357  LPSA5     1               0.0000000000
      4674       145  ECLIPA    H38S          -15.6721768735       11.4725350230       11.7230999881  LPSA5     1               0.0000000000
      4675       145  ECLIPA    C39           -14.2226333317       11.3645920918       10.0213367345  LPSA5     1               0.0000000000
      4676       145  ECLIPA    H39R          -13.2272691979       10.8897727334        9.8128797222  LPSA5     1               0.0000000000
      4677       145  ECLIPA    H39S          -14.2312140739       12.4856857042        9.9697980947  LPSA5     1               0.0000000000
      4678       145  ECLIPA    C310          -15.1493002598       11.0061722273        8.8401719124  LPSA5     1               0.0000000000
      4679       145  ECLIPA    H310R         -16.0861586502       11.6409668421        9.0626900142  LPSA5     1               0.0000000000
      4680       145  ECLIPA    H310S         -15.4271163874        9.9131143889        8.8945759064  LPSA5     1               0.0000000000
      4681       145  ECLIPA    C311          -14.4368125119       11.0524943231        7.5676235846  LPSA5     1               0.0000000000
      4682       145  ECLIPA    H311R         -13.7224698548       11.9145398106        7.5507520616  LPSA5     1               0.0000000000
      4683       145  ECLIPA    H311S         -13.8388022107       10.1316830923        7.2851462164  LPSA5     1               0.0000000000
      4684       145  ECLIPA    C312          -15.3543047467       11.1401013396        6.3280121142  LPSA5     1               0.0000000000
      4685       145  ECLIPA    H312R         -16.2921522575       10.5500730050        6.4861373960  LPSA5     1               0.0000000000
      4686       145  ECLIPA    H312S         -15.6213339242       12.2168630159        6.1820758986  LPSA5     1               0.0000000000
      4687       145  ECLIPA    C313          -14.6960939876       10.6718513076        4.9895779706  LPSA5     1               0.0000000000
      4688       145  ECLIPA    H313R         -14.0158902526       11.4392212357        4.7825120466  LPSA5     1               0.0000000000
      4689       145  ECLIPA    H313S         -14.1211968901        9.7184580631        5.1572698764  LPSA5     1               0.0000000000
      4690       145  ECLIPA    C314          -15.5949106565       10.4862206629        3.8116661598  LPSA5     1               0.0000000000
      4691       145  ECLIPA    H314R         -16.1376095819       11.4489635478        3.6067793993  LPSA5     1               0.0000000000
      4692       145  ECLIPA    H314S         -15.1117711295       10.1657363274        2.8849361441  LPSA5     1               0.0000000000
      4693       145  ECLIPA    H314T         -16.4157220315        9.7208623372        4.0446347774  LPSA5     1               0.0000000000
      4694       145  ECLIPA    C11           -10.6033301172        3.5258118024       11.2900808200  LPSA5     1               0.0000000000
      4695       145  ECLIPA    O11           -11.8189103776        3.5221706698       11.1394597694  LPSA5     1               0.0000000000
      4696       145  ECLIPA    C12            -9.7903534034        2.6566219471       10.2853014675  LPSA5     1               0.0000000000
      4697       145  ECLIPA    H12R           -9.9347116560        1.5642463009       10.4852637814  LPSA5     1               0.0000000000
      4698       145  ECLIPA    H12S           -8.7308339627        2.9408141991       10.5222272274  LPSA5     1               0.0000000000
      4699       145  ECLIPA    C13           -10.0634619929        2.9232288057        8.8110583416  LPSA5     1               0.0000000000
      4700       145  ECLIPA    H13R          -11.1903260899        3.0330270305        8.5839874118  LPSA5     1               0.0000000000
      4701       145  ECLIPA    O13            -9.6054281729        1.7254924141        8.1311342176  LPSA5     1               0.0000000000
      4702       145  ECLIPA    HO13          -10.0464696843        1.6366329772        7.3064966676  LPSA5     1               0.0000000000
      4703       145  ECLIPA    C14            -9.3623325365        4.2142079593        8.4581579993  LPSA5     1               0.0000000000
      4704       145  ECLIPA    H14R           -8.3364610587        4.3108230645        8.9706443184  LPSA5     1               0.0000000000
      4705       145  ECLIPA    H14S          -10.0495844946        5.0441693589        8.7243868424  LPSA5     1               0.0000000000
      4706       145  ECLIPA    C15            -9.0850731261        4.3851731804        6.9526486677  LPSA5     1               0.0000000000
      4707       145  ECLIPA    H15R           -8.5835231255        3.5209556591        6.5500123177  LPSA5     1               0.0000000000
      4708       145  ECLIPA    H15S           -8.4754459971        5.2871430853        6.8782608049  LPSA5     1               0.0000000000
      4709       145  ECLIPA    C16           -10.4085690664        4.5396928177        6.1622847334  LPSA5     1               0.0000000000
      4710       145  ECLIPA    H16R          -10.8396155638        5.6009136713        6.2733383262  LPSA5     1               0.0000000000
      4711       145  ECLIPA    H16S          -11.1889746929        3.9922582304        6.7182496574  LPSA5     1               0.0000000000
      4712       145  ECLIPA    C17           -10.2675115534        4.2004556003        4.6801229578  LPSA5     1               0.0000000000
      4713       145  ECLIPA    H17R           -9.2988546823        4.7296697220        4.4246758429  LPSA5     1               0.0000000000
      4714       145  ECLIPA    H17S          -11.0272346204        4.6073128683        4.0046542873  LPSA5     1               0.0000000000
      4715       145  ECLIPA    C18           -10.1681070070        2.7170089389        4.4504458171  LPSA5     1               0.0000000000
      4716       145  ECLIPA    H18R           -9.3668809396        2.4495366862        5.0865821920  LPSA5     1               0.0000000000
      4717       145  ECLIPA    H18S          -11.1423130893        2.2512278654        4.7749867078  LPSA5     1               0.0000000000
      4718       145  ECLIPA    C19            -9.8832538987        2.3729690434        3.0097966450  LPSA5     1               0.0000000000
      4719       145  ECLIPA    H19R           -9.6986960689        1.3113496885        2.9245509529  LPSA5     1               0.0000000000
      4720       145  ECLIPA    H19S           -8.9832691628        2.9562895159        2.6238151240  LPSA5     1               0.0000000000
      4721       145  ECLIPA    C110          -11.1071867569        2.6560661429        2.1045801788  LPSA5     1               0.0000000000
      4722       145  ECLIPA    H110R         -12.0533544477        2.2295102197        2.4416701971  LPSA5     1               0.0000000000
      4723       145  ECLIPA    H110S         -11.1249538564        3.7668747575        2.1583327743  LPSA5     1               0.0000000000
      4724       145  ECLIPA    C111          -10.7883519520        2.2228532059        0.7563571155  LPSA5     1               0.0000000000
      4725       145  ECLIPA    H111R          -9.7531987403        2.4853828983        0.3999767799  LPSA5     1               0.0000000000
      4726       145  ECLIPA    H111S         -10.7796507950        1.1646967292        0.7977177860  LPSA5     1               0.0000000000
      4727       145  ECLIPA    C112          -11.8312445320        2.6365646064       -0.2937360943  LPSA5     1               0.0000000000
      4728       145  ECLIPA    H112R         -12.7406670417        2.2014556251        0.1973446929  LPSA5     1               0.0000000000
      4729       145  ECLIPA    H112S         -12.0672146060        3.7009968106       -0.2177998937  LPSA5     1               0.0000000000
      4730       145  ECLIPA    C113          -11.4031102729        2.3746116315       -1.7468031795  LPSA5     1               0.0000000000
      4731       145  ECLIPA    H113R         -10.5452160917        3.0467143591       -1.9802017524  LPSA5     1               0.0000000000
      4732       145  ECLIPA    H113S         -10.9788283470        1.3711488684       -1.8531093719  LPSA5     1               0.0000000000
      4733       145  ECLIPA    C114          -12.4471089822        2.4001724499       -2.8344928043  LPSA5     1               0.0000000000
      4734       145  ECLIPA    H114R         -13.3668446542        1.8239244840       -2.7829422503  LPSA5     1               0.0000000000
      4735       145  ECLIPA    H114S         -12.7932686047        3.4594372584       -2.9951089580  LPSA5     1               0.0000000000
      4736       145  ECLIPA    H114T         -12.0366249945        1.9121329847       -3.7399523103  LPSA5     1               0.0000000000
      4737       146  AKDO      C1            -14.7263406898        8.0201973835       22.4410509549  LPSA5     2               0.0000000000
      4738       146  AKDO      O11           -15.9239051723        8.4658157576       22.4913720772  LPSA5     2               0.0000000000
      4739       146  AKDO      O12           -13.6582506971        8.5896660560       22.0800765534  LPSA5     2               0.0000000000
      4740       146  AKDO      C2            -14.5600045232        6.5654266352       22.8913181237  LPSA5     2               0.0000000000
      4741       146  AKDO      C6            -15.7697929079        4.7470098782       23.8039205188  LPSA5     2               0.0000000000
      4742       146  AKDO      H6            -15.5573691007        4.1603703141       22.9487387861  LPSA5     2               0.0000000000
      4743       146  AKDO      O6            -15.7811891864        6.1824296534       23.4267274814  LPSA5     2               0.0000000000
      4744       146  AKDO      C3            -13.5503193101        6.3962093778       23.9587385105  LPSA5     2               0.0000000000
      4745       146  AKDO      H31           -13.6688322132        7.0283012190       24.7868435866  LPSA5     2               0.0000000000
      4746       146  AKDO      H32           -12.5033912332        6.5773863826       23.4151264596  LPSA5     2               0.0000000000
      4747       146  AKDO      C4            -13.4846544974        4.9320294936       24.3842593775  LPSA5     2               0.0000000000
      4748       146  AKDO      H4            -13.3246867778        4.2635742520       23.5563617270  LPSA5     2               0.0000000000
      4749       146  AKDO      O4            -12.4430988714        4.7641263415       25.3355834555  LPSA5     2               0.0000000000
      4750       146  AKDO      C5            -14.7479920287        4.4371411101       24.9292437177  LPSA5     2               0.0000000000
      4751       146  AKDO      H5            -14.7317367295        3.3183043897       25.0107888161  LPSA5     2               0.0000000000
      4752       146  AKDO      O5            -15.0083537627        5.1564721400       26.2083878813  LPSA5     2               0.0000000000
      4753       146  AKDO      C7            -17.2220723917        4.2107875007       24.1981149098  LPSA5     2               0.0000000000
      4754       146  AKDO      H7            -17.5421064518        4.7392002956       25.0939202098  LPSA5     2               0.0000000000
      4755       146  AKDO      O7            -17.2418682050        2.7666643968       24.3482682347  LPSA5     2               0.0000000000
      4756       146  AKDO      HO7           -17.2367118847        2.4269137919       23.4945166536  LPSA5     2               0.0000000000
      4757       146  AKDO      C8            -18.1510675740        4.5630892880       22.9864433882  LPSA5     2               0.0000000000
      4758       146  AKDO      H81           -18.0987124199        5.6759328846       22.9153150275  LPSA5     2               0.0000000000
      4759       146  AKDO      H82           -17.7249020216        4.0017127780       22.0745354517  LPSA5     2               0.0000000000
      4760       146  AKDO      O8            -19.5352893051        4.1566866622       23.3537996748  LPSA5     2               0.0000000000
      4761       146  AKDO      HO8           -20.1635808929        4.7892006462       22.9179804014  LPSA5     2               0.0000000000
      4762       147  AKDO      C1            -11.0182949831        3.6491127603       23.8027969005  LPSA5     3               1.0000000000
      4763       147  AKDO      O11           -10.8513894102        4.1432696928       22.6471489042  LPSA5     3               1.0000000000
      4764       147  AKDO      O12           -11.1188309080        2.4270126475       24.0656860145  LPSA5     3               1.0000000000
      4765       147  AKDO      C2            -11.0815875257        4.5652818480       25.0166033796  LPSA5     3               1.0000000000
      4766       147  AKDO      C6            -10.5926720733        6.7956369821       25.7688829792  LPSA5     3               1.0000000000
      4767       147  AKDO      H6            -11.6921792768        7.0011718250       25.9810553331  LPSA5     3               1.0000000000
      4768       147  AKDO      O6            -10.4735454775        5.8679547493       24.7076657818  LPSA5     3               1.0000000000
      4769       147  AKDO      C3            -10.4388080305        4.0172834897       26.3187707743  LPSA5     3               1.0000000000
      4770       147  AKDO      H31            -9.2977756924        3.8391885769       26.1504935106  LPSA5     3               1.0000000000
      4771       147  AKDO      H32           -10.8744340106        3.0465509901       26.5929217108  LPSA5     3               1.0000000000
      4772       147  AKDO      C4            -10.6272325655        5.0467356031       27.4036122013  LPSA5     3               1.0000000000
      4773       147  AKDO      H4            -11.6859536164        5.3235522064       27.4051754129  LPSA5     3               1.0000000000
      4774       147  AKDO      O4            -10.2880366055        4.6443826751       28.7388570077  LPSA5     3               1.0000000000
      4775       147  AKDO      HO4           -10.9927703669        4.7091520286       29.3717785514  LPSA5     3               1.0000000000
      4776       147  AKDO      C5             -9.9858815216        6.2524128254       27.0369167275  LPSA5     3               1.0000000000
      4777       147  AKDO      H5            -10.0597419592        6.9884701035       27.9236884022  LPSA5     3               1.0000000000
      4778       147  AKDO      O5             -8.5740159262        6.0399506726       26.8495261943  LPSA5     3               1.0000000000
      4779       147  AKDO      HO5            -8.4339487897        5.3937308573       26.1887877298  LPSA5     3               1.0000000000
      4780       147  AKDO      C7             -9.9258276780        8.0737569948       25.3258859863  LPSA5     3               1.0000000000
      4781       147  AKDO      H7             -8.8241157000        7.9197641060       25.1324849511  LPSA5     3               1.0000000000
      4782       147  AKDO      O7            -10.1105212870        9.0728939139       26.3661029982  LPSA5     3               1.0000000000
      4783       147  AKDO      HO7            -9.5391608280        9.8439333292       26.1647669547  LPSA5     3               1.0000000000
      4784       147  AKDO      C8            -10.6667611901        8.5680159900       24.1539635864  LPSA5     3               1.0000000000
      4785       147  AKDO      H81           -10.6359067870        7.8296553007       23.3419478721  LPSA5     3               1.0000000000
      4786       147  AKDO      H82           -11.7264415195        8.8339978615       24.2853144505  LPSA5     3               1.0000000000
      4787       147  AKDO      O8            -10.0501561015        9.7332614385       23.6541307456  LPSA5     3               1.0000000000
      4788       147  AKDO      HO8            -9.2883444889        9.2793720624       23.2473452835  LPSA5     3               1.0000000000
      4789       148  AHEP      C1            -15.6306685934        4.4654428816       27.2793229502  LPSA5     4               2.0000000000
      4790       148  AHEP      H1            -16.6795527480        4.5846246198       26.8517192453  LPSA5     4               2.0000000000
      4791       148  AHEP      C5            -14.1544799425        2.6915639089       28.0185271385  LPSA5     4               2.0000000000
      4792       148  AHEP      H5            -13.3449380438        3.3835023278       27.5619054335  LPSA5     4               2.0000000000
      4793       148  AHEP      O5            -15.3805519320        3.0625899500       27.3942805697  LPSA5     4               2.0000000000
      4794       148  AHEP      C2            -15.7072398908        5.0102589414       28.6827861277  LPSA5     4               2.0000000000
      4795       148  AHEP      H2            -15.8518962421        6.0945511271       28.7442425996  LPSA5     4               2.0000000000
      4796       148  AHEP      O2            -16.7799633016        4.4395230574       29.3407203943  LPSA5     4               2.0000000000
      4797       148  AHEP      HO2           -17.2181149359        5.0942402287       29.8507927467  LPSA5     4               2.0000000000
      4798       148  AHEP      C3            -14.4335312552        4.6773348229       29.4857672188  LPSA5     4               2.0000000000
      4799       148  AHEP      H3            -13.5354056500        5.2548324473       29.2269906369  LPSA5     4               2.0000000000
      4800       148  AHEP      O3            -14.6060933074        5.0202918846       30.7882097304  LPSA5     4               2.0000000000
      4801       148  AHEP      C4            -14.2018335506        3.1884237926       29.4546205599  LPSA5     4               2.0000000000
      4802       148  AHEP      H4            -14.9704026346        2.5671060401       29.9788637739  LPSA5     4               2.0000000000
      4803       148  AHEP      O4            -12.9520498267        2.9116147470       30.0145912217  LPSA5     4               2.0000000000
      4804       148  AHEP      P4            -12.7756032837        2.1829766236       31.4978499249  LPSA5     4               2.0000000000
      4805       148  AHEP      OP42          -11.5666585413        2.7197869609       32.1560374192  LPSA5     4               2.0000000000
      4806       148  AHEP      OP43          -12.6095580380        0.7638994853       31.0397938518  LPSA5     4               2.0000000000
      4807       148  AHEP      OP44          -14.1009518679        2.3245665640       32.3098937101  LPSA5     4               2.0000000000
      4808       148  AHEP      C6            -13.8274960615        1.1707877189       27.7982482844  LPSA5     4               2.0000000000
      4809       148  AHEP      H6            -12.7382656153        1.0498039158       28.0833143566  LPSA5     4               2.0000000000
      4810       148  AHEP      O6            -14.6370349837        0.4240318696       28.7103505027  LPSA5     4               2.0000000000
      4811       148  AHEP      HO6           -14.1045225031       -0.2433987914       29.2203787365  LPSA5     4               2.0000000000
      4812       148  AHEP      C7            -13.9967605693        0.6938113665       26.3054198206  LPSA5     4               2.0000000000
      4813       148  AHEP      H71           -13.5908479808       -0.3618387534       26.1576126064  LPSA5     4               2.0000000000
      4814       148  AHEP      H72           -13.5657655143        1.4618813802       25.6323487339  LPSA5     4               2.0000000000
      4815       148  AHEP      O7            -15.3783260238        0.5845795821       25.9755159574  LPSA5     4               2.0000000000
      4816       148  AHEP      HO7           -15.6977223348       -0.2621940380       26.3256794122  LPSA5     4               2.0000000000
      4817       149  AHEP      C1            -13.7460744703        5.9863567944       31.4342177374  LPSA5     5               3.0000000000
      4818       149  AHEP      H1            -12.7208181855        5.9897815136       30.9794447437  LPSA5     5               3.0000000000
      4819       149  AHEP      C5            -15.5446358773        7.4725365199       31.9165413065  LPSA5     5               3.0000000000
      4820       149  AHEP      H5            -16.2089232695        6.5971973336       31.6031509785  LPSA5     5               3.0000000000
      4821       149  AHEP      O5            -14.2751271140        7.3183875989       31.3013865768  LPSA5     5               3.0000000000
      4822       149  AHEP      C2            -13.5608676849        5.7565217504       32.9718957084  LPSA5     5               3.0000000000
      4823       149  AHEP      H2            -13.2075917865        4.6820142075       33.0921707216  LPSA5     5               3.0000000000
      4824       149  AHEP      O2            -12.5580501803        6.6227468090       33.4691025827  LPSA5     5               3.0000000000
      4825       149  AHEP      HO2           -11.7584855685        6.1353301399       33.6403503244  LPSA5     5               3.0000000000
      4826       149  AHEP      C3            -14.9155022479        5.8761202579       33.7004304811  LPSA5     5               3.0000000000
      4827       149  AHEP      H3            -15.6190774856        5.1187249049       33.3375632548  LPSA5     5               3.0000000000
      4828       149  AHEP      O3            -14.8818150997        5.7106746498       35.1462238331  LPSA5     5               3.0000000000
      4829       149  AHEP      C4            -15.4141098948        7.2582602879       33.4524658705  LPSA5     5               3.0000000000
      4830       149  AHEP      H4            -14.7030603108        8.0383196007       33.8188816395  LPSA5     5               3.0000000000
      4831       149  AHEP      O4            -16.7246001886        7.3863155658       34.0881196202  LPSA5     5               3.0000000000
      4832       149  AHEP      P4            -16.9520487280        8.4194411876       35.2810123301  LPSA5     5               3.0000000000
      4833       149  AHEP      OP42          -18.3318081624        8.1244333763       35.8202965042  LPSA5     5               3.0000000000
      4834       149  AHEP      OP43          -16.8759494232        9.8167574322       34.6107506294  LPSA5     5               3.0000000000
      4835       149  AHEP      OP44          -15.8076759588        8.2324858496       36.2417033353  LPSA5     5               3.0000000000
      4836       149  AHEP      C6            -16.2450932514        8.7898167029       31.5493607386  LPSA5     5               3.0000000000
      4837       149  AHEP      H6            -17.2702404842        8.8360843700       31.9533288164  LPSA5     5               3.0000000000
      4838       149  AHEP      O6            -15.4988988322        9.8971352557       32.0428602265  LPSA5     5               3.0000000000
      4839       149  AHEP      HO6           -14.6769014561       10.1335345415       31.5367188277  LPSA5     5               3.0000000000
      4840       149  AHEP      C7            -16.5108218482        8.8316534647       30.0822725317  LPSA5     5               3.0000000000
      4841       149  AHEP      H71           -17.4572138343        9.3918167979       29.9169108581  LPSA5     5               3.0000000000
      4842       149  AHEP      H72           -16.6404623558        7.8360286864       29.6179339851  LPSA5     5               3.0000000000
      4843       149  AHEP      O7            -15.4681040103        9.6389527575       29.4957736452  LPSA5     5               3.0000000000
      4844       150  AHEP      C1            -14.5111055151        8.9052838146       28.7926622005  LPSA5     6               4.0000000000
      4845       150  AHEP      H1            -14.6010232974        7.7913540281       29.0422981953  LPSA5     6               4.0000000000
      4846       150  AHEP      C5            -14.5641852137       10.3889918748       26.9237617191  LPSA5     6               4.0000000000
      4847       150  AHEP      H5            -15.2845739662       11.0031093065       27.4818042043  LPSA5     6               4.0000000000
      4848       150  AHEP      O5            -14.6534479213        9.0217673673       27.3547530115  LPSA5     6               4.0000000000
      4849       150  AHEP      C2            -13.1431246035        9.3405482153       29.2397872647  LPSA5     6               4.0000000000
      4850       150  AHEP      H2            -13.0798258256        9.1409182726       30.3523091474  LPSA5     6               4.0000000000
      4851       150  AHEP      O2            -12.1231797570        8.5229164419       28.7267108980  LPSA5     6               4.0000000000
      4852       150  AHEP      HO2           -11.8270185922        8.0302176137       29.4669064354  LPSA5     6               4.0000000000
      4853       150  AHEP      C3            -12.9674360125       10.8288772234       28.8468391403  LPSA5     6               4.0000000000
      4854       150  AHEP      H3            -13.6999155876       11.3995066248       29.4311808254  LPSA5     6               4.0000000000
      4855       150  AHEP      O3            -11.6197463070       11.3981167148       29.2225362108  LPSA5     6               4.0000000000
      4856       150  AHEP      HO3           -11.5787249030       11.9069064615       29.9865592523  LPSA5     6               4.0000000000
      4857       150  AHEP      C4            -13.1681627316       10.9070837101       27.2761740859  LPSA5     6               4.0000000000
      4858       150  AHEP      H4            -12.3275202342       10.4278650671       26.7944950683  LPSA5     6               4.0000000000
      4859       150  AHEP      O4            -13.0559672501       12.2545698604       26.7938835778  LPSA5     6               4.0000000000
      4860       150  AHEP      HO4           -13.9205122967       12.6867880252       27.1589530594  LPSA5     6               4.0000000000
      4861       150  AHEP      C6            -14.9594564818       10.5864729869       25.4906533340  LPSA5     6               4.0000000000
      4862       150  AHEP      H6            -14.9440044934       11.6609250923       25.3442628137  LPSA5     6               4.0000000000
      4863       150  AHEP      O6            -13.9193709250       10.1045173194       24.6375675438  LPSA5     6               4.0000000000
      4864       150  AHEP      HO6           -14.2592080703        9.4720816987       23.9977784313  LPSA5     6               4.0000000000
      4865       150  AHEP      C7            -16.3520449618       10.1206814858       25.1799756221  LPSA5     6               4.0000000000
      4866       150  AHEP      H71           -16.5973846099       10.4705723253       24.1408078076  LPSA5     6               4.0000000000
      4867       150  AHEP      H72           -17.0071516426       10.6061406595       25.9252229174  LPSA5     6               4.0000000000
      4868       150  AHEP      O7            -16.5201630815        8.7356768977       25.2517430265  LPSA5     6               4.0000000000
      4869       150  AHEP      HO7           -16.6864142095        8.5637270569       26.2011285002  LPSA5     6               4.0000000000
      4870       151  AGLC      C1            -15.0010000647        4.3889156415       35.6520976122  LPSA5     7               4.0000000000
      4871       151  AGLC      H1            -15.9362339964        3.9045766922       35.2047739589  LPSA5     7               4.0000000000
      4872       151  AGLC      C5            -12.7129536641        4.0289323797       36.0987679218  LPSA5     7               4.0000000000
      4873       151  AGLC      H5            -12.4655391789        5.0666775700       35.8327124756  LPSA5     7               4.0000000000
      4874       151  AGLC      O5            -13.8598705583        3.6097646975       35.4366254460  LPSA5     7               4.0000000000
      4875       151  AGLC      C2            -15.2147755666        4.3877397768       37.1582745954  LPSA5     7               4.0000000000
      4876       151  AGLC      H2            -15.2285597548        3.2874221915       37.4887389927  LPSA5     7               4.0000000000
      4877       151  AGLC      O2            -16.5482610883        4.8113425668       37.5024056006  LPSA5     7               4.0000000000
      4878       151  AGLC      HO2           -16.4832881722        5.7532254142       37.6430208865  LPSA5     7               4.0000000000
      4879       151  AGLC      C3            -14.1186136811        4.8419870067       37.9903802326  LPSA5     7               4.0000000000
      4880       151  AGLC      H3            -13.9580558077        5.8730181201       37.6727250444  LPSA5     7               4.0000000000
      4881       151  AGLC      O3            -14.3684079635        4.9628311796       39.4204481292  LPSA5     7               4.0000000000
      4882       151  AGLC      C4            -12.9818678601        3.9461855455       37.5928595998  LPSA5     7               4.0000000000
      4883       151  AGLC      H4            -13.1752385027        2.8703865519       37.9560286200  LPSA5     7               4.0000000000
      4884       151  AGLC      O4            -11.8177118134        4.5213222818       38.2243117391  LPSA5     7               4.0000000000
      4885       151  AGLC      HO4           -11.2501568287        3.8908762756       38.6132003238  LPSA5     7               4.0000000000
      4886       151  AGLC      C6            -11.4771423374        3.2918828162       35.5245160098  LPSA5     7               4.0000000000
      4887       151  AGLC      H61           -11.5163136625        3.4276250454       34.4135318240  LPSA5     7               4.0000000000
      4888       151  AGLC      H62           -10.4715499376        3.6115996375       35.8722646349  LPSA5     7               4.0000000000
      4889       151  AGLC      O6            -11.7026170266        1.8587520372       35.6892983147  LPSA5     7               4.0000000000
      4890       151  AGLC      HO6           -11.1890198749        1.7156528601       36.4386090630  LPSA5     7               4.0000000000
      4891       152  AGLC      C1            -14.3470470277        6.2477032789       39.9328324507  LPSA5     8               5.0000000000
      4892       152  AGLC      H1            -13.4415276921        6.7770709513       39.5884769495  LPSA5     8               5.0000000000
      4893       152  AGLC      C5            -16.7862120654        6.6146414195       40.2153373402  LPSA5     8               5.0000000000
      4894       152  AGLC      H5            -16.9551754748        5.5980622994       39.8400606936  LPSA5     8               5.0000000000
      4895       152  AGLC      O5            -15.5345280570        7.0530545458       39.6195505863  LPSA5     8               5.0000000000
      4896       152  AGLC      C2            -14.2417176910        6.2260795141       41.4170311384  LPSA5     8               5.0000000000
      4897       152  AGLC      H2            -14.0609044560        7.2991391535       41.6529594578  LPSA5     8               5.0000000000
      4898       152  AGLC      O2            -13.0661213539        5.6216569168       41.9438754185  LPSA5     8               5.0000000000
      4899       152  AGLC      C3            -15.4531305422        5.7433959717       42.1297388169  LPSA5     8               5.0000000000
      4900       152  AGLC      H3            -15.5270246205        4.7163602156       41.6567950186  LPSA5     8               5.0000000000
      4901       152  AGLC      O3            -15.1989255721        5.6600865622       43.5370978028  LPSA5     8               5.0000000000
      4902       152  AGLC      C4            -16.5530790264        6.6230136012       41.7603093222  LPSA5     8               5.0000000000
      4903       152  AGLC      H4            -16.3416109231        7.6384298220       42.0401368658  LPSA5     8               5.0000000000
      4904       152  AGLC      O4            -17.7484992814        6.2285107337       42.3914819843  LPSA5     8               5.0000000000
      4905       152  AGLC      HO4           -17.7895323011        5.3036452642       42.3800652601  LPSA5     8               5.0000000000
      4906       152  AGLC      C6            -18.0650925007        7.3409632592       39.7357334439  LPSA5     8               5.0000000000
      4907       152  AGLC      H61           -18.1183471536        7.4850118346       38.6468043611  LPSA5     8               5.0000000000
      4908       152  AGLC      H62           -18.9871232622        6.8736751974       40.0276014644  LPSA5     8               5.0000000000
      4909       152  AGLC      O6            -18.2506562901        8.6037973173       40.3040784562  LPSA5     8               5.0000000000
      4910       152  AGLC      HO6           -18.6087443440        8.5551162408       41.2121845210  LPSA5     8               5.0000000000
      4911       153  AGAL      C1            -11.8165168019        6.0082836203       41.4573847493  LPSA5     9               6.0000000000
      4912       153  AGAL      H1            -11.8347892500        6.0527568433       40.3420235153  LPSA5     9               6.0000000000
      4913       153  AGAL      C5            -11.0711270725        7.3502097298       43.2125447641  LPSA5     9               6.0000000000
      4914       153  AGAL      H5            -11.9951542285        6.8917215407       43.7424973645  LPSA5     9               6.0000000000
      4915       153  AGAL      O5            -11.3026708719        7.3199130183       41.8451689838  LPSA5     9               6.0000000000
      4916       153  AGAL      C2            -10.8160027569        4.9498506954       41.8393925249  LPSA5     9               6.0000000000
      4917       153  AGAL      H2             -9.8556555296        5.1996699272       41.4115621152  LPSA5     9               6.0000000000
      4918       153  AGAL      O2            -11.0613011390        3.7036181016       41.1608705954  LPSA5     9               6.0000000000
      4919       153  AGAL      C3            -10.5361847600        4.9515501766       43.3264191845  LPSA5     9               6.0000000000
      4920       153  AGAL      H3            -11.4903723408        4.6490285941       43.9424563891  LPSA5     9               6.0000000000
      4921       153  AGAL      O3             -9.6881008301        3.9266103012       43.7491515633  LPSA5     9               6.0000000000
      4922       153  AGAL      HO3            -9.8631063459        3.1792611147       43.1585960960  LPSA5     9               6.0000000000
      4923       153  AGAL      C4            -10.0371425931        6.3023021908       43.6505755014  LPSA5     9               6.0000000000
      4924       153  AGAL      H4             -9.8910051159        6.4637108023       44.7734818408  LPSA5     9               6.0000000000
      4925       153  AGAL      O4             -8.8265944535        6.6453490244       43.0499075873  LPSA5     9               6.0000000000
      4926       153  AGAL      HO4            -8.3785772369        7.2493106389       43.6622427513  LPSA5     9               6.0000000000
      4927       153  AGAL      C6            -11.0020890786        8.7455005457       43.8349081587  LPSA5     9               6.0000000000
      4928       153  AGAL      H61           -11.9136317457        9.3678404814       43.6417203355  LPSA5     9               6.0000000000
      4929       153  AGAL      H62           -10.9268875892        8.7567235269       44.9292747136  LPSA5     9               6.0000000000
      4930       153  AGAL      O6             -9.8699216594        9.4401793344       43.4062227539  LPSA5     9               6.0000000000
      4931       153  AGAL      HO6           -10.1584613718       10.0382990128       42.6923548993  LPSA5     9               6.0000000000
      4932       154  AGAL      C1            -11.1260430141        2.3843695052       41.7517281777  LPSA5     10              7.0000000000
      4933       154  AGAL      H1            -10.0685861402        2.1019140141       41.8429972083  LPSA5     10              7.0000000000
      4934       154  AGAL      C5            -13.1445321348        2.4164112458       43.0613392294  LPSA5     10              7.0000000000
      4935       154  AGAL      H5            -13.2885261559        3.5008887106       42.6233508762  LPSA5     10              7.0000000000
      4936       154  AGAL      O5            -11.7340654862        2.1242280486       43.0470213554  LPSA5     10              7.0000000000
      4937       154  AGAL      C2            -11.8377081401        1.4868328569       40.7227968417  LPSA5     10              7.0000000000
      4938       154  AGAL      H2            -11.5802637824        0.4038559612       41.0433947026  LPSA5     10              7.0000000000
      4939       154  AGAL      O2            -11.1530219748        1.3597240196       39.5532095562  LPSA5     10              7.0000000000
      4940       154  AGAL      HO2           -11.0078455584        0.4464517651       39.3379401176  LPSA5     10              7.0000000000
      4941       154  AGAL      C3            -13.3047229302        1.7276348036       40.6928251787  LPSA5     10              7.0000000000
      4942       154  AGAL      H3            -13.3786437375        2.7896621458       40.4679648945  LPSA5     10              7.0000000000
      4943       154  AGAL      O3            -14.0187861116        0.9572521164       39.7732034444  LPSA5     10              7.0000000000
      4944       154  AGAL      HO3           -14.2627016363        1.5437922694       39.0151094934  LPSA5     10              7.0000000000
      4945       154  AGAL      C4            -13.8659612443        1.4866501226       42.0524071915  LPSA5     10              7.0000000000
      4946       154  AGAL      H4            -14.9381952365        1.7563711938       42.1099272557  LPSA5     10              7.0000000000
      4947       154  AGAL      O4            -13.7523211423        0.1660018451       42.4965010455  LPSA5     10              7.0000000000
      4948       154  AGAL      HO4           -12.8242733261        0.0321851959       42.5675127347  LPSA5     10              7.0000000000
      4949       154  AGAL      C6            -13.8175778505        2.4537735067       44.3959537205  LPSA5     10              7.0000000000
      4950       154  AGAL      H61           -13.2927317578        3.0873168732       45.1044438806  LPSA5     10              7.0000000000
      4951       154  AGAL      H62           -14.8719741656        2.9985046742       44.2564473849  LPSA5     10              7.0000000000
      4952       154  AGAL      O6            -14.0900507963        1.2301336314       45.1112340130  LPSA5     10              7.0000000000
      4953       154  AGAL      HO6           -13.5520736395        1.2337842260       45.9237589285  LPSA5     10              7.0000000000
      4954       155  BGLC      C1            -15.4968308815        6.6530758875       44.5018065681  LPSA5     11              6.0000000000
      4955       155  BGLC      H1            -16.5702163098        6.5715225009       44.5883763758  LPSA5     11              6.0000000000
      4956       155  BGLC      C5            -15.2634939653        9.0688010329       45.1248117688  LPSA5     11              6.0000000000
      4957       155  BGLC      H5            -16.3721713924        9.1929312158       45.3871201921  LPSA5     11              6.0000000000
      4958       155  BGLC      O5            -14.9990251328        7.9860146846       44.0830650888  LPSA5     11              6.0000000000
      4959       155  BGLC      C2            -14.8115198430        6.3016735176       45.7977571702  LPSA5     11              6.0000000000
      4960       155  BGLC      H2            -13.7019432086        6.1719626368       45.7293388291  LPSA5     11              6.0000000000
      4961       155  BGLC      O2            -15.2571616421        4.9849872908       46.0886391483  LPSA5     11              6.0000000000
      4962       155  BGLC      HO2           -14.5121504654        4.4480109295       46.2788110113  LPSA5     11              6.0000000000
      4963       155  BGLC      C3            -15.0089546954        7.2870937156       46.8736276645  LPSA5     11              6.0000000000
      4964       155  BGLC      H3            -16.1331188359        7.2568739874       47.1984917368  LPSA5     11              6.0000000000
      4965       155  BGLC      O3            -14.2692549970        6.8441322556       48.0056213318  LPSA5     11              6.0000000000
      4966       155  BGLC      C4            -14.5701604549        8.5969497234       46.4390836423  LPSA5     11              6.0000000000
      4967       155  BGLC      H4            -13.4583633246        8.4908595687       46.2001611147  LPSA5     11              6.0000000000
      4968       155  BGLC      O4            -14.6566198646        9.5596511819       47.4766894645  LPSA5     11              6.0000000000
      4969       155  BGLC      HO4           -13.9697254835        9.3633777187       48.1247908570  LPSA5     11              6.0000000000
      4970       155  BGLC      C6            -14.8961725150       10.4388860005       44.5291127165  LPSA5     11              6.0000000000
      4971       155  BGLC      H61           -14.7314202475       11.2298514409       45.2481190913  LPSA5     11              6.0000000000
      4972       155  BGLC      H62           -13.9910328647       10.2798290327       43.8913252379  LPSA5     11              6.0000000000
      4973       155  BGLC      O6            -15.8512462574       10.9575100001       43.5637942269  LPSA5     11              6.0000000000
      4974       155  BGLC      HO6           -16.2111420061       11.6902332419       44.0054369298  LPSA5     11              6.0000000000
      4975       156  BGLCNA    C1            -14.8511723500        6.7229613765       49.3238540420  LPSA5     12              7.0000000000
      4976       156  BGLCNA    H1            -15.3289301967        5.6876195444       49.3874222992  LPSA5     12              7.0000000000
      4977       156  BGLCNA    C5            -16.4951910297        7.5189290203       50.8763077070  LPSA5     12              7.0000000000
      4978       156  BGLCNA    H5            -16.9914446037        6.4522327366       50.9814236466  LPSA5     12              7.0000000000
      4979       156  BGLCNA    O5            -15.8610228131        7.7225933681       49.5875345322  LPSA5     12              7.0000000000
      4980       156  BGLCNA    C2            -13.7539954013        6.8734096310       50.3245054808  LPSA5     12              7.0000000000
      4981       156  BGLCNA    H2            -13.4725842280        8.0109299834       50.3375086743  LPSA5     12              7.0000000000
      4982       156  BGLCNA    N             -12.6578413051        5.9285445829       50.0347611965  LPSA5     12              7.0000000000
      4983       156  BGLCNA    HN            -13.0221038161        5.0576618418       49.9972643287  LPSA5     12              7.0000000000
      4984       156  BGLCNA    C             -11.4361503261        6.3437879314       49.8903426450  LPSA5     12              7.0000000000
      4985       156  BGLCNA    O             -11.1654434702        7.5202968368       50.0855928044  LPSA5     12              7.0000000000
      4986       156  BGLCNA    CT            -10.4030369439        5.3074489292       49.5677689528  LPSA5     12              7.0000000000
      4987       156  BGLCNA    HT1            -9.6805787386        5.1668743743       50.3918503408  LPSA5     12              7.0000000000
      4988       156  BGLCNA    HT2            -9.6959917214        5.7033532260       48.7104760971  LPSA5     12              7.0000000000
      4989       156  BGLCNA    HT3           -10.9588611863        4.3973397879       49.2316245990  LPSA5     12              7.0000000000
      4990       156  BGLCNA    C3            -14.2638599191        6.6657529840       51.6995695120  LPSA5     12              7.0000000000
      4991       156  BGLCNA    H3            -14.6391834519        5.5523951395       51.8605307917  LPSA5     12              7.0000000000
      4992       156  BGLCNA    O3            -13.2387668789        6.7482055610       52.7272334264  LPSA5     12              7.0000000000
      4993       156  BGLCNA    C4            -15.3545431463        7.6554962639       51.9591692987  LPSA5     12              7.0000000000
      4994       156  BGLCNA    H4            -15.0202809170        8.7598895609       51.9037868612  LPSA5     12              7.0000000000
      4995       156  BGLCNA    O4            -15.8970256094        7.5110778636       53.2294962294  LPSA5     12              7.0000000000
      4996       156  BGLCNA    HO4           -16.5025259765        6.7149834264       53.2834945119  LPSA5     12              7.0000000000
      4997       156  BGLCNA    C6            -17.6731185197        8.5113875369       50.9528560558  LPSA5     12              7.0000000000
      4998       156  BGLCNA    H61           -18.1304957451        8.4738605294       51.9144325068  LPSA5     12              7.0000000000
      4999       156  BGLCNA    H62           -17.1898952511        9.4742348039       50.8287962869  LPSA5     12              7.0000000000
      5000       156  BGLCNA    O6            -18.5380594389        8.3326427108       49.8597561973  LPSA5     12              7.0000000000
      5001       156  BGLCNA    HO6           -19.1588395161        7.6977625202       50.1903398796  LPSA5     12              7.0000000000
      5002       157  AGAL      C1            -13.3310380997        5.7706082414       53.8132743488  LPSA5     13              8.0000000000
      5003       157  AGAL      H1            -14.3757639716        5.7480956282       54.1959401301  LPSA5     13              8.0000000000
      5004       157  AGAL      C5            -11.2972984827        4.5854895807       53.2950732168  LPSA5     13              8.0000000000
      5005       157  AGAL      H5            -11.1525971597        5.3780580508       52.5641412600  LPSA5     13              8.0000000000
      5006       157  AGAL      O5            -12.7156627127        4.4724365780       53.4918445955  LPSA5     13              8.0000000000
      5007       157  AGAL      C2            -12.5692221792        6.1892758537       55.1010141246  LPSA5     13              8.0000000000
      5008       157  AGAL      H2            -12.5469724473        5.3225525745       55.7917211299  LPSA5     13              8.0000000000
      5009       157  AGAL      O2            -13.1888805379        7.2676347954       55.7701983428  LPSA5     13              8.0000000000
      5010       157  AGAL      C3            -11.0385714587        6.2975308230       54.8979691660  LPSA5     13              8.0000000000
      5011       157  AGAL      H3            -10.8533224574        6.9462428804       54.0477453328  LPSA5     13              8.0000000000
      5012       157  AGAL      O3            -10.3796636996        6.9584415651       55.9888739531  LPSA5     13              8.0000000000
      5013       157  AGAL      HO3            -9.6899451479        7.5395824211       55.6848713412  LPSA5     13              8.0000000000
      5014       157  AGAL      C4            -10.4978273817        5.0306753970       54.5514025965  LPSA5     13              8.0000000000
      5015       157  AGAL      H4             -9.4023301535        5.1284326007       54.1954731349  LPSA5     13              8.0000000000
      5016       157  AGAL      O4            -10.6021542321        4.0644973987       55.5743212917  LPSA5     13              8.0000000000
      5017       157  AGAL      HO4           -11.4446625057        4.0172062308       56.0499681296  LPSA5     13              8.0000000000
      5018       157  AGAL      C6            -10.6521207196        3.4465016313       52.5301443486  LPSA5     13              8.0000000000
      5019       157  AGAL      H61           -11.2378433468        3.2322724641       51.6253596531  LPSA5     13              8.0000000000
      5020       157  AGAL      H62            -9.5755386196        3.7029292090       52.3684678279  LPSA5     13              8.0000000000
      5021       157  AGAL      O6            -10.6311673682        2.2611446724       53.2985910507  LPSA5     13              8.0000000000
      5022       157  AGAL      HO6            -9.8969427742        2.3164504316       53.9299633642  LPSA5     13              8.0000000000
      5023       158  ARHM      C1            -13.8035597956        7.0686383399       57.0117786358  LPSA5     14              9.0000000000
      5024       158  ARHM      H1            -14.1239716888        6.0062100122       56.9981767125  LPSA5     14              9.0000000000
      5025       158  ARHM      C5            -14.6624284842        9.2247176356       57.1930138837  LPSA5     14              9.0000000000
      5026       158  ARHM      H5            -14.1288990812        9.4617916283       56.1976867078  LPSA5     14              9.0000000000
      5027       158  ARHM      O5            -14.9576881219        7.8781132603       57.1718909996  LPSA5     14              9.0000000000
      5028       158  ARHM      C2            -12.7907552698        7.3582692673       58.1413490634  LPSA5     14              9.0000000000
      5029       158  ARHM      H2            -11.9340448266        6.7468696694       57.8875987320  LPSA5     14              9.0000000000
      5030       158  ARHM      O2            -13.2479546826        7.0958123852       59.4330148990  LPSA5     14              9.0000000000
      5031       158  ARHM      C3            -12.4264125639        8.8143837455       58.1095432995  LPSA5     14              9.0000000000
      5032       158  ARHM      H3            -12.1592871708        9.0786834231       57.0440121713  LPSA5     14              9.0000000000
      5033       158  ARHM      O3            -11.2992856983        9.1543988898       58.8567888868  LPSA5     14              9.0000000000
      5034       158  ARHM      HO3           -11.6018003166        9.1197693335       59.8104957846  LPSA5     14              9.0000000000
      5035       158  ARHM      C4            -13.6798990422        9.5752017205       58.3490442956  LPSA5     14              9.0000000000
      5036       158  ARHM      H4            -14.2323568536        9.3454564410       59.2902338481  LPSA5     14              9.0000000000
      5037       158  ARHM      O4            -13.3646227098       10.9916013165       58.4446785014  LPSA5     14              9.0000000000
      5038       158  ARHM      HO4           -13.4939456762       11.4043769975       59.2969967688  LPSA5     14              9.0000000000
      5039       158  ARHM      C6            -15.9627802261       10.0442187257       57.2492155848  LPSA5     14              9.0000000000
      5040       158  ARHM      H61           -16.7860640737        9.6852535576       56.5358243550  LPSA5     14              9.0000000000
      5041       158  ARHM      H62           -16.2620867667       10.0512384803       58.3170764683  LPSA5     14              9.0000000000
      5042       158  ARHM      H63           -15.9537040499       11.0927514897       56.9421594120  LPSA5     14              9.0000000000
      5043       159  ARHM      C1            -13.7994608263        5.9097367681       59.7267990175  LPSA5     15             10.0000000000
      5044       159  ARHM      H1            -13.4301986403        5.1127172831       59.0458905905  LPSA5     15             10.0000000000
      5045       159  ARHM      C5            -15.9523174961        6.7380320436       60.6468530148  LPSA5     15             10.0000000000
      5046       159  ARHM      H5            -15.7761526932        7.8415030099       60.4457705401  LPSA5     15             10.0000000000
      5047       159  ARHM      O5            -15.2479960753        5.9112228362       59.6688136410  LPSA5     15             10.0000000000
      5048       159  ARHM      C2            -13.3967744618        5.4963223694       61.1407671534  LPSA5     15             10.0000000000
      5049       159  ARHM      H2            -12.2486966761        5.6087331356       61.2133420761  LPSA5     15             10.0000000000
      5050       159  ARHM      O2            -13.8301749014        4.1158606716       61.3234079317  LPSA5     15             10.0000000000
      5051       159  ARHM      C3            -14.0354082088        6.4324638961       62.1677656617  LPSA5     15             10.0000000000
      5052       159  ARHM      H3            -13.7496661855        7.4775510369       61.8628392879  LPSA5     15             10.0000000000
      5053       159  ARHM      O3            -13.3231236306        6.1840325493       63.4092175029  LPSA5     15             10.0000000000
      5054       159  ARHM      C4            -15.4789076632        6.3270001373       62.0487117432  LPSA5     15             10.0000000000
      5055       159  ARHM      H4            -15.7697314044        5.2054709066       62.1496903561  LPSA5     15             10.0000000000
      5056       159  ARHM      O4            -16.2827037871        7.0768103637       62.9635513464  LPSA5     15             10.0000000000
      5057       159  ARHM      HO4           -17.1535480769        6.7089941308       62.9565205260  LPSA5     15             10.0000000000
      5058       159  ARHM      C6            -17.4425507038        6.5854542316       60.4460959132  LPSA5     15             10.0000000000
      5059       159  ARHM      H61           -18.0715355338        7.2501566296       61.0956562646  LPSA5     15             10.0000000000
      5060       159  ARHM      H62           -17.6722814077        6.6123997392       59.3910198679  LPSA5     15             10.0000000000
      5061       159  ARHM      H63           -17.8290020652        5.6109715612       60.8578185328  LPSA5     15             10.0000000000
      5062       160  BMANNA    C1            -13.4930462090        3.4225576511       62.5145562334  LPSA5     16             11.0000000000
      5063       160  BMANNA    H1            -14.1565931839        3.8729472718       63.3432051365  LPSA5     16             11.0000000000
      5064       160  BMANNA    C5            -11.9327883505        2.8711685152       64.1851548173  LPSA5     16             11.0000000000
      5065       160  BMANNA    H5            -12.5868068307        3.2528790788       64.9800677769  LPSA5     16             11.0000000000
      5066       160  BMANNA    O5            -12.1337528074        3.5465788643       62.9158851071  LPSA5     16             11.0000000000
      5067       160  BMANNA    C2            -13.8646329566        1.9400104605       62.2781089586  LPSA5     16             11.0000000000
      5068       160  BMANNA    H2            -14.9485668923        1.9682796132       61.9912908466  LPSA5     16             11.0000000000
      5069       160  BMANNA    N             -13.1573560362        1.2038172002       61.2264456342  LPSA5     16             11.0000000000
      5070       160  BMANNA    HN            -12.3491149976        0.7841230117       61.5688724990  LPSA5     16             11.0000000000
      5071       160  BMANNA    C             -13.5248884624        1.1461086900       59.9704010620  LPSA5     16             11.0000000000
      5072       160  BMANNA    O             -14.5946328153        1.6726732764       59.5582221915  LPSA5     16             11.0000000000
      5073       160  BMANNA    CT            -12.5951160406        0.4059761516       59.1331689300  LPSA5     16             11.0000000000
      5074       160  BMANNA    HT1           -12.9117610366       -0.5810455006       58.8344492748  LPSA5     16             11.0000000000
      5075       160  BMANNA    HT2           -11.5767703629        0.2948774320       59.5043001239  LPSA5     16             11.0000000000
      5076       160  BMANNA    HT3           -12.4641254433        0.9131405774       58.1231520073  LPSA5     16             11.0000000000
      5077       160  BMANNA    C3            -13.6905207681        1.2579292123       63.6119771117  LPSA5     16             11.0000000000
      5078       160  BMANNA    H3            -14.3404683657        1.7467237321       64.3839812837  LPSA5     16             11.0000000000
      5079       160  BMANNA    O3            -14.0910022205       -0.0820727950       63.6122488842  LPSA5     16             11.0000000000
      5080       160  BMANNA    HO3           -14.7288151178       -0.2427773463       64.2950500102  LPSA5     16             11.0000000000
      5081       160  BMANNA    C4            -12.2415913807        1.3636385608       64.1045846713  LPSA5     16             11.0000000000
      5082       160  BMANNA    H4            -11.5306659227        0.8734103379       63.4124605202  LPSA5     16             11.0000000000
      5083       160  BMANNA    O4            -11.9380103313        0.7734823721       65.3816866120  LPSA5     16             11.0000000000
      5084       160  BMANNA    HO4           -11.0083198152        0.5565639718       65.4353184152  LPSA5     16             11.0000000000
      5085       160  BMANNA    C6            -10.5193002126        3.0824552292       64.7427751243  LPSA5     16             11.0000000000
      5086       160  BMANNA    H61           -10.6009954885        3.0477535009       65.8875394407  LPSA5     16             11.0000000000
      5087       160  BMANNA    H62            -9.8473198943        2.2769801713       64.4389269682  LPSA5     16             11.0000000000
      5088       160  BMANNA    O6             -9.9158743841        4.3362282475       64.3660927576  LPSA5     16             11.0000000000
      5089       160  BMANNA    HO6            -9.1037939240        4.0320596751       63.9036969990  LPSA5     16             11.0000000000
      5090       161  BGLCNA    C1            -13.0877931337        7.2691910088       64.1715778089  LPSA5     17             11.0000000000
      5091       161  BGLCNA    H1            -13.8851501311        8.0756641338       63.9082176002  LPSA5     17             11.0000000000
      5092       161  BGLCNA    C5            -11.5121020982        9.0969621418       64.5563394407  LPSA5     17             11.0000000000
      5093       161  BGLCNA    H5            -12.2665924518        9.9259696583       64.2825289487  LPSA5     17             11.0000000000
      5094       161  BGLCNA    O5            -11.8508668367        7.9345432661       63.7849982893  LPSA5     17             11.0000000000
      5095       161  BGLCNA    C2            -13.0628899076        6.8309449388       65.5899343931  LPSA5     17             11.0000000000
      5096       161  BGLCNA    H2            -12.2535618381        6.0600926994       65.8249043900  LPSA5     17             11.0000000000
      5097       161  BGLCNA    N             -14.2304095337        6.1032384835       65.8849826081  LPSA5     17             11.0000000000
      5098       161  BGLCNA    HN            -15.0948932265        6.3632660794       65.4150135415  LPSA5     17             11.0000000000
      5099       161  BGLCNA    C             -14.4478168402        5.1796945983       66.8043620798  LPSA5     17             11.0000000000
      5100       161  BGLCNA    O             -13.5375424749        4.7047041208       67.4729873017  LPSA5     17             11.0000000000
      5101       161  BGLCNA    CT            -15.8541772499        4.7456838035       66.9728872304  LPSA5     17             11.0000000000
      5102       161  BGLCNA    HT1           -16.1871687839        3.7793057419       66.5529393721  LPSA5     17             11.0000000000
      5103       161  BGLCNA    HT2           -16.5000621783        5.6039086739       66.7043805047  LPSA5     17             11.0000000000
      5104       161  BGLCNA    HT3           -16.1045690457        4.6348476641       68.1408097225  LPSA5     17             11.0000000000
      5105       161  BGLCNA    C3            -12.8246578021        8.0806099254       66.4076579941  LPSA5     17             11.0000000000
      5106       161  BGLCNA    H3            -13.6724846636        8.7528964399       66.0441361901  LPSA5     17             11.0000000000
      5107       161  BGLCNA    O3            -13.0645634429        7.7372469074       67.8205355914  LPSA5     17             11.0000000000
      5108       161  BGLCNA    C4            -11.4582314879        8.6482478436       66.0496966154  LPSA5     17             11.0000000000
      5109       161  BGLCNA    H4            -10.6407168780        7.8475035453       66.1123142204  LPSA5     17             11.0000000000
      5110       161  BGLCNA    O4            -11.0612879713        9.6896277883       66.9186044206  LPSA5     17             11.0000000000
      5111       161  BGLCNA    HO4           -10.2305323801       10.1048624390       66.7204061560  LPSA5     17             11.0000000000
      5112       161  BGLCNA    C6            -10.1303738111        9.6224228166       64.1200051697  LPSA5     17             11.0000000000
      5113       161  BGLCNA    H61           -10.1260055079       10.6949925816       64.1272946536  LPSA5     17             11.0000000000
      5114       161  BGLCNA    H62            -9.3140962847        9.2661264223       64.8212395067  LPSA5     17             11.0000000000
      5115       161  BGLCNA    O6             -9.7798302158        9.2074161019       62.7926115083  LPSA5     17             11.0000000000
      5116       161  BGLCNA    HO6           -10.4373957053        9.5281776456       62.1856770532  LPSA5     17             11.0000000000
      5117       162  AGAL      C1            -13.6763011978        8.7815444541       68.6198653987  LPSA5     18             12.0000000000
      5118       162  AGAL      H1            -12.8827784489        9.5639828704       68.8082567594  LPSA5     18             12.0000000000
      5119       162  AGAL      C5            -15.9331702527        8.4617662302       67.8636918791  LPSA5     18             12.0000000000
      5120       162  AGAL      H5            -15.5738940373        7.5352985312       67.4068928888  LPSA5     18             12.0000000000
      5121       162  AGAL      O5            -14.7854022291        9.3776332636       67.9834320655  LPSA5     18             12.0000000000
      5122       162  AGAL      C2            -14.2049510022        8.2339192408       70.0000206359  LPSA5     18             12.0000000000
      5123       162  AGAL      H2            -14.6399465275        9.1824716268       70.3908489884  LPSA5     18             12.0000000000
      5124       162  AGAL      O2            -13.1412265446        7.9148975073       70.8342757016  LPSA5     18             12.0000000000
      5125       162  AGAL      C3            -15.3393349223        7.2783461734       69.8682924558  LPSA5     18             12.0000000000
      5126       162  AGAL      H3            -15.0372617875        6.4601544281       69.0958348126  LPSA5     18             12.0000000000
      5127       162  AGAL      O3            -15.6631285460        6.6577021949       71.0758896640  LPSA5     18             12.0000000000
      5128       162  AGAL      HO3           -15.7769134379        5.7117632289       70.9682873819  LPSA5     18             12.0000000000
      5129       162  AGAL      C4            -16.4488372169        7.9474129854       69.1634745928  LPSA5     18             12.0000000000
      5130       162  AGAL      H4            -17.3207134027        7.3020387646       68.9039691178  LPSA5     18             12.0000000000
      5131       162  AGAL      O4            -16.9940447897        9.0216975919       69.9734134928  LPSA5     18             12.0000000000
      5132       162  AGAL      HO4           -17.5544766287        8.6184994454       70.7236544006  LPSA5     18             12.0000000000
      5133       162  AGAL      C6            -16.7992151171        8.9814206971       66.8042742825  LPSA5     18             12.0000000000
      5134       162  AGAL      H61           -16.2071036318        8.9793677530       65.8877991861  LPSA5     18             12.0000000000
      5135       162  AGAL      H62           -17.6086177265        8.2171878447       66.6499463921  LPSA5     18             12.0000000000
      5136       162  AGAL      O6            -17.2728973007       10.2171210746       66.9803033045  LPSA5     18             12.0000000000
      5137       162  AGAL      HO6           -16.8863075464       10.7459282097       67.6707071977  LPSA5     18             12.0000000000
      5138       163  ARHM      C1            -13.4093978239        8.3843331681       72.1803514454  LPSA5     19             13.0000000000
      5139       163  ARHM      H1            -14.4588705791        8.5505561658       72.3185909119  LPSA5     19             13.0000000000
      5140       163  ARHM      C5            -11.5108921159        9.8034527201       72.2512180912  LPSA5     19             13.0000000000
      5141       163  ARHM      H5            -11.2858615483        9.4460840221       71.2133247196  LPSA5     19             13.0000000000
      5142       163  ARHM      O5            -12.9271842123        9.7148391498       72.4162684983  LPSA5     19             13.0000000000
      5143       163  ARHM      C2            -12.7984048487        7.4022976578       73.1100514097  LPSA5     19             13.0000000000
      5144       163  ARHM      H2            -13.0487222151        6.3864962562       72.9420985559  LPSA5     19             13.0000000000
      5145       163  ARHM      O2            -13.1503757777        7.7151400335       74.4131644751  LPSA5     19             13.0000000000
      5146       163  ARHM      C3            -11.2482613900        7.5279190074       72.9859276785  LPSA5     19             13.0000000000
      5147       163  ARHM      H3            -10.9966705017        7.3299745564       71.9471750908  LPSA5     19             13.0000000000
      5148       163  ARHM      O3            -10.6056695510        6.5842513187       73.7644258584  LPSA5     19             13.0000000000
      5149       163  ARHM      HO3           -10.9894825264        6.6436071302       74.6464134549  LPSA5     19             13.0000000000
      5150       163  ARHM      C4            -10.7577169679        8.8897304122       73.2443334127  LPSA5     19             13.0000000000
      5151       163  ARHM      H4            -11.0650351333        9.1286970628       74.2703943704  LPSA5     19             13.0000000000
      5152       163  ARHM      O4             -9.3762860983        9.0515529360       73.1708570575  LPSA5     19             13.0000000000
      5153       163  ARHM      HO4            -9.1355385285        8.8791475756       72.2126258713  LPSA5     19             13.0000000000
      5154       163  ARHM      C6            -11.0313548492       11.2652336046       72.3031700958  LPSA5     19             13.0000000000
      5155       163  ARHM      H61           -11.6295815822       11.7007116445       71.5186681997  LPSA5     19             13.0000000000
      5156       163  ARHM      H62           -11.2210663382       11.8094426205       73.2001761489  LPSA5     19             13.0000000000
      5157       163  ARHM      H63            -9.9655239543       11.3818471977       72.0875448643  LPSA5     19             13.0000000000
      5158       164  ARHM      C1            -14.4591627039        7.3453113185       74.6981797177  LPSA5     20             14.0000000000
      5159       164  ARHM      H1            -14.9138044000        6.6799290274       73.8936196974  LPSA5     20             14.0000000000
      5160       164  ARHM      C5            -15.1314055017        9.2445622988       75.9960310464  LPSA5     20             14.0000000000
      5161       164  ARHM      H5            -14.0848564186        9.5959366263       75.8071112250  LPSA5     20             14.0000000000
      5162       164  ARHM      O5            -15.4088837366        8.3974826533       74.8741575474  LPSA5     20             14.0000000000
      5163       164  ARHM      C2            -14.4810627701        6.4626419946       75.9438944127  LPSA5     20             14.0000000000
      5164       164  ARHM      H2            -13.6435891062        5.6621327626       75.7904987900  LPSA5     20             14.0000000000
      5165       164  ARHM      O2            -15.7654971815        5.8563319804       76.2145535291  LPSA5     20             14.0000000000
      5166       164  ARHM      C3            -14.1878370861        7.3515603576       77.0746584307  LPSA5     20             14.0000000000
      5167       164  ARHM      H3            -13.1399106266        7.8173659112       76.9570890266  LPSA5     20             14.0000000000
      5168       164  ARHM      O3            -14.1099419749        6.4972191720       78.2431898216  LPSA5     20             14.0000000000
      5169       164  ARHM      C4            -15.1805392090        8.4565627031       77.2147849866  LPSA5     20             14.0000000000
      5170       164  ARHM      H4            -16.1896087322        8.1065240346       77.2882629629  LPSA5     20             14.0000000000
      5171       164  ARHM      O4            -14.8971877790        9.1893120846       78.4294019453  LPSA5     20             14.0000000000
      5172       164  ARHM      HO4           -15.2097690088        9.9974791426       78.0714846557  LPSA5     20             14.0000000000
      5173       164  ARHM      C6            -16.0306917418       10.4093539125       75.9818768401  LPSA5     20             14.0000000000
      5174       164  ARHM      H61           -17.1485502052       10.2497343281       76.0487105533  LPSA5     20             14.0000000000
      5175       164  ARHM      H62           -15.7287819464       11.1244477150       76.7492574554  LPSA5     20             14.0000000000
      5176       164  ARHM      H63           -15.9979827961       11.0170009607       75.0059134709  LPSA5     20             14.0000000000
      5177       165  BMANNA    C1            -15.8138693194        4.7066669673       75.4501725836  LPSA5     21             15.0000000000
      5178       165  BMANNA    H1            -14.9686977870        4.6834670900       74.6495731600  LPSA5     21             15.0000000000
      5179       165  BMANNA    C5            -16.8899060218        3.5708536858       73.6578092950  LPSA5     21             15.0000000000
      5180       165  BMANNA    H5            -15.8963418685        3.4538472994       73.0422409194  LPSA5     21             15.0000000000
      5181       165  BMANNA    O5            -16.9709334400        4.7380477761       74.5460975074  LPSA5     21             15.0000000000
      5182       165  BMANNA    C2            -15.8463953872        3.4968848611       76.3268603500  LPSA5     21             15.0000000000
      5183       165  BMANNA    H2            -14.9034092740        3.6022583957       76.8663433126  LPSA5     21             15.0000000000
      5184       165  BMANNA    N             -16.9693360344        3.5254697879       77.2602735953  LPSA5     21             15.0000000000
      5185       165  BMANNA    HN            -17.8439843443        3.6696604443       76.8630196157  LPSA5     21             15.0000000000
      5186       165  BMANNA    C             -16.9266518604        3.0945126387       78.6142451918  LPSA5     21             15.0000000000
      5187       165  BMANNA    O             -15.9464130124        2.4788850021       79.0340579138  LPSA5     21             15.0000000000
      5188       165  BMANNA    CT            -18.1542240038        3.3646173482       79.5125915666  LPSA5     21             15.0000000000
      5189       165  BMANNA    HT1           -18.9184611086        2.5801883786       79.3040814335  LPSA5     21             15.0000000000
      5190       165  BMANNA    HT2           -18.4586461453        4.4073476962       79.3224353366  LPSA5     21             15.0000000000
      5191       165  BMANNA    HT3           -17.8661936897        3.2752638138       80.6000991146  LPSA5     21             15.0000000000
      5192       165  BMANNA    C3            -15.7915057738        2.3010115655       75.4428482744  LPSA5     21             15.0000000000
      5193       165  BMANNA    H3            -14.8087233826        2.4219275073       75.0091666053  LPSA5     21             15.0000000000
      5194       165  BMANNA    O3            -15.7874510605        1.0861105282       76.1769203835  LPSA5     21             15.0000000000
      5195       165  BMANNA    HO3           -16.5418028643        1.0933417486       76.7354970047  LPSA5     21             15.0000000000
      5196       165  BMANNA    C4            -16.9564377985        2.3024804221       74.4866217523  LPSA5     21             15.0000000000
      5197       165  BMANNA    H4            -18.0298431548        2.1745964500       75.0002820064  LPSA5     21             15.0000000000
      5198       165  BMANNA    O4            -16.9317066423        1.2084366522       73.6152290754  LPSA5     21             15.0000000000
      5199       165  BMANNA    HO4           -17.6999180552        0.6154265437       73.7703874424  LPSA5     21             15.0000000000
      5200       165  BMANNA    C6            -17.9028902214        3.6051729137       72.6348027846  LPSA5     21             15.0000000000
      5201       165  BMANNA    H61           -17.7653487604        2.8331323079       71.8494922130  LPSA5     21             15.0000000000
      5202       165  BMANNA    H62           -18.8727165300        3.2238160470       73.0558617198  LPSA5     21             15.0000000000
      5203       165  BMANNA    O6            -18.2057836901        4.8429191200       72.0654385618  LPSA5     21             15.0000000000
      5204       165  BMANNA    HO6           -18.4083122759        5.4475421416       72.7784055652  LPSA5     21             15.0000000000
      5205       166  BGLCNA    C1            -13.1671692313        6.7467129320       79.2248726046  LPSA5     22             15.0000000000
      5206       166  BGLCNA    H1            -12.8221018180        7.8208751713       79.2753119810  LPSA5     22             15.0000000000
      5207       166  BGLCNA    C5            -10.9763355333        6.2984775011       80.1145289529  LPSA5     22             15.0000000000
      5208       166  BGLCNA    H5            -10.8034977021        7.4557373023       80.0727605020  LPSA5     22             15.0000000000
      5209       166  BGLCNA    O5            -11.9827057800        6.0186421471       79.0803056561  LPSA5     22             15.0000000000
      5210       166  BGLCNA    C2            -13.7787073990        6.4099934012       80.5602818744  LPSA5     22             15.0000000000
      5211       166  BGLCNA    H2            -13.9795598702        5.2846340523       80.4633107900  LPSA5     22             15.0000000000
      5212       166  BGLCNA    N             -15.0091800045        7.1589287549       80.7025670875  LPSA5     22             15.0000000000
      5213       166  BGLCNA    HN            -14.9684220986        8.1018185817       80.4501896382  LPSA5     22             15.0000000000
      5214       166  BGLCNA    C             -16.0834202658        6.7256422053       81.3295640408  LPSA5     22             15.0000000000
      5215       166  BGLCNA    O             -16.1165750619        5.5931143527       81.8448112003  LPSA5     22             15.0000000000
      5216       166  BGLCNA    CT            -17.2409749312        7.6530221201       81.4359073222  LPSA5     22             15.0000000000
      5217       166  BGLCNA    HT1           -17.7971024294        7.4197764285       80.5353412834  LPSA5     22             15.0000000000
      5218       166  BGLCNA    HT2           -16.8541925028        8.6854075632       81.2752873926  LPSA5     22             15.0000000000
      5219       166  BGLCNA    HT3           -17.7658721501        7.6484441901       82.3679651303  LPSA5     22             15.0000000000
      5220       166  BGLCNA    C3            -12.8008435116        6.6599979521       81.6855161512  LPSA5     22             15.0000000000
      5221       166  BGLCNA    H3            -12.4935429974        7.7350579402       81.6419517197  LPSA5     22             15.0000000000
      5222       166  BGLCNA    O3            -13.5272310789        6.4358354126       82.8729300216  LPSA5     22             15.0000000000
      5223       166  BGLCNA    C4            -11.5163497686        5.8533947764       81.4704242134  LPSA5     22             15.0000000000
      5224       166  BGLCNA    H4            -11.8206372818        4.8414284345       81.4144045074  LPSA5     22             15.0000000000
      5225       166  BGLCNA    O4            -10.5816803183        6.0172291735       82.5140850489  LPSA5     22             15.0000000000
      5226       166  BGLCNA    HO4           -10.1784970491        5.1546115208       82.7130071916  LPSA5     22             15.0000000000
      5227       166  BGLCNA    C6             -9.7203240842        5.5300386299       79.7284495560  LPSA5     22             15.0000000000
      5228       166  BGLCNA    H61            -9.1326234686        5.4872607356       80.6924177192  LPSA5     22             15.0000000000
      5229       166  BGLCNA    H62            -9.9540436145        4.4767365361       79.4648784538  LPSA5     22             15.0000000000
      5230       166  BGLCNA    O6             -8.9043129015        6.1750023231       78.8100863794  LPSA5     22             15.0000000000
      5231       166  BGLCNA    HO6            -9.4105903401        6.3480213833       78.0328486455  LPSA5     22             15.0000000000
      5232       167  AGAL      C1            -13.0796476207        6.9761208568       84.0628261254  LPSA5     23             16.0000000000
      5233       167  AGAL      H1            -12.2196179018        6.4053180625       84.5106287163  LPSA5     23             16.0000000000
      5234       167  AGAL      C5            -13.7836960732        9.2304961328       83.7583018441  LPSA5     23             16.0000000000
      5235       167  AGAL      H5            -14.3647479239        8.8535171007       82.8366412438  LPSA5     23             16.0000000000
      5236       167  AGAL      O5            -12.7047954242        8.3558557099       83.9976212264  LPSA5     23             16.0000000000
      5237       167  AGAL      C2            -14.1362876477        6.8360010629       85.1427633740  LPSA5     23             16.0000000000
      5238       167  AGAL      H2            -13.6878818241        7.2687918043       86.0076373284  LPSA5     23             16.0000000000
      5239       167  AGAL      O2            -14.4197467645        5.5044329292       85.5000844886  LPSA5     23             16.0000000000
      5240       167  AGAL      C3            -15.3223894310        7.7091265907       84.9194901020  LPSA5     23             16.0000000000
      5241       167  AGAL      H3            -15.6659120720        7.4797771649       83.8641570193  LPSA5     23             16.0000000000
      5242       167  AGAL      O3            -16.4249975828        7.4596328486       85.7108298168  LPSA5     23             16.0000000000
      5243       167  AGAL      HO3           -16.0583076773        7.3827636078       86.6206525111  LPSA5     23             16.0000000000
      5244       167  AGAL      C4            -14.8400891552        9.1285910430       84.8901212015  LPSA5     23             16.0000000000
      5245       167  AGAL      H4            -15.6510126000        9.8533681730       84.6506069022  LPSA5     23             16.0000000000
      5246       167  AGAL      O4            -14.3409755656        9.6478704330       86.1132943683  LPSA5     23             16.0000000000
      5247       167  AGAL      HO4           -13.6820981067       10.1963090772       85.8278371007  LPSA5     23             16.0000000000
      5248       167  AGAL      C6            -13.2959394585       10.5879792732       83.3278962909  LPSA5     23             16.0000000000
      5249       167  AGAL      H61           -12.5282591625       10.4794971304       82.6074235255  LPSA5     23             16.0000000000
      5250       167  AGAL      H62           -14.0476241886       11.1459518115       82.7620574208  LPSA5     23             16.0000000000
      5251       167  AGAL      O6            -12.7407869300       11.2700918932       84.3845202183  LPSA5     23             16.0000000000
      5252       167  AGAL      HO6           -12.3752415182       12.1165245841       84.1740981585  LPSA5     23             16.0000000000
      5253       168  ARHM      C1            -13.5732192353        4.6817606029       86.2818185944  LPSA5     24             17.0000000000
      5254       168  ARHM      H1            -12.6279289074        5.1819124408       86.3680542693  LPSA5     24             17.0000000000
      5255       168  ARHM      C5            -14.4255026540        2.5375519658       85.6157638072  LPSA5     24             17.0000000000
      5256       168  ARHM      H5            -15.1400629946        3.0498978200       85.0070975499  LPSA5     24             17.0000000000
      5257       168  ARHM      O5            -13.2505111652        3.3031577394       85.8657410059  LPSA5     24             17.0000000000
      5258       168  ARHM      C2            -14.2866805874        4.6400568421       87.5921581840  LPSA5     24             17.0000000000
      5259       168  ARHM      H2            -14.6296791109        5.6107974100       87.8984046741  LPSA5     24             17.0000000000
      5260       168  ARHM      O2            -13.5267008696        3.9574046327       88.6075763533  LPSA5     24             17.0000000000
      5261       168  ARHM      C3            -15.5477024178        3.7810027982       87.4133527752  LPSA5     24             17.0000000000
      5262       168  ARHM      H3            -16.1471706348        4.3079687951       86.6640279609  LPSA5     24             17.0000000000
      5263       168  ARHM      O3            -16.4361418561        3.7720467475       88.5620392964  LPSA5     24             17.0000000000
      5264       168  ARHM      HO3           -16.1078341643        3.0550893660       89.1463757531  LPSA5     24             17.0000000000
      5265       168  ARHM      C4            -15.2069213759        2.3741842903       86.9402325015  LPSA5     24             17.0000000000
      5266       168  ARHM      H4            -14.4604905266        1.9205841622       87.7071552895  LPSA5     24             17.0000000000
      5267       168  ARHM      O4            -16.3113025870        1.5016557737       86.8379508285  LPSA5     24             17.0000000000
      5268       168  ARHM      HO4           -16.1144286029        0.5974200431       87.0219124236  LPSA5     24             17.0000000000
      5269       168  ARHM      C6            -14.1233024074        1.1479307393       84.9175891319  LPSA5     24             17.0000000000
      5270       168  ARHM      H61           -15.0171783859        0.8265510296       84.3853494017  LPSA5     24             17.0000000000
      5271       168  ARHM      H62           -13.3297840181        1.3353072032       84.2649634992  LPSA5     24             17.0000000000
      5272       168  ARHM      H63           -13.7196791320        0.4027868584       85.6811466487  LPSA5     24             17.0000000000
      5273       169  ARHM      C1            -12.5342292118        4.8157798608       89.1588742089  LPSA5     25             18.0000000000
      5274       169  ARHM      H1            -12.3153847195        5.5957258989       88.4722246341  LPSA5     25             18.0000000000
      5275       169  ARHM      C5            -11.2541168248        3.0640513640       90.1670531641  LPSA5     25             18.0000000000
      5276       169  ARHM      H5            -11.9253869111        2.2966976572       89.8870230824  LPSA5     25             18.0000000000
      5277       169  ARHM      O5            -11.2505146671        4.1645342009       89.2315309535  LPSA5     25             18.0000000000
      5278       169  ARHM      C2            -13.0021475421        5.3164498509       90.4685713243  LPSA5     25             18.0000000000
      5279       169  ARHM      H2            -14.0691403978        5.7028678966       90.3413143991  LPSA5     25             18.0000000000
      5280       169  ARHM      O2            -12.1196087720        6.3844371134       90.9328696740  LPSA5     25             18.0000000000
      5281       169  ARHM      C3            -12.9440813998        4.1061766754       91.4562257518  LPSA5     25             18.0000000000
      5282       169  ARHM      H3            -13.6631993894        3.3417507107       91.0689171631  LPSA5     25             18.0000000000
      5283       169  ARHM      O3            -13.4232950460        4.5940236673       92.6920647463  LPSA5     25             18.0000000000
      5284       169  ARHM      C4            -11.6493675392        3.5113359654       91.5960769721  LPSA5     25             18.0000000000
      5285       169  ARHM      H4            -10.8357413954        4.2970125556       91.8876801091  LPSA5     25             18.0000000000
      5286       169  ARHM      O4            -11.7659721554        2.4894211243       92.5862492282  LPSA5     25             18.0000000000
      5287       169  ARHM      HO4           -10.9296146816        2.5136494039       93.0149361445  LPSA5     25             18.0000000000
      5288       169  ARHM      C6             -9.9067006361        2.3447998270       90.2083352735  LPSA5     25             18.0000000000
      5289       169  ARHM      H61            -9.5368130883        2.0914880892       89.1912344565  LPSA5     25             18.0000000000
      5290       169  ARHM      H62            -9.0861179902        2.9589054246       90.6686969550  LPSA5     25             18.0000000000
      5291       169  ARHM      H63            -9.9280176796        1.3666466274       90.8233913566  LPSA5     25             18.0000000000
      5292       170  BMANNA    C1            -12.3500944788        7.6277015695       90.3138108879  LPSA5     26             19.0000000000
      5293       170  BMANNA    H1            -13.3737792170        7.6796044181       89.8388342826  LPSA5     26             19.0000000000
      5294       170  BMANNA    C5            -11.7897491852        9.2249926625       88.6312665858  LPSA5     26             19.0000000000
      5295       170  BMANNA    H5            -12.7724753708        9.0953246608       88.1771240033  LPSA5     26             19.0000000000
      5296       170  BMANNA    O5            -11.4394155232        7.9729069679       89.2346891933  LPSA5     26             19.0000000000
      5297       170  BMANNA    C2            -12.2769986200        8.6410744299       91.3475147821  LPSA5     26             19.0000000000
      5298       170  BMANNA    H2            -13.0660251699        8.3297918295       92.1081287357  LPSA5     26             19.0000000000
      5299       170  BMANNA    N             -10.9140577376        8.6227567312       91.9238920796  LPSA5     26             19.0000000000
      5300       170  BMANNA    HN            -10.1910657145        8.7422625916       91.3050515894  LPSA5     26             19.0000000000
      5301       170  BMANNA    C             -10.6376595084        8.5555156982       93.1798471680  LPSA5     26             19.0000000000
      5302       170  BMANNA    O             -11.5378533506        8.3040562284       94.0003587425  LPSA5     26             19.0000000000
      5303       170  BMANNA    CT             -9.2140842630        8.8056597966       93.6758917343  LPSA5     26             19.0000000000
      5304       170  BMANNA    HT1            -8.5722847298        8.6317562377       92.8666282051  LPSA5     26             19.0000000000
      5305       170  BMANNA    HT2            -8.8258085159        8.3929023007       94.6620984389  LPSA5     26             19.0000000000
      5306       170  BMANNA    HT3            -9.1650208451        9.8875863408       93.8484898219  LPSA5     26             19.0000000000
      5307       170  BMANNA    C3            -12.6890549450        9.9710395055       90.7100883268  LPSA5     26             19.0000000000
      5308       170  BMANNA    H3            -13.7382541771        9.8601146844       90.3384445889  LPSA5     26             19.0000000000
      5309       170  BMANNA    O3            -12.7373993974       10.9709157672       91.7636866611  LPSA5     26             19.0000000000
      5310       170  BMANNA    HO3           -13.5336974025       10.7390295791       92.2265744207  LPSA5     26             19.0000000000
      5311       170  BMANNA    C4            -11.7844052418       10.2739800925       89.6481622736  LPSA5     26             19.0000000000
      5312       170  BMANNA    H4            -10.6911834450       10.3920567834       89.9013799111  LPSA5     26             19.0000000000
      5313       170  BMANNA    O4            -12.1009191587       11.5190002535       89.0416847738  LPSA5     26             19.0000000000
      5314       170  BMANNA    HO4           -11.6997548338       12.2158958597       89.5591157304  LPSA5     26             19.0000000000
      5315       170  BMANNA    C6            -10.8535876262        9.3352227921       87.3900617492  LPSA5     26             19.0000000000
      5316       170  BMANNA    H61           -10.6770530816        8.3519776085       86.9191763972  LPSA5     26             19.0000000000
      5317       170  BMANNA    H62           -11.2499990575        9.9809103883       86.6504270337  LPSA5     26             19.0000000000
      5318       170  BMANNA    O6             -9.5802349083        9.8708892010       87.7329108337  LPSA5     26             19.0000000000
      5319       170  BMANNA    HO6            -9.6895195100       10.6904764717       88.1688153196  LPSA5     26             19.0000000000
      5320       171  BGLCNA    C1            -14.3302072686        3.9533688713       93.4616184899  LPSA5     27             19.0000000000
      5321       171  BGLCNA    H1            -14.1630880708        2.8810100700       93.4392217979  LPSA5     27             19.0000000000
      5322       171  BGLCNA    C5            -16.5838290338        3.3974733426       93.9656603721  LPSA5     27             19.0000000000
      5323       171  BGLCNA    H5            -16.2529417967        2.3273269421       93.9564344452  LPSA5     27             19.0000000000
      5324       171  BGLCNA    O5            -15.7088638767        4.0847958195       93.0607755266  LPSA5     27             19.0000000000
      5325       171  BGLCNA    C2            -14.1182639057        4.4859578825       94.8806799918  LPSA5     27             19.0000000000
      5326       171  BGLCNA    H2            -14.4188677302        5.5480113685       94.8757458582  LPSA5     27             19.0000000000
      5327       171  BGLCNA    N             -12.7184480834        4.3899327683       95.2501113516  LPSA5     27             19.0000000000
      5328       171  BGLCNA    HN            -12.2627178934        3.4542761618       95.0827132934  LPSA5     27             19.0000000000
      5329       171  BGLCNA    C             -12.2009141059        5.4737116236       95.9523160909  LPSA5     27             19.0000000000
      5330       171  BGLCNA    O             -12.8775904662        6.3816321813       96.5238801166  LPSA5     27             19.0000000000
      5331       171  BGLCNA    CT            -10.6426995483        5.4872761831       96.0293745529  LPSA5     27             19.0000000000
      5332       171  BGLCNA    HT1           -10.2071256255        4.6934219545       95.3635606282  LPSA5     27             19.0000000000
      5333       171  BGLCNA    HT2           -10.2415455451        5.4304288934       97.0167906789  LPSA5     27             19.0000000000
      5334       171  BGLCNA    HT3           -10.3100878961        6.5495656939       95.7039804309  LPSA5     27             19.0000000000
      5335       171  BGLCNA    C3            -15.0260743135        3.7672823320       95.7540348103  LPSA5     27             19.0000000000
      5336       171  BGLCNA    H3            -14.8411179642        2.6643452352       95.7401190096  LPSA5     27             19.0000000000
      5337       171  BGLCNA    O3            -14.7143847815        4.3212634822       97.0775356047  LPSA5     27             19.0000000000
      5338       171  BGLCNA    C4            -16.5037580459        3.9328792414       95.3486864533  LPSA5     27             19.0000000000
      5339       171  BGLCNA    H4            -16.7564831693        5.0174587124       95.3090014479  LPSA5     27             19.0000000000
      5340       171  BGLCNA    O4            -17.3488303807        3.2700193677       96.2156872787  LPSA5     27             19.0000000000
      5341       171  BGLCNA    HO4           -17.1948267990        2.3683375820       96.0162444362  LPSA5     27             19.0000000000
      5342       171  BGLCNA    C6            -17.9948645998        3.4244694098       93.2852949846  LPSA5     27             19.0000000000
      5343       171  BGLCNA    H61           -18.5979281876        2.7119567586       93.8557506920  LPSA5     27             19.0000000000
      5344       171  BGLCNA    H62           -18.4826583033        4.4100267851       93.4725180191  LPSA5     27             19.0000000000
      5345       171  BGLCNA    O6            -17.9146840575        3.0989545979       91.9076175409  LPSA5     27             19.0000000000
      5346       171  BGLCNA    HO6           -18.8186029223        3.1563697160       91.5273290588  LPSA5     27             19.0000000000
      5347       172  AGAL      C1            -15.1476009740        3.6109198690       98.2622020222  LPSA5     28             20.0000000000
      5348       172  AGAL      H1            -16.2018554785        3.6697898275       98.3007149491  LPSA5     28             20.0000000000
      5349       172  AGAL      C5            -13.4024667449        1.9303015851       98.1710438288  LPSA5     28             20.0000000000
      5350       172  AGAL      H5            -12.7903509446        2.6715929194       97.4646141937  LPSA5     28             20.0000000000
      5351       172  AGAL      O5            -14.8584929268        2.2224100608       98.1147365872  LPSA5     28             20.0000000000
      5352       172  AGAL      C2            -14.5652596965        4.0414887544       99.6197190629  LPSA5     28             20.0000000000
      5353       172  AGAL      H2            -15.0581756686        3.3467563824      100.2965066153  LPSA5     28             20.0000000000
      5354       172  AGAL      O2            -14.9011929949        5.3419802352      100.0788731798  LPSA5     28             20.0000000000
      5355       172  AGAL      C3            -13.0994012134        3.7655420742       99.7396972452  LPSA5     28             20.0000000000
      5356       172  AGAL      H3            -12.5862402807        4.2685489078       98.8607737785  LPSA5     28             20.0000000000
      5357       172  AGAL      O3            -12.3906341846        4.2320380062      100.9043404272  LPSA5     28             20.0000000000
      5358       172  AGAL      HO3           -11.7412488074        4.8759715793      100.5606486229  LPSA5     28             20.0000000000
      5359       172  AGAL      C4            -12.8620189436        2.3266814329       99.5102226768  LPSA5     28             20.0000000000
      5360       172  AGAL      H4            -11.8101289757        2.1701475881       99.4798298294  LPSA5     28             20.0000000000
      5361       172  AGAL      O4            -13.4303217653        1.5007670654      100.4757933835  LPSA5     28             20.0000000000
      5362       172  AGAL      HO4           -12.7331682305        1.2494384854      101.0376442747  LPSA5     28             20.0000000000
      5363       172  AGAL      C6            -13.0058502392        0.5514081136       97.6362902244  LPSA5     28             20.0000000000
      5364       172  AGAL      H61           -13.2639001656        0.4916430542       96.5809275898  LPSA5     28             20.0000000000
      5365       172  AGAL      H62           -11.9049048965        0.2407430416       97.7651048223  LPSA5     28             20.0000000000
      5366       172  AGAL      O6            -13.7050790991       -0.4502333478       98.3456070822  LPSA5     28             20.0000000000
      5367       172  AGAL      HO6           -14.5596083354       -0.6067887439       97.9416813930  LPSA5     28             20.0000000000
      5368       173  ARHM      C1            -15.2519793878        5.2684567909      101.4808913342  LPSA5     29             21.0000000000
      5369       173  ARHM      H1            -14.7169414651        4.4065855253      101.9964955809  LPSA5     29             21.0000000000
      5370       173  ARHM      C5            -17.3949729142        6.1687829173      101.1486206043  LPSA5     29             21.0000000000
      5371       173  ARHM      H5            -17.0699646345        6.2658222010      100.0935446791  LPSA5     29             21.0000000000
      5372       173  ARHM      O5            -16.6295611978        5.1264201310      101.6833506475  LPSA5     29             21.0000000000
      5373       173  ARHM      C2            -14.7405110455        6.4694263687      102.1437305515  LPSA5     29             21.0000000000
      5374       173  ARHM      H2            -13.7113387099        6.6458062804      101.9067628034  LPSA5     29             21.0000000000
      5375       173  ARHM      O2            -14.8621173443        6.3934401822      103.5748524404  LPSA5     29             21.0000000000
      5376       173  ARHM      C3            -15.5285512123        7.6403658161      101.6289418068  LPSA5     29             21.0000000000
      5377       173  ARHM      H3            -15.3017487299        7.7772488718      100.4952263366  LPSA5     29             21.0000000000
      5378       173  ARHM      O3            -15.0031368182        8.8080256992      102.1995749427  LPSA5     29             21.0000000000
      5379       173  ARHM      HO3           -15.6800523746        9.3957530480      102.2092645043  LPSA5     29             21.0000000000
      5380       173  ARHM      C4            -16.9753156210        7.5135581868      101.8247918557  LPSA5     29             21.0000000000
      5381       173  ARHM      H4            -17.2513206440        7.4872387218      102.9338171738  LPSA5     29             21.0000000000
      5382       173  ARHM      O4            -17.8109415806        8.5913338495      101.3452167393  LPSA5     29             21.0000000000
      5383       173  ARHM      HO4           -17.5559301116        8.9342360056      100.4362974805  LPSA5     29             21.0000000000
      5384       173  ARHM      C6            -18.8659344458        5.7214467881      101.2162231226  LPSA5     29             21.0000000000
      5385       173  ARHM      H61           -18.8276247013        4.6629827117      100.7685423143  LPSA5     29             21.0000000000
      5386       173  ARHM      H62           -19.1689474145        5.6418095710      102.3013153741  LPSA5     29             21.0000000000
      5387       173  ARHM      H63           -19.4696055690        6.4030370143      100.6072571094  LPSA5     29             21.0000000000
      5388       174  ARHM      C1            -13.8043753468        6.0092343499      104.3945976075  LPSA5     30             22.0000000000
      5389       174  ARHM      H1            -12.9473507159        6.6934545157      104.2094096401  LPSA5     30             22.0000000000
      5390       174  ARHM      C5            -14.4583433704        3.6679091035      104.5143062533  LPSA5     30             22.0000000000
      5391       174  ARHM      H5            -15.3274466223        4.0741173707      103.8668162917  LPSA5     30             22.0000000000
      5392       174  ARHM      O5            -13.4136045173        4.6327988197      104.2052433351  LPSA5     30             22.0000000000
      5393       174  ARHM      C2            -14.2127893047        6.1755736817      105.8471183130  LPSA5     30             22.0000000000
      5394       174  ARHM      H2            -14.5209489565        7.1533736678      106.0289718167  LPSA5     30             22.0000000000
      5395       174  ARHM      O2            -13.1037165646        5.7817355672      106.5813641610  LPSA5     30             22.0000000000
      5396       174  ARHM      C3            -15.2521103220        5.2218850679      106.2079894766  LPSA5     30             22.0000000000
      5397       174  ARHM      H3            -16.0533837027        5.3215190932      105.5270001340  LPSA5     30             22.0000000000
      5398       174  ARHM      O3            -15.8056324889        5.4328252210      107.5373891676  LPSA5     30             22.0000000000
      5399       174  ARHM      C4            -14.8216940974        3.7705418505      105.9708288384  LPSA5     30             22.0000000000
      5400       174  ARHM      H4            -13.9332884179        3.4893594045      106.5400372406  LPSA5     30             22.0000000000
      5401       174  ARHM      O4            -15.7333669293        2.8187726504      106.2997755749  LPSA5     30             22.0000000000
      5402       174  ARHM      HO4           -16.4615482117        2.6218761859      105.6964454668  LPSA5     30             22.0000000000
      5403       174  ARHM      C6            -14.0312312227        2.2875789766      104.0930490251  LPSA5     30             22.0000000000
      5404       174  ARHM      H61           -14.9269309928        1.6169464517      104.2143179997  LPSA5     30             22.0000000000
      5405       174  ARHM      H62           -13.8768658316        2.2821434541      103.0019050467  LPSA5     30             22.0000000000
      5406       174  ARHM      H63           -13.1208478663        1.8974268840      104.6493652223  LPSA5     30             22.0000000000
      5407       175  BMANNA    C1            -12.2092909505        6.8078759711      106.9502319096  LPSA5     31             23.0000000000
      5408       175  BMANNA    H1            -12.8100352900        7.7222662189      107.1550799008  LPSA5     31             23.0000000000
      5409       175  BMANNA    C5            -10.3763830576        8.2252212187      106.2136717625  LPSA5     31             23.0000000000
      5410       175  BMANNA    H5            -11.0402925983        9.0355136088      106.5467054000  LPSA5     31             23.0000000000
      5411       175  BMANNA    O5            -11.2606013129        7.1173103787      105.8742289322  LPSA5     31             23.0000000000
      5412       175  BMANNA    C2            -11.4388759524        6.3975991841      108.0830629221  LPSA5     31             23.0000000000
      5413       175  BMANNA    H2            -12.1732342620        6.2829715503      108.9031915743  LPSA5     31             23.0000000000
      5414       175  BMANNA    N             -10.8649679790        5.1222424656      107.8252935315  LPSA5     31             23.0000000000
      5415       175  BMANNA    HN            -10.7037075728        4.8699141700      106.8111160773  LPSA5     31             23.0000000000
      5416       175  BMANNA    C             -10.5800881209        4.2402841431      108.7868858964  LPSA5     31             23.0000000000
      5417       175  BMANNA    O             -10.8655646040        4.4417395127      109.9536662434  LPSA5     31             23.0000000000
      5418       175  BMANNA    CT             -9.8870571673        2.9496545536      108.3237946568  LPSA5     31             23.0000000000
      5419       175  BMANNA    HT1            -9.1829873278        3.2067373912      107.5739831696  LPSA5     31             23.0000000000
      5420       175  BMANNA    HT2           -10.6610188250        2.2792128184      107.9347099034  LPSA5     31             23.0000000000
      5421       175  BMANNA    HT3            -9.4624855668        2.3973141548      109.1768357935  LPSA5     31             23.0000000000
      5422       175  BMANNA    C3            -10.5218064384        7.5047256362      108.4884560283  LPSA5     31             23.0000000000
      5423       175  BMANNA    H3            -11.0950498872        8.4835848725      108.6988550870  LPSA5     31             23.0000000000
      5424       175  BMANNA    O3             -9.8887996284        7.2387214989      109.7404994872  LPSA5     31             23.0000000000
      5425       175  BMANNA    HO3           -10.4944254021        6.5736259296      110.0111610137  LPSA5     31             23.0000000000
      5426       175  BMANNA    C4             -9.5432809458        7.7850130165      107.4199857710  LPSA5     31             23.0000000000
      5427       175  BMANNA    H4             -8.8701160182        6.8729432833      107.0572414185  LPSA5     31             23.0000000000
      5428       175  BMANNA    O4             -8.6312501210        8.7838330087      107.8525671122  LPSA5     31             23.0000000000
      5429       175  BMANNA    HO4            -9.0892733821        9.5841754575      108.1943429300  LPSA5     31             23.0000000000
      5430       175  BMANNA    C6             -9.4657322758        8.6535001165      105.0512686782  LPSA5     31             23.0000000000
      5431       175  BMANNA    H61            -8.9675507435        9.6639244075      105.3397811046  LPSA5     31             23.0000000000
      5432       175  BMANNA    H62            -8.6573793383        7.9510043804      104.8698551944  LPSA5     31             23.0000000000
      5433       175  BMANNA    O6            -10.2030865453        8.8185260895      103.8241467834  LPSA5     31             23.0000000000
      5434       175  BMANNA    HO6           -10.8045101122        9.6163541680      103.8134147631  LPSA5     31             23.0000000000
      5435       176  BGLCNA    C1            -15.0870807108        4.9216579026      108.6103969990  LPSA5     32             23.0000000000
      5436       176  BGLCNA    H1            -13.9664777204        4.9862196916      108.4325564695  LPSA5     32             23.0000000000
      5437       176  BGLCNA    C5            -14.5289570265        2.9731717857      109.9277617404  LPSA5     32             23.0000000000
      5438       176  BGLCNA    H5            -13.4576915952        3.1225011846      109.5374749077  LPSA5     32             23.0000000000
      5439       176  BGLCNA    O5            -15.3803704644        3.5638497939      108.9423333575  LPSA5     32             23.0000000000
      5440       176  BGLCNA    C2            -15.3130397733        5.7194520802      109.8194522937  LPSA5     32             23.0000000000
      5441       176  BGLCNA    H2            -16.3121680279        5.4890118214      110.1044894257  LPSA5     32             23.0000000000
      5442       176  BGLCNA    N             -15.1675188747        7.1177108731      109.5956973249  LPSA5     32             23.0000000000
      5443       176  BGLCNA    HN            -14.4543656350        7.2657014115      108.8809076996  LPSA5     32             23.0000000000
      5444       176  BGLCNA    C             -15.8887929466        8.1509134972      110.0864625708  LPSA5     32             23.0000000000
      5445       176  BGLCNA    O             -16.7714909907        7.9952852939      110.9304085025  LPSA5     32             23.0000000000
      5446       176  BGLCNA    CT            -15.5275778008        9.5663544396      109.5841031968  LPSA5     32             23.0000000000
      5447       176  BGLCNA    HT1           -14.9110308342        9.2852362652      108.6281101354  LPSA5     32             23.0000000000
      5448       176  BGLCNA    HT2           -14.8671695453       10.1342771713      110.1898124037  LPSA5     32             23.0000000000
      5449       176  BGLCNA    HT3           -16.4269174530       10.1710374401      109.3122359934  LPSA5     32             23.0000000000
      5450       176  BGLCNA    C3            -14.3887168284        5.2267206092      110.8930231790  LPSA5     32             23.0000000000
      5451       176  BGLCNA    H3            -13.4293889560        5.2353966209      110.4606187373  LPSA5     32             23.0000000000
      5452       176  BGLCNA    O3            -14.3453642899        6.0560210118      112.0657798240  LPSA5     32             23.0000000000
      5453       176  BGLCNA    C4            -14.7532041855        3.7939247296      111.1707572500  LPSA5     32             23.0000000000
      5454       176  BGLCNA    H4            -15.8175915934        3.7876016295      111.5318289610  LPSA5     32             23.0000000000
      5455       176  BGLCNA    O4            -13.9763597450        3.2535425505      112.2070236435  LPSA5     32             23.0000000000
      5456       176  BGLCNA    HO4           -14.3889254329        3.3729025368      113.0745323218  LPSA5     32             23.0000000000
      5457       176  BGLCNA    C6            -14.8031439220        1.4868081108      110.0229508171  LPSA5     32             23.0000000000
      5458       176  BGLCNA    H61           -14.0493393806        0.9633115330      110.7194343748  LPSA5     32             23.0000000000
      5459       176  BGLCNA    H62           -15.8140563385        1.3229837222      110.5717638480  LPSA5     32             23.0000000000
      5460       176  BGLCNA    O6            -14.7056726511        0.8393203863      108.7709294272  LPSA5     32             23.0000000000
      5461       176  BGLCNA    HO6           -13.9788778449        1.2492086488      108.2360311317  LPSA5     32             23.0000000000
      5462       177  AGAL      C1            -13.0359107477        6.1711514099      112.6842874521  LPSA5     33             24.0000000000
      5463       177  AGAL      H1            -12.5675417673        5.1876292615      112.5979959475  LPSA5     33             24.0000000000
      5464       177  AGAL      C5            -12.7893044756        8.4845167535      112.2149219831  LPSA5     33             24.0000000000
      5465       177  AGAL      H5            -13.8347065505        8.3637438047      111.8792915250  LPSA5     33             24.0000000000
      5466       177  AGAL      O5            -12.2039521708        7.2068164467      112.0726784748  LPSA5     33             24.0000000000
      5467       177  AGAL      C2            -13.2621497265        6.5421128338      114.1482787662  LPSA5     33             24.0000000000
      5468       177  AGAL      H2            -12.2013077631        6.7253178378      114.5751854976  LPSA5     33             24.0000000000
      5469       177  AGAL      O2            -13.7249917244        5.4027301567      114.8486222260  LPSA5     33             24.0000000000
      5470       177  AGAL      C3            -13.8600051862        7.9193680350      114.2945545625  LPSA5     33             24.0000000000
      5471       177  AGAL      H3            -14.8585205675        7.9790552138      113.7405815065  LPSA5     33             24.0000000000
      5472       177  AGAL      O3            -14.2515709313        8.2314053934      115.5672660328  LPSA5     33             24.0000000000
      5473       177  AGAL      HO3           -13.6121694318        8.1278154896      116.2400186851  LPSA5     33             24.0000000000
      5474       177  AGAL      C4            -12.9617799177        8.9625101177      113.6708488317  LPSA5     33             24.0000000000
      5475       177  AGAL      H4            -13.4373755169        9.9507700386      113.6729875792  LPSA5     33             24.0000000000
      5476       177  AGAL      O4            -11.6498385701        9.1683489932      114.2435538900  LPSA5     33             24.0000000000
      5477       177  AGAL      HO4           -11.4287583028        8.5270247151      114.9085525172  LPSA5     33             24.0000000000
      5478       177  AGAL      C6            -12.1546351758        9.5042390770      111.2992528405  LPSA5     33             24.0000000000
      5479       177  AGAL      H61           -12.3534364912        9.1197444534      110.2783408757  LPSA5     33             24.0000000000
      5480       177  AGAL      H62           -12.5555576256       10.5344015196      111.3458027743  LPSA5     33             24.0000000000
      5481       177  AGAL      O6            -10.7833548556        9.7220812839      111.4129476537  LPSA5     33             24.0000000000
      5482       177  AGAL      HO6           -10.2400972080        9.1192651263      110.8444757795  LPSA5     33             24.0000000000
      5483       178  ARHM      C1            -13.0213808383        5.1046869217      116.0109133884  LPSA5     34             25.0000000000
      5484       178  ARHM      H1            -12.8468291959        5.9950048241      116.6389743656  LPSA5     34             25.0000000000
      5485       178  ARHM      C5            -11.6777555257        3.3262080106      115.0727799907  LPSA5     34             25.0000000000
      5486       178  ARHM      H5            -12.0892155642        3.5752759823      114.0209633333  LPSA5     34             25.0000000000
      5487       178  ARHM      O5            -11.6958372732        4.5487017975      115.8926868953  LPSA5     34             25.0000000000
      5488       178  ARHM      C2            -13.9182929596        4.1594391242      116.7601555753  LPSA5     34             25.0000000000
      5489       178  ARHM      H2            -14.9889566267        4.4825680754      116.8710959342  LPSA5     34             25.0000000000
      5490       178  ARHM      O2            -13.4736688876        3.8466153891      118.1592972339  LPSA5     34             25.0000000000
      5491       178  ARHM      C3            -13.9610274946        2.8424569844      115.9988665506  LPSA5     34             25.0000000000
      5492       178  ARHM      H3            -14.3307129109        2.9869670767      114.9724172480  LPSA5     34             25.0000000000
      5493       178  ARHM      O3            -14.7763725369        1.8003050108      116.5878695042  LPSA5     34             25.0000000000
      5494       178  ARHM      HO3           -15.2591550342        1.2769698540      115.9559434517  LPSA5     34             25.0000000000
      5495       178  ARHM      C4            -12.5453652621        2.2359187102      115.7987835878  LPSA5     34             25.0000000000
      5496       178  ARHM      H4            -11.9984047133        2.1244856355      116.7495315617  LPSA5     34             25.0000000000
      5497       178  ARHM      O4            -12.5609908108        1.0253331308      115.1362621200  LPSA5     34             25.0000000000
      5498       178  ARHM      HO4           -12.8404287673        0.3039669656      115.6953140327  LPSA5     34             25.0000000000
      5499       178  ARHM      C6            -10.2144258985        2.8041957006      114.8413279703  LPSA5     34             25.0000000000
      5500       178  ARHM      H61            -9.6880980893        2.4862832799      115.7172490283  LPSA5     34             25.0000000000
      5501       178  ARHM      H62           -10.2990122467        1.7956918883      114.3996926230  LPSA5     34             25.0000000000
      5502       178  ARHM      H63            -9.5781951683        3.3977870571      114.1590834060  LPSA5     34             25.0000000000
      5503       179  ARHM      C1            -13.3351859970        4.9486713321      119.0795908573  LPSA5     35             26.0000000000
      5504       179  ARHM      H1            -14.2060555549        5.7015077602      118.8787348947  LPSA5     35             26.0000000000
      5505       179  ARHM      C5            -10.9171211892        4.7799049124      119.2408916176  LPSA5     35             26.0000000000
      5506       179  ARHM      H5            -10.9068062586        3.8614522656      118.5254732223  LPSA5     35             26.0000000000
      5507       179  ARHM      O5            -12.0468895193        5.6817795201      118.9290334222  LPSA5     35             26.0000000000
      5508       179  ARHM      C2            -13.4678419592        4.4466259683      120.5365485050  LPSA5     35             26.0000000000
      5509       179  ARHM      H2            -14.4847957344        3.9940627536      120.7134209997  LPSA5     35             26.0000000000
      5510       179  ARHM      O2            -13.3632016544        5.5068900270      121.4126203716  LPSA5     35             26.0000000000
      5511       179  ARHM      C3            -12.3322508133        3.4538765207      120.8720061906  LPSA5     35             26.0000000000
      5512       179  ARHM      H3            -12.4486548461        2.5936772989      120.1344793452  LPSA5     35             26.0000000000
      5513       179  ARHM      O3            -12.5023568329        2.8859688245      122.1540075829  LPSA5     35             26.0000000000
      5514       179  ARHM      HO3           -12.8999037275        3.5436273240      122.7288731339  LPSA5     35             26.0000000000
      5515       179  ARHM      C4            -11.0311030195        4.1831674450      120.6788917534  LPSA5     35             26.0000000000
      5516       179  ARHM      H4            -10.9150547361        5.0925910030      121.3307119103  LPSA5     35             26.0000000000
      5517       179  ARHM      O4             -9.9842046373        3.2314031357      120.9693790153  LPSA5     35             26.0000000000
      5518       179  ARHM      HO4           -10.1247547560        2.3467551719      120.5581709812  LPSA5     35             26.0000000000
      5519       179  ARHM      C6             -9.5691680553        5.4857605617      118.8642347863  LPSA5     35             26.0000000000
      5520       179  ARHM      H61            -9.4956229218        5.6528650028      117.7433556958  LPSA5     35             26.0000000000
      5521       179  ARHM      H62            -9.6373621913        6.4095266119      119.4176110492  LPSA5     35             26.0000000000
      5522       179  ARHM      H63            -8.7452818383        4.7415770914      119.0633705917  LPSA5     35             26.0000000000
      5523       180  BMANNA    C1            -14.4386807970        6.3959831241      121.4471464502  LPSA5     36             27.0000000000
      5524       180  BMANNA    H1            -15.3802323342        5.9097091493      121.0972061898  LPSA5     36             27.0000000000
      5525       180  BMANNA    C5            -15.6180792741        8.3832276094      120.7299884793  LPSA5     36             27.0000000000
      5526       180  BMANNA    H5            -16.4402396115        7.7222483794      120.4610684421  LPSA5     36             27.0000000000
      5527       180  BMANNA    O5            -14.3710378891        7.6204687493      120.6641532654  LPSA5     36             27.0000000000
      5528       180  BMANNA    C2            -14.6731097482        6.8088822685      122.8920138725  LPSA5     36             27.0000000000
      5529       180  BMANNA    H2            -14.8167572681        5.8780364496      123.4719477421  LPSA5     36             27.0000000000
      5530       180  BMANNA    N             -13.4996923288        7.4889413698      123.4395449790  LPSA5     36             27.0000000000
      5531       180  BMANNA    HN            -13.0134216352        8.1625618433      122.8746519580  LPSA5     36             27.0000000000
      5532       180  BMANNA    C             -13.2356261803        7.4589260210      124.7737151700  LPSA5     36             27.0000000000
      5533       180  BMANNA    O             -13.8115604271        6.7664985117      125.6190347561  LPSA5     36             27.0000000000
      5534       180  BMANNA    CT            -12.1882079318        8.3660346719      125.3570716528  LPSA5     36             27.0000000000
      5535       180  BMANNA    HT1           -12.2277902496        9.3502916716      124.8802869227  LPSA5     36             27.0000000000
      5536       180  BMANNA    HT2           -11.1342220739        8.0135930711      125.1731404614  LPSA5     36             27.0000000000
      5537       180  BMANNA    HT3           -12.2034906002        8.4825100284      126.4547536948  LPSA5     36             27.0000000000
      5538       180  BMANNA    C3            -15.9272850165        7.6404195017      122.9763638711  LPSA5     36             27.0000000000
      5539       180  BMANNA    H3            -16.7962939779        7.0604657577      122.6403873786  LPSA5     36             27.0000000000
      5540       180  BMANNA    O3            -16.2402848286        8.0214072269      124.3414054450  LPSA5     36             27.0000000000
      5541       180  BMANNA    HO3           -17.0449564029        7.6800737195      124.7171830083  LPSA5     36             27.0000000000
      5542       180  BMANNA    C4            -15.8465129626        8.8446066558      122.1146940524  LPSA5     36             27.0000000000
      5543       180  BMANNA    H4            -15.0756551629        9.5135430487      122.4263894750  LPSA5     36             27.0000000000
      5544       180  BMANNA    O4            -17.0267014075        9.6386995503      122.2172873890  LPSA5     36             27.0000000000
      5545       180  BMANNA    HO4           -17.0029882086        9.7681035882      123.1985163392  LPSA5     36             27.0000000000
      5546       180  BMANNA    C6            -15.5616276592        9.4777530368      119.7412642597  LPSA5     36             27.0000000000
      5547       180  BMANNA    H61           -15.4713425602        9.0895463323      118.6946701192  LPSA5     36             27.0000000000
      5548       180  BMANNA    H62           -16.5756488476        9.8878276524      119.7045442506  LPSA5     36             27.0000000000
      5549       180  BMANNA    O6            -14.5610181436       10.5004736711      120.0914698020  LPSA5     36             27.0000000000
      5550       180  BMANNA    HO6           -15.0243546387       11.1373423567      120.6476247167  LPSA5     36             27.0000000000
      5551       181  ECLIPA    HB6S            2.8319155793      -19.3557221330       20.4612168218  LPSA6     1               0.0000000000
      5552       181  ECLIPA    OB6             1.4856309573      -20.1803329955       21.7140249152  LPSA6     1               0.0000000000
      5553       181  ECLIPA    CB6             2.5461973384      -20.3435403334       20.7042159014  LPSA6     1               0.0000000000
      5554       181  ECLIPA    HB6R            3.3126257487      -21.0106783348       21.0541931349  LPSA6     1               0.0000000000
      5555       181  ECLIPA    CB5             2.0269016779      -21.0805172500       19.3988764877  LPSA6     1               0.0000000000
      5556       181  ECLIPA    OB5             0.8517183558      -20.2810159514       18.9716901872  LPSA6     1               0.0000000000
      5557       181  ECLIPA    HB5             1.6614896148      -22.0536259677       19.7771798410  LPSA6     1               0.0000000000
      5558       181  ECLIPA    CB1             0.2793706230      -20.8512803114       17.7717324898  LPSA6     1               0.0000000000
      5559       181  ECLIPA    HB1            -0.0687069359      -21.8997065823       17.9003641080  LPSA6     1               0.0000000000
      5560       181  ECLIPA    OA6            -0.7865309983      -20.0702805710       17.3217246577  LPSA6     1               0.0000000000
      5561       181  ECLIPA    CA6            -0.7844145536      -18.6490444032       17.5745106853  LPSA6     1               0.0000000000
      5562       181  ECLIPA    HA6R            0.2653661147      -18.3239147464       17.7226451425  LPSA6     1               0.0000000000
      5563       181  ECLIPA    HA6S           -1.5109924022      -18.4496274891       18.4598965841  LPSA6     1               0.0000000000
      5564       181  ECLIPA    CB4             3.1236370767      -21.1804432231       18.3206521937  LPSA6     1               0.0000000000
      5565       181  ECLIPA    HB4             3.4783942036      -20.1756760902       18.0085584641  LPSA6     1               0.0000000000
      5566       181  ECLIPA    OB4             4.0558773193      -22.1183265339       18.9017319965  LPSA6     1               0.0000000000
      5567       181  ECLIPA    PB              5.5260349101      -21.6157299837       19.3234616795  LPSA6     1               0.0000000000
      5568       181  ECLIPA    OPB4            5.9476775778      -22.4342306836       20.5579515876  LPSA6     1               0.0000000000
      5569       181  ECLIPA    OPB3            5.2448428808      -20.1313771006       19.6614545037  LPSA6     1               0.0000000000
      5570       181  ECLIPA    OPB2            6.4229343903      -21.7413971694       18.0829495795  LPSA6     1               0.0000000000
      5571       181  ECLIPA    CB3             2.4546565190      -21.7733675103       17.0955893951  LPSA6     1               0.0000000000
      5572       181  ECLIPA    OB3             3.2763385821      -21.8684118828       15.9186528231  LPSA6     1               0.0000000000
      5573       181  ECLIPA    HB3             1.9037875410      -22.7350628312       17.3284540628  LPSA6     1               0.0000000000
      5574       181  ECLIPA    C71             3.9104645923      -22.9702201582       15.6929469039  LPSA6     1               0.0000000000
      5575       181  ECLIPA    O71             3.7795972163      -24.0075839650       16.3832172580  LPSA6     1               0.0000000000
      5576       181  ECLIPA    C72             4.6778300204      -22.8058295041       14.3548430386  LPSA6     1               0.0000000000
      5577       181  ECLIPA    H72R            3.9590243031      -22.5524453801       13.5774555414  LPSA6     1               0.0000000000
      5578       181  ECLIPA    H72S            5.2944205606      -23.7789023880       14.1464415926  LPSA6     1               0.0000000000
      5579       181  ECLIPA    CB2             1.2842036400      -20.8638370471       16.6720734084  LPSA6     1               0.0000000000
      5580       181  ECLIPA    HB2             1.7488144920      -19.7862934607       16.5298168153  LPSA6     1               0.0000000000
      5581       181  ECLIPA    NB2             0.5910377194      -21.3444725558       15.4577284722  LPSA6     1               0.0000000000
      5582       181  ECLIPA    HNB2           -0.1224796729      -22.0298088238       15.5965609326  LPSA6     1               0.0000000000
      5583       181  ECLIPA    CA4            -2.5416023571      -18.6110214929       15.7929312798  LPSA6     1               0.0000000000
      5584       181  ECLIPA    HA4            -2.2887460628      -19.6591399235       15.4903430209  LPSA6     1               0.0000000000
      5585       181  ECLIPA    OA4            -3.5064401471      -18.6303422352       16.8012065728  LPSA6     1               0.0000000000
      5586       181  ECLIPA    HOA4           -3.1774096940      -18.9468658248       17.5928838569  LPSA6     1               0.0000000000
      5587       181  ECLIPA    CA5            -1.3438043722      -17.9669983884       16.3547806008  LPSA6     1               0.0000000000
      5588       181  ECLIPA    HA5            -1.4065329170      -16.8246099351       16.5880746347  LPSA6     1               0.0000000000
      5589       181  ECLIPA    OA5            -0.3051529327      -18.0483265588       15.3689671688  LPSA6     1               0.0000000000
      5590       181  ECLIPA    CA1            -0.7039893480      -17.4027474091       14.1076640156  LPSA6     1               0.0000000000
      5591       181  ECLIPA    HA1             0.0548154285      -17.8560374449       13.4118188108  LPSA6     1               0.0000000000
      5592       181  ECLIPA    OA1            -0.5515044876      -15.9971134893       14.1359876212  LPSA6     1               0.0000000000
      5593       181  ECLIPA    OPA2            0.2792623275      -14.6740249044       15.9734101064  LPSA6     1               0.0000000000
      5594       181  ECLIPA    OPA3            1.8837253383      -16.2921822685       14.8300177673  LPSA6     1               0.0000000000
      5595       181  ECLIPA    OPA4            1.1560371541      -14.2626903710       13.6615320840  LPSA6     1               0.0000000000
      5596       181  ECLIPA    PA              0.7587987724      -15.3109614237       14.6765383084  LPSA6     1               0.0000000000
      5597       181  ECLIPA    CA3            -3.0518702142      -17.9472535608       14.5219348229  LPSA6     1               0.0000000000
      5598       181  ECLIPA    HA3            -3.3974405049      -16.8612392317       14.7377032538  LPSA6     1               0.0000000000
      5599       181  ECLIPA    OA3            -4.2726581828      -18.6114013945       14.2498111976  LPSA6     1               0.0000000000
      5600       181  ECLIPA    C31            -4.1848540741      -19.7565630838       13.5006246295  LPSA6     1               0.0000000000
      5601       181  ECLIPA    O31            -4.0319871495      -19.8227003151       12.2941239937  LPSA6     1               0.0000000000
      5602       181  ECLIPA    C32            -4.8345050635      -20.9104658013       14.2780289507  LPSA6     1               0.0000000000
      5603       181  ECLIPA    H32R           -5.7243511120      -21.2499321221       13.7149713840  LPSA6     1               0.0000000000
      5604       181  ECLIPA    H32S           -5.1166189223      -20.5753249005       15.2729523512  LPSA6     1               0.0000000000
      5605       181  ECLIPA    CA2            -1.9357044298      -18.0310521374       13.4984733916  LPSA6     1               0.0000000000
      5606       181  ECLIPA    HA2            -1.6660164765      -19.0856110195       13.3982259915  LPSA6     1               0.0000000000
      5607       181  ECLIPA    NA2            -2.2718342624      -17.4022278263       12.2035087571  LPSA6     1               0.0000000000
      5608       181  ECLIPA    HNA2           -3.1998520686      -17.1424901932       12.0865030408  LPSA6     1               0.0000000000
      5609       181  ECLIPA    C73             5.7099368455      -21.7082476317       14.3319064372  LPSA6     1               0.0000000000
      5610       181  ECLIPA    H73R            6.3267365477      -21.6889218295       15.2227416964  LPSA6     1               0.0000000000
      5611       181  ECLIPA    O73             4.9788174392      -20.4587313242       14.2644256719  LPSA6     1               0.0000000000
      5612       181  ECLIPA    C81             5.3690819061      -19.3171499161       14.8555734565  LPSA6     1               0.0000000000
      5613       181  ECLIPA    O81             6.3450794314      -19.3523028091       15.6690894779  LPSA6     1               0.0000000000
      5614       181  ECLIPA    C82             4.5599907813      -18.1050701352       14.3536111794  LPSA6     1               0.0000000000
      5615       181  ECLIPA    H82R            4.8603907139      -17.1895398059       14.8531840528  LPSA6     1               0.0000000000
      5616       181  ECLIPA    H82S            3.4684753529      -18.2404269035       14.5323473422  LPSA6     1               0.0000000000
      5617       181  ECLIPA    C83             4.7485465186      -17.9419744039       12.8301722806  LPSA6     1               0.0000000000
      5618       181  ECLIPA    H83R            4.0589523090      -18.6512121175       12.2351841548  LPSA6     1               0.0000000000
      5619       181  ECLIPA    H83S            5.7461822176      -18.3145562169       12.5911296392  LPSA6     1               0.0000000000
      5620       181  ECLIPA    C84             4.3975616320      -16.5347661684       12.3050927261  LPSA6     1               0.0000000000
      5621       181  ECLIPA    H84R            5.2122715833      -15.8523629432       12.5767117503  LPSA6     1               0.0000000000
      5622       181  ECLIPA    H84S            3.4415558361      -16.3283747255       12.7369555497  LPSA6     1               0.0000000000
      5623       181  ECLIPA    C85             4.2151024559      -16.5407863422       10.7695484051  LPSA6     1               0.0000000000
      5624       181  ECLIPA    H85R            3.6264738011      -17.4409736647       10.5503608829  LPSA6     1               0.0000000000
      5625       181  ECLIPA    H85S            5.2029019178      -16.6928706288       10.2367999955  LPSA6     1               0.0000000000
      5626       181  ECLIPA    C86             3.3770976965      -15.3179743786       10.3034592726  LPSA6     1               0.0000000000
      5627       181  ECLIPA    H86R            4.0126381151      -14.4232768588        9.9932223571  LPSA6     1               0.0000000000
      5628       181  ECLIPA    H86S            2.7272775392      -14.9616318767       11.0807540114  LPSA6     1               0.0000000000
      5629       181  ECLIPA    C87             2.3707318690      -15.6876929975        9.1601018854  LPSA6     1               0.0000000000
      5630       181  ECLIPA    H87R            1.8371949988      -14.8119625511        8.8049419625  LPSA6     1               0.0000000000
      5631       181  ECLIPA    H87S            1.5715890718      -16.3797223135        9.5406723883  LPSA6     1               0.0000000000
      5632       181  ECLIPA    C88             3.0443698756      -16.4290771942        8.0318999685  LPSA6     1               0.0000000000
      5633       181  ECLIPA    H88R            3.2717497546      -17.4994531554        8.3479828359  LPSA6     1               0.0000000000
      5634       181  ECLIPA    H88S            4.1064404476      -16.0618150015        7.9254521495  LPSA6     1               0.0000000000
      5635       181  ECLIPA    C89             2.2121699595      -16.5096541427        6.7101000712  LPSA6     1               0.0000000000
      5636       181  ECLIPA    H89R            1.1357036116      -16.2877925414        6.8746682686  LPSA6     1               0.0000000000
      5637       181  ECLIPA    H89S            2.2229313306      -17.4701577659        6.2317001698  LPSA6     1               0.0000000000
      5638       181  ECLIPA    C810            2.8180695286      -15.5143088219        5.7047246593  LPSA6     1               0.0000000000
      5639       181  ECLIPA    H810R           3.8801309219      -15.5114288026        6.0108430704  LPSA6     1               0.0000000000
      5640       181  ECLIPA    H810S           2.3779680297      -14.5473571768        5.8554647029  LPSA6     1               0.0000000000
      5641       181  ECLIPA    C811            2.6652760826      -15.8795750690        4.2179945741  LPSA6     1               0.0000000000
      5642       181  ECLIPA    H811R           2.7741871646      -15.1068372136        3.5081125689  LPSA6     1               0.0000000000
      5643       181  ECLIPA    H811S           1.6389232206      -16.4043756463        4.1819101877  LPSA6     1               0.0000000000
      5644       181  ECLIPA    C812            3.5417402288      -17.0481339834        3.7413673409  LPSA6     1               0.0000000000
      5645       181  ECLIPA    H812R           3.1969027596      -17.3081724718        2.6403157337  LPSA6     1               0.0000000000
      5646       181  ECLIPA    H812S           3.5533500441      -17.8963095922        4.4144737196  LPSA6     1               0.0000000000
      5647       181  ECLIPA    C813            5.0468551884      -16.7291753147        3.6785234959  LPSA6     1               0.0000000000
      5648       181  ECLIPA    H813R           5.1623174359      -15.9009490460        2.9398073555  LPSA6     1               0.0000000000
      5649       181  ECLIPA    H813S           5.5257187924      -16.3627118594        4.6616087352  LPSA6     1               0.0000000000
      5650       181  ECLIPA    C814            5.8871149777      -17.8676508812        3.1377409857  LPSA6     1               0.0000000000
      5651       181  ECLIPA    H814R           5.4856138133      -18.3950829639        2.1719074593  LPSA6     1               0.0000000000
      5652       181  ECLIPA    H814S           5.9980742837      -18.6342161353        3.9166242729  LPSA6     1               0.0000000000
      5653       181  ECLIPA    H814T           6.9171200873      -17.5191622681        2.8964685373  LPSA6     1               0.0000000000
      5654       181  ECLIPA    C74             6.6834751650      -21.6364185309       13.1792855021  LPSA6     1               0.0000000000
      5655       181  ECLIPA    H74R            7.3637599888      -22.4656988251       12.9935747315  LPSA6     1               0.0000000000
      5656       181  ECLIPA    H74S            7.3486530820      -20.6950507555       13.3086690609  LPSA6     1               0.0000000000
      5657       181  ECLIPA    C75             5.9318553975      -21.3163759857       11.8151371119  LPSA6     1               0.0000000000
      5658       181  ECLIPA    H75R            6.6382839522      -20.6400538124       11.2107603889  LPSA6     1               0.0000000000
      5659       181  ECLIPA    H75S            5.0024956994      -20.7468788972       12.0082837783  LPSA6     1               0.0000000000
      5660       181  ECLIPA    C76             5.5821505821      -22.5407243143       10.9251453624  LPSA6     1               0.0000000000
      5661       181  ECLIPA    H76R            4.6701054650      -23.0388343290       11.3555905686  LPSA6     1               0.0000000000
      5662       181  ECLIPA    H76S            6.3952972298      -23.3782913161       10.9731137071  LPSA6     1               0.0000000000
      5663       181  ECLIPA    C77             5.3217159022      -22.2852789142        9.4191603634  LPSA6     1               0.0000000000
      5664       181  ECLIPA    H77R            6.2230176690      -21.8680490558        9.0408775908  LPSA6     1               0.0000000000
      5665       181  ECLIPA    H77S            4.6030408839      -21.4441264480        9.2852383479  LPSA6     1               0.0000000000
      5666       181  ECLIPA    C78             4.7470918371      -23.5795541144        8.8297405752  LPSA6     1               0.0000000000
      5667       181  ECLIPA    H78R            5.3887807126      -24.3972070596        9.1562620580  LPSA6     1               0.0000000000
      5668       181  ECLIPA    H78S            3.7378097438      -23.6785293795        9.3169442960  LPSA6     1               0.0000000000
      5669       181  ECLIPA    C79             4.3795964285      -23.4590220776        7.2570767761  LPSA6     1               0.0000000000
      5670       181  ECLIPA    H79R            3.2733941528      -23.2267190588        7.1763205913  LPSA6     1               0.0000000000
      5671       181  ECLIPA    H79S            4.5540803500      -24.4322553034        6.7882549413  LPSA6     1               0.0000000000
      5672       181  ECLIPA    C710            5.2868147956      -22.5917590875        6.3785096220  LPSA6     1               0.0000000000
      5673       181  ECLIPA    H710R           5.2484134422      -21.5801480701        6.8460783027  LPSA6     1               0.0000000000
      5674       181  ECLIPA    H710S           6.2416983163      -22.9468012241        6.4843026416  LPSA6     1               0.0000000000
      5675       181  ECLIPA    C711            4.8315308276      -22.4779056710        4.9384125046  LPSA6     1               0.0000000000
      5676       181  ECLIPA    H711R           4.8860407916      -23.5032437604        4.5670708729  LPSA6     1               0.0000000000
      5677       181  ECLIPA    H711S           3.7973001332      -22.0489154443        4.9306188492  LPSA6     1               0.0000000000
      5678       181  ECLIPA    C712            5.7672470979      -21.5260808058        4.2148670498  LPSA6     1               0.0000000000
      5679       181  ECLIPA    H712R           6.7713551710      -21.9532107576        4.3130666899  LPSA6     1               0.0000000000
      5680       181  ECLIPA    H712S           5.7768344625      -20.6260356708        4.8522839389  LPSA6     1               0.0000000000
      5681       181  ECLIPA    C713            5.2698035692      -21.2173287159        2.7357390519  LPSA6     1               0.0000000000
      5682       181  ECLIPA    H713R           4.2710735992      -20.7185877154        2.8800411466  LPSA6     1               0.0000000000
      5683       181  ECLIPA    H713S           6.0577371498      -20.5138014082        2.2750064041  LPSA6     1               0.0000000000
      5684       181  ECLIPA    C714            5.2801189212      -22.5027105813        1.8879763961  LPSA6     1               0.0000000000
      5685       181  ECLIPA    H714R           6.3002672127      -22.8922398819        1.7626189762  LPSA6     1               0.0000000000
      5686       181  ECLIPA    H714S           4.5151936928      -23.2206740518        2.2081901572  LPSA6     1               0.0000000000
      5687       181  ECLIPA    H714T           5.0021738491      -22.1175657830        0.9249202435  LPSA6     1               0.0000000000
      5688       181  ECLIPA    C51             1.0680531639      -21.0470398523       14.2380633031  LPSA6     1               0.0000000000
      5689       181  ECLIPA    O51             1.8420574057      -20.0719249627       14.1304636378  LPSA6     1               0.0000000000
      5690       181  ECLIPA    C52             0.7159161856      -21.9705384514       13.0157035712  LPSA6     1               0.0000000000
      5691       181  ECLIPA    H52R            1.3706517687      -22.8216194945       12.8950255930  LPSA6     1               0.0000000000
      5692       181  ECLIPA    H52S           -0.2816344837      -22.2882550868       13.2222025935  LPSA6     1               0.0000000000
      5693       181  ECLIPA    C53             0.6102874010      -21.0336520801       11.7526064304  LPSA6     1               0.0000000000
      5694       181  ECLIPA    H53R            0.3592503762      -20.0094697574       12.0082431084  LPSA6     1               0.0000000000
      5695       181  ECLIPA    O53            -0.2742592858      -21.7078533101       10.8431816314  LPSA6     1               0.0000000000
      5696       181  ECLIPA    C61            -1.4066483662      -21.1111619156       10.5090573566  LPSA6     1               0.0000000000
      5697       181  ECLIPA    O61            -1.7655254894      -20.0330047385       10.8659713306  LPSA6     1               0.0000000000
      5698       181  ECLIPA    C62            -2.2036160700      -22.0324674043        9.5765835255  LPSA6     1               0.0000000000
      5699       181  ECLIPA    H62R           -2.7005722921      -22.7929033875       10.2152837125  LPSA6     1               0.0000000000
      5700       181  ECLIPA    H62S           -1.4509007415      -22.6551408307        9.0470049452  LPSA6     1               0.0000000000
      5701       181  ECLIPA    C63            -3.1850239312      -21.2344551116        8.6803029234  LPSA6     1               0.0000000000
      5702       181  ECLIPA    H63R           -2.6249658098      -20.3739932817        8.2798705976  LPSA6     1               0.0000000000
      5703       181  ECLIPA    H63S           -4.0721194337      -20.8089460083        9.3252199642  LPSA6     1               0.0000000000
      5704       181  ECLIPA    C64            -3.7998237994      -21.9296998617        7.5279067597  LPSA6     1               0.0000000000
      5705       181  ECLIPA    H64R           -4.5686489581      -21.2917095303        6.9620099216  LPSA6     1               0.0000000000
      5706       181  ECLIPA    H64S           -4.3064144474      -22.8663432986        7.9657393466  LPSA6     1               0.0000000000
      5707       181  ECLIPA    C65            -2.6809627105      -22.4167469775        6.5414948800  LPSA6     1               0.0000000000
      5708       181  ECLIPA    H65R           -2.1084619430      -23.0755378907        7.2423230371  LPSA6     1               0.0000000000
      5709       181  ECLIPA    H65S           -2.0970058312      -21.5406373383        6.1828980290  LPSA6     1               0.0000000000
      5710       181  ECLIPA    C66            -3.1466093750      -23.1855035435        5.2222643966  LPSA6     1               0.0000000000
      5711       181  ECLIPA    H66R           -3.6826274563      -24.0774473597        5.5395647249  LPSA6     1               0.0000000000
      5712       181  ECLIPA    H66S           -2.1296488213      -23.4581519359        4.8113963288  LPSA6     1               0.0000000000
      5713       181  ECLIPA    C67            -3.9134591140      -22.4256523007        4.1696839457  LPSA6     1               0.0000000000
      5714       181  ECLIPA    H67R           -4.7685282602      -21.8831732110        4.5058181646  LPSA6     1               0.0000000000
      5715       181  ECLIPA    H67S           -4.2338494095      -23.1274057274        3.3478820057  LPSA6     1               0.0000000000
      5716       181  ECLIPA    C68            -3.1277504657      -21.3241086525        3.5077075145  LPSA6     1               0.0000000000
      5717       181  ECLIPA    H68R           -2.1610210618      -21.5784345926        3.0112508411  LPSA6     1               0.0000000000
      5718       181  ECLIPA    H68S           -3.0204939058      -20.6150020651        4.3087918325  LPSA6     1               0.0000000000
      5719       181  ECLIPA    C69            -3.8960332542      -20.7979813376        2.2963532923  LPSA6     1               0.0000000000
      5720       181  ECLIPA    H69R           -4.9970656027      -20.9118468385        2.3203210098  LPSA6     1               0.0000000000
      5721       181  ECLIPA    H69S           -3.6361991536      -21.4557343645        1.4693744207  LPSA6     1               0.0000000000
      5722       181  ECLIPA    C610           -3.5749192015      -19.3925670069        1.9396251084  LPSA6     1               0.0000000000
      5723       181  ECLIPA    H610R          -2.4722598208      -19.2056421152        2.0603347121  LPSA6     1               0.0000000000
      5724       181  ECLIPA    H610S          -4.0552150952      -18.6866969855        2.6933643884  LPSA6     1               0.0000000000
      5725       181  ECLIPA    C611           -4.1190883779      -18.9654395704        0.5312153135  LPSA6     1               0.0000000000
      5726       181  ECLIPA    H611R          -5.2158772808      -19.1130802467        0.5735373188  LPSA6     1               0.0000000000
      5727       181  ECLIPA    H611S          -4.1080142698      -17.8993276778        0.3609598123  LPSA6     1               0.0000000000
      5728       181  ECLIPA    C612           -3.3811523760      -19.6947563327       -0.5788949292  LPSA6     1               0.0000000000
      5729       181  ECLIPA    H612R          -2.3209440778      -19.3157021317       -0.6060949542  LPSA6     1               0.0000000000
      5730       181  ECLIPA    H612S          -3.2877923365      -20.7550480451       -0.3132441764  LPSA6     1               0.0000000000
      5731       181  ECLIPA    H612T          -3.8414600077      -19.5314917189       -1.5574606966  LPSA6     1               0.0000000000
      5732       181  ECLIPA    C54             2.0384697353      -21.0494230240       11.1776054589  LPSA6     1               0.0000000000
      5733       181  ECLIPA    H54R            2.2919394293      -22.1123568422       10.8869876633  LPSA6     1               0.0000000000
      5734       181  ECLIPA    H54S            2.7712778041      -20.7862846504       11.9574517429  LPSA6     1               0.0000000000
      5735       181  ECLIPA    C55             2.3688679492      -20.1512034579        9.9916770240  LPSA6     1               0.0000000000
      5736       181  ECLIPA    H55R            3.4563251793      -20.0285847776        9.7856946516  LPSA6     1               0.0000000000
      5737       181  ECLIPA    H55S            1.9661759161      -19.1061524110       10.2436295858  LPSA6     1               0.0000000000
      5738       181  ECLIPA    C56             1.8279830516      -20.8115938040        8.7515486822  LPSA6     1               0.0000000000
      5739       181  ECLIPA    H56R            0.7053490013      -20.9372804307        8.8382497819  LPSA6     1               0.0000000000
      5740       181  ECLIPA    H56S            2.2251993471      -21.7410850661        8.4741334449  LPSA6     1               0.0000000000
      5741       181  ECLIPA    C57             1.8159306846      -19.9395565741        7.4395707935  LPSA6     1               0.0000000000
      5742       181  ECLIPA    H57R            2.7999850768      -19.5433668035        7.1827428724  LPSA6     1               0.0000000000
      5743       181  ECLIPA    H57S            1.1749775528      -19.0360850912        7.5196553379  LPSA6     1               0.0000000000
      5744       181  ECLIPA    C58             1.1929305721      -20.7564040257        6.2350750625  LPSA6     1               0.0000000000
      5745       181  ECLIPA    H58R            1.5919946758      -21.8081280282        6.2095761879  LPSA6     1               0.0000000000
      5746       181  ECLIPA    H58S            0.1266802942      -20.9686756045        6.5224540661  LPSA6     1               0.0000000000
      5747       181  ECLIPA    C59             1.4740006533      -20.0745388580        4.8667186835  LPSA6     1               0.0000000000
      5748       181  ECLIPA    H59R            2.5520173226      -19.9509129434        4.6589989540  LPSA6     1               0.0000000000
      5749       181  ECLIPA    H59S            0.9774627318      -19.1080774724        5.0825555512  LPSA6     1               0.0000000000
      5750       181  ECLIPA    C510            1.0001767785      -20.9267380644        3.6752379292  LPSA6     1               0.0000000000
      5751       181  ECLIPA    H510R          -0.0384125683      -21.3910789260        3.7937959224  LPSA6     1               0.0000000000
      5752       181  ECLIPA    H510S           1.7330998615      -21.8288244498        3.4613250382  LPSA6     1               0.0000000000
      5753       181  ECLIPA    C511            0.9791745585      -20.2258324565        2.3004848829  LPSA6     1               0.0000000000
      5754       181  ECLIPA    H511R           0.0446698882      -19.6334142619        2.2679211996  LPSA6     1               0.0000000000
      5755       181  ECLIPA    H511S           1.8112628756      -19.4706631838        2.1940961976  LPSA6     1               0.0000000000
      5756       181  ECLIPA    C512            0.9526813618      -21.1376239497        1.0189424135  LPSA6     1               0.0000000000
      5757       181  ECLIPA    H512R           1.1655538673      -20.5236416679        0.0815295424  LPSA6     1               0.0000000000
      5758       181  ECLIPA    H512S           1.7131948614      -21.9226770065        1.1129704346  LPSA6     1               0.0000000000
      5759       181  ECLIPA    C513           -0.4792962134      -21.7355156087        0.6457389972  LPSA6     1               0.0000000000
      5760       181  ECLIPA    H513R          -1.2444295037      -20.9109558713        0.5010832175  LPSA6     1               0.0000000000
      5761       181  ECLIPA    H513S          -0.8369418851      -22.3179375228        1.4088770719  LPSA6     1               0.0000000000
      5762       181  ECLIPA    C514           -0.4194179752      -22.4856252510       -0.6567184026  LPSA6     1               0.0000000000
      5763       181  ECLIPA    H514R           0.3566551437      -23.2501439070       -0.6273993866  LPSA6     1               0.0000000000
      5764       181  ECLIPA    H514S          -1.3669334222      -23.0270517017       -0.7024724270  LPSA6     1               0.0000000000
      5765       181  ECLIPA    H514T          -0.2399290642      -21.7738345896       -1.5427815912  LPSA6     1               0.0000000000
      5766       181  ECLIPA    C33            -3.9672517105      -22.2334316663       14.4880792826  LPSA6     1               0.0000000000
      5767       181  ECLIPA    H33R           -4.6734704305      -23.0370391982       14.8828993596  LPSA6     1               0.0000000000
      5768       181  ECLIPA    O33            -2.9677366915      -22.0304084720       15.4699768821  LPSA6     1               0.0000000000
      5769       181  ECLIPA    HO33           -3.3776222394      -21.9993998904       16.2926205744  LPSA6     1               0.0000000000
      5770       181  ECLIPA    C34            -3.2836129638      -22.8214588852       13.2255459338  LPSA6     1               0.0000000000
      5771       181  ECLIPA    H34R           -2.6131507568      -22.0823030556       12.8010908313  LPSA6     1               0.0000000000
      5772       181  ECLIPA    H34S           -4.0581334270      -22.9701715453       12.3772221142  LPSA6     1               0.0000000000
      5773       181  ECLIPA    C35            -2.4877123378      -24.1240895329       13.4256256262  LPSA6     1               0.0000000000
      5774       181  ECLIPA    H35R           -3.1904366516      -24.9088190198       13.6963698038  LPSA6     1               0.0000000000
      5775       181  ECLIPA    H35S           -1.7958003755      -23.9879382927       14.2668166019  LPSA6     1               0.0000000000
      5776       181  ECLIPA    C36            -1.7813559660      -24.7112038696       12.1865608177  LPSA6     1               0.0000000000
      5777       181  ECLIPA    H36R           -1.5288819498      -23.7260654236       11.7430812241  LPSA6     1               0.0000000000
      5778       181  ECLIPA    H36S           -2.4378279787      -25.3097861353       11.4785220412  LPSA6     1               0.0000000000
      5779       181  ECLIPA    C37            -0.4486656662      -25.3518852223       12.5255831563  LPSA6     1               0.0000000000
      5780       181  ECLIPA    H37R           -0.7222692701      -26.4919774967       12.6765215637  LPSA6     1               0.0000000000
      5781       181  ECLIPA    H37S           -0.0658834287      -25.0329740527       13.5128993321  LPSA6     1               0.0000000000
      5782       181  ECLIPA    C38             0.6525727183      -25.2748651323       11.4317274953  LPSA6     1               0.0000000000
      5783       181  ECLIPA    H38R            1.1760706907      -24.3046707818       11.4067421357  LPSA6     1               0.0000000000
      5784       181  ECLIPA    H38S            1.4482879179      -25.9841724714       11.7230999881  LPSA6     1               0.0000000000
      5785       181  ECLIPA    C39             0.0745020469      -25.5092613887       10.0213367345  LPSA6     1               0.0000000000
      5786       181  ECLIPA    H39R           -0.7664086963      -24.7957683585        9.8128797222  LPSA6     1               0.0000000000
      5787       181  ECLIPA    H39S           -0.2037936139      -26.5952982398        9.9697980947  LPSA6     1               0.0000000000
      5788       181  ECLIPA    C310            1.0620036702      -25.3996395892        8.8401719124  LPSA6     1               0.0000000000
      5789       181  ECLIPA    H310R           1.8054572761      -26.2528362738        9.0626900142  LPSA6     1               0.0000000000
      5790       181  ECLIPA    H310S           1.6100132237      -24.4139201727        8.8945759064  LPSA6     1               0.0000000000
      5791       181  ECLIPA    C311            0.3613480077      -25.2622854116        7.5676235846  LPSA6     1               0.0000000000
      5792       181  ECLIPA    H311R          -0.5496287642      -25.9130766034        7.5507520616  LPSA6     1               0.0000000000
      5793       181  ECLIPA    H311S           0.0185996605      -24.2191971058        7.2851462164  LPSA6     1               0.0000000000
      5794       181  ECLIPA    C312            1.2259594915      -25.5815250900        6.3280121142  LPSA6     1               0.0000000000
      5795       181  ECLIPA    H312R           2.2834775432      -25.2508485721        6.4861373960  LPSA6     1               0.0000000000
      5796       181  ECLIPA    H312S           1.2088576784      -26.6907715988        6.1820758986  LPSA6     1               0.0000000000
      5797       181  ECLIPA    C313            0.7093202574      -24.9605714705        4.9895779706  LPSA6     1               0.0000000000
      5798       181  ECLIPA    H313R          -0.1444494868      -25.5285599840        4.7825120466  LPSA6     1               0.0000000000
      5799       181  ECLIPA    H313S           0.3972462556      -23.8918923003        5.1572698764  LPSA6     1               0.0000000000
      5800       181  ECLIPA    C314            1.6257259418      -25.0108781516        3.8116661598  LPSA6     1               0.0000000000
      5801       181  ECLIPA    H314R           1.9042815127      -26.0803653091        3.6067793993  LPSA6     1               0.0000000000
      5802       181  ECLIPA    H314S           1.2405667376      -24.5775348705        2.8849361441  LPSA6     1               0.0000000000
      5803       181  ECLIPA    H314T           2.6149171535      -24.4807787017        4.0446347774  LPSA6     1               0.0000000000
      5804       181  ECLIPA    C11            -1.4206731795      -17.0057160559       11.2900808200  LPSA6     1               0.0000000000
      5805       181  ECLIPA    O11            -0.2445519045      -17.3129413377       11.1394597694  LPSA6     1               0.0000000000
      5806       181  ECLIPA    C12            -1.9844415575      -15.9575808748       10.2853014675  LPSA6     1               0.0000000000
      5807       181  ECLIPA    H12R           -1.5656298993      -14.9384044169       10.4852637814  LPSA6     1               0.0000000000
      5808       181  ECLIPA    H12S           -3.0814062247      -15.9614795899       10.5222272274  LPSA6     1               0.0000000000
      5809       181  ECLIPA    C13            -1.7885616500      -16.2851454952        8.8110583416  LPSA6     1               0.0000000000
      5810       181  ECLIPA    H13R           -0.7272079116      -16.6793619145        8.5839874118  LPSA6     1               0.0000000000
      5811       181  ECLIPA    O13            -1.9251925866      -15.0101163068        8.1311342176  LPSA6     1               0.0000000000
      5812       181  ECLIPA    HO13           -1.4760898296      -15.0369552349        7.3064966676  LPSA6     1               0.0000000000
      5813       181  ECLIPA    C14            -2.7964149124      -17.3539960419        8.4581579993  LPSA6     1               0.0000000000
      5814       181  ECLIPA    H14R           -3.8128982573      -17.1851518030        8.9706443184  LPSA6     1               0.0000000000
      5815       181  ECLIPA    H14S           -2.3441656797      -18.3320664945        8.7243868424  LPSA6     1               0.0000000000
      5816       181  ECLIPA    C15            -3.1081666668      -17.4484033036        6.9526486677  LPSA6     1               0.0000000000
      5817       181  ECLIPA    H15R           -3.3721271357      -16.4846869564        6.5500123177  LPSA6     1               0.0000000000
      5818       181  ECLIPA    H15S           -3.9281133650      -18.1645613573        6.8782608049  LPSA6     1               0.0000000000
      5819       181  ECLIPA    C16            -1.8681469026      -17.9361212618        6.1622847334  LPSA6     1               0.0000000000
      5820       181  ECLIPA    H16R           -1.7227083737      -19.0722719637        6.2733383262  LPSA6     1               0.0000000000
      5821       181  ECLIPA    H16S           -0.9737279249      -17.6063755090        6.7182496574  LPSA6     1               0.0000000000
      5822       181  ECLIPA    C17            -1.9177964666      -17.5720964928        4.6801229578  LPSA6     1               0.0000000000
      5823       181  ECLIPA    H17R           -2.9895539135      -17.8361034916        4.4246758429  LPSA6     1               0.0000000000
      5824       181  ECLIPA    H17S           -1.2873236811      -18.1596473773        4.0046542873  LPSA6     1               0.0000000000
      5825       181  ECLIPA    C18            -1.6346765376      -16.1125286229        4.4504458171  LPSA6     1               0.0000000000
      5826       181  ECLIPA    H18R           -2.3409050673      -15.6491218028        5.0865821920  LPSA6     1               0.0000000000
      5827       181  ECLIPA    H18S           -0.5737699987      -15.9112655731        4.7749867078  LPSA6     1               0.0000000000
      5828       181  ECLIPA    C19            -1.8221161008      -15.7071014985        3.0097966450  LPSA6     1               0.0000000000
      5829       181  ECLIPA    H19R           -1.7291541097      -14.6335767827        2.9245509529  LPSA6     1               0.0000000000
      5830       181  ECLIPA    H19S           -2.8413146672      -16.0409721033        2.6238151240  LPSA6     1               0.0000000000
      5831       181  ECLIPA    C110           -0.7112202205      -16.2936728517        2.1045801788  LPSA6     1               0.0000000000
      5832       181  ECLIPA    H110R           0.3125522118      -16.1231640204        2.4416701971  LPSA6     1               0.0000000000
      5833       181  ECLIPA    H110S          -0.9780055466      -17.3721148009        2.1583327743  LPSA6     1               0.0000000000
      5834       181  ECLIPA    C111           -0.9087165865      -15.7933486898        0.7563571155  LPSA6     1               0.0000000000
      5835       181  ECLIPA    H111R          -1.9765869169      -15.7825334942        0.3999767799  LPSA6     1               0.0000000000
      5836       181  ECLIPA    H111S          -0.6466263037      -14.7681269952        0.7977177860  LPSA6     1               0.0000000000
      5837       181  ECLIPA    C112           -0.0062352516      -16.4599141378       -0.2937360943  LPSA6     1               0.0000000000
      5838       181  ECLIPA    H112R           0.9841993878      -16.2717430671        0.1973446929  LPSA6     1               0.0000000000
      5839       181  ECLIPA    H112S          -0.0502123246      -17.5493010343       -0.2177998937  LPSA6     1               0.0000000000
      5840       181  ECLIPA    C113           -0.3531795264      -16.0972187077       -1.7468031795  LPSA6     1               0.0000000000
      5841       181  ECLIPA    H113R          -1.3543819643      -16.5276814599       -1.9802017524  LPSA6     1               0.0000000000
      5842       181  ECLIPA    H113S          -0.5068432653      -15.0186362468       -1.8531093719  LPSA6     1               0.0000000000
      5843       181  ECLIPA    C114            0.6495962412      -16.3888133240       -2.8344928043  LPSA6     1               0.0000000000
      5844       181  ECLIPA    H114R           1.6860815006      -16.0668292693       -2.7829422503  LPSA6     1               0.0000000000
      5845       181  ECLIPA    H114S           0.7134684452      -17.5013728776       -2.9951089580  LPSA6     1               0.0000000000
      5846       181  ECLIPA    H114T           0.3775115028      -15.8120555595       -3.7399523103  LPSA6     1               0.0000000000
      5847       182  AKDO      C1              1.4164187577      -22.4047555328       22.4410509549  LPSA6     2               0.0000000000
      5848       182  AKDO      O11             2.4602761953      -23.1417074137       22.4913720772  LPSA6     2               0.0000000000
      5849       182  AKDO      O12             0.2382415380      -22.6822609214       22.0800765534  LPSA6     2               0.0000000000
      5850       182  AKDO      C2              1.6275004065      -20.9558006722       22.8913181237  LPSA6     2               0.0000000000
      5851       182  AKDO      C6              3.2619432711      -19.5070688267       23.8039205188  LPSA6     2               0.0000000000
      5852       182  AKDO      H6              3.2065434986      -18.8856183321       22.9487387861  LPSA6     2               0.0000000000
      5853       182  AKDO      O6              2.9060166791      -20.8977075530       23.4267274814  LPSA6     2               0.0000000000
      5854       182  AKDO      C3              0.6946216902      -20.5340946010       23.9587385105  LPSA6     2               0.0000000000
      5855       182  AKDO      H31             0.6476116990      -21.1754801829       24.7868435866  LPSA6     2               0.0000000000
      5856       182  AKDO      H32            -0.3638356323      -20.4416197306       23.4151264596  LPSA6     2               0.0000000000
      5857       182  AKDO      C4              1.0054350194      -19.1017784085       24.3842593775  LPSA6     2               0.0000000000
      5858       182  AKDO      H4              1.0216633781      -18.4146403425       23.5563617270  LPSA6     2               0.0000000000
      5859       182  AKDO      O4              0.0414089087      -18.6731955712       25.3355834555  LPSA6     2               0.0000000000
      5860       182  AKDO      C5              2.3533069681      -18.9462874442       24.9292437177  LPSA6     2               0.0000000000
      5861       182  AKDO      H5              2.6236061308      -17.8604706068       25.0107888161  LPSA6     2               0.0000000000
      5862       182  AKDO      O5              2.4211312004      -19.7082751321       26.2083878813  LPSA6     2               0.0000000000
      5863       182  AKDO      C7              4.8030456793      -19.3599175278       24.1981149098  LPSA6     2               0.0000000000
      5864       182  AKDO      H7              4.9773649926      -19.9525849374       25.0939202098  LPSA6     2               0.0000000000
      5865       182  AKDO      O7              5.1913528306      -17.9688384612       24.3482682347  LPSA6     2               0.0000000000
      5866       182  AKDO      HO7             5.2732201438      -17.6390585281       23.4945166536  LPSA6     2               0.0000000000
      5867       182  AKDO      C8              5.6111125328      -19.9379975900       22.9864433882  LPSA6     2               0.0000000000
      5868       182  AKDO      H81             5.2760146745      -21.0004811702       22.9153150275  LPSA6     2               0.0000000000
      5869       182  AKDO      H82             5.3426148271      -19.2863307687       22.0745354517  LPSA6     2               0.0000000000
      5870       182  AKDO      O8              7.0532319933      -19.8989545780       23.3537996748  LPSA6     2               0.0000000000
      5871       182  AKDO      HO8             7.4989544804      -20.6710657900       22.9179804014  LPSA6     2               0.0000000000
      5872       183  AKDO      C1             -1.0510163481      -17.2309998616       23.8027969005  LPSA6     3               1.0000000000
      5873       183  AKDO      O11            -1.3387002301      -17.6660705779       22.6471489042  LPSA6     3               1.0000000000
      5874       183  AKDO      O12            -0.6414087688      -16.0752067188       24.0656860145  LPSA6     3               1.0000000000
      5875       183  AKDO      C2             -1.2240321269      -18.1329074419       25.0166033796  LPSA6     3               1.0000000000
      5876       183  AKDO      C6             -2.2668603886      -20.1641709799       25.7688829792  LPSA6     3               1.0000000000
      5877       183  AKDO      H6             -1.2564282383      -20.6439496077       25.9810553331  LPSA6     3               1.0000000000
      5878       183  AKDO      O6             -2.1448803103      -19.2368596344       24.7076657818  LPSA6     3               1.0000000000
      5879       183  AKDO      C3             -1.7053663270      -17.4388000525       26.3187707743  LPSA6     3               1.0000000000
      5880       183  AKDO      H31            -2.7629584858      -16.9749343176       26.1504935106  LPSA6     3               1.0000000000
      5881       183  AKDO      H32            -1.0360611257      -16.6116832966       26.5929217108  LPSA6     3               1.0000000000
      5882       183  AKDO      C4             -1.7863670030      -18.4822148070       27.4036122013  LPSA6     3               1.0000000000
      5883       183  AKDO      H4             -0.8335879601      -19.0204803464       27.4051754129  LPSA6     3               1.0000000000
      5884       183  AKDO      O4             -2.0114369018      -18.0065202425       28.7388570077  LPSA6     3               1.0000000000
      5885       183  AKDO      HO4            -1.3466765009      -18.2492924671       29.3717785514  LPSA6     3               1.0000000000
      5886       183  AKDO      C5             -2.7146218963      -19.4838792113       27.0369167275  LPSA6     3               1.0000000000
      5887       183  AKDO      H5             -2.8313779498      -20.2143610420       27.9236884022  LPSA6     3               1.0000000000
      5888       183  AKDO      O5             -4.0252629164      -18.9175535612       26.8495261943  LPSA6     3               1.0000000000
      5889       183  AKDO      HO5            -3.9954793701      -18.2569994053       26.1887877298  LPSA6     3               1.0000000000
      5890       183  AKDO      C7             -3.2382805187      -21.2293541309       25.3258859863  LPSA6     3               1.0000000000
      5891       183  AKDO      H7             -4.2640201376      -20.7988412666       25.1324849511  LPSA6     3               1.0000000000
      5892       183  AKDO      O7             -3.3151385151      -22.2425072095       26.3661029982  LPSA6     3               1.0000000000
      5893       183  AKDO      HO7            -4.0646195435      -22.8418674871       26.1647669547  LPSA6     3               1.0000000000
      5894       183  AKDO      C8             -2.6483159539      -21.8965993900       24.1539635864  LPSA6     3               1.0000000000
      5895       183  AKDO      H81            -2.4893939832      -21.1748845510       23.3419478721  LPSA6     3               1.0000000000
      5896       183  AKDO      H82            -1.6918397644      -22.4246354263       24.2853144505  LPSA6     3               1.0000000000
      5897       183  AKDO      O8             -3.5423113241      -22.8655013812       23.6541307456  LPSA6     3               1.0000000000
      5898       183  AKDO      HO8            -4.1627801844      -22.2319472067       23.2473452835  LPSA6     3               1.0000000000
      5899       184  AHEP      C1              3.1994201177      -19.1992922783       27.2793229502  LPSA6     4               2.0000000000
      5900       184  AHEP      H1              4.1829861754      -19.5826459881       26.8517192453  LPSA6     4               2.0000000000
      5901       184  AHEP      C5              2.2257468115      -17.1069873686       28.0185271385  LPSA6     4               2.0000000000
      5902       184  AHEP      H5              1.2662193604      -17.5689872948       27.5619054335  LPSA6     4               2.0000000000
      5903       184  AHEP      O5              3.3162329904      -17.7791129076       27.3942805697  LPSA6     4               2.0000000000
      5904       184  AHEP      C2              3.1341728897      -19.7455802077       28.6827861277  LPSA6     4               2.0000000000
      5905       184  AHEP      H2              2.9968392371      -20.8308241765       28.7442425996  LPSA6     4               2.0000000000
      5906       184  AHEP      O2              4.3171535182      -19.4680341790       29.3407203943  LPSA6     4               2.0000000000
      5907       184  AHEP      HO2             4.5733778633      -20.2130043220       29.8507927467  LPSA6     4               2.0000000000
      5908       184  AHEP      C3              1.9878926731      -19.0981129716       29.4857672188  LPSA6     4               2.0000000000
      5909       184  AHEP      H3              0.9719799910      -19.4268294622       29.2269906369  LPSA6     4               2.0000000000
      5910       184  AHEP      O3              2.0670490584      -19.4737876641       30.7882097304  LPSA6     4               2.0000000000
      5911       184  AHEP      C4              2.1445120028      -17.5994434722       29.4546205599  LPSA6     4               2.0000000000
      5912       184  AHEP      H4              3.0463748856      -17.1952436119       29.9788637739  LPSA6     4               2.0000000000
      5913       184  AHEP      O4              1.0070167476      -17.0123428432       30.0145912217  LPSA6     4               2.0000000000
      5914       184  AHEP      P4              1.0226987000      -16.2628090055       31.4978499249  LPSA6     4               2.0000000000
      5915       184  AHEP      OP42           -0.2833044941      -16.4727337193       32.1560374192  LPSA6     4               2.0000000000
      5916       184  AHEP      OP43            1.2249370507      -14.8484361418       31.0397938518  LPSA6     4               2.0000000000
      5917       184  AHEP      OP44            2.2678148400      -16.7385004802       32.3098937101  LPSA6     4               2.0000000000
      5918       184  AHEP      C6              2.2983918804      -15.5531529589       27.7982482844  LPSA6     4               2.0000000000
      5919       184  AHEP      H6              1.2762807792      -15.1577431177       28.0833143566  LPSA6     4               2.0000000000
      5920       184  AHEP      O6              3.2719297335      -15.0381562467       28.7103505027  LPSA6     4               2.0000000000
      5921       184  AHEP      HO6             2.9277298657      -14.2567730626       29.2203787365  LPSA6     4               2.0000000000
      5922       184  AHEP      C7              2.5839643519      -15.1352949951       26.3054198206  LPSA6     4               2.0000000000
      5923       184  AHEP      H71             2.4614005365      -14.0109550482       26.1576126064  LPSA6     4               2.0000000000
      5924       184  AHEP      H72             1.9709439251      -15.7676669108       25.6323487339  LPSA6     4               2.0000000000
      5925       184  AHEP      O7              3.9475483874      -15.3828697632       25.9755159574  LPSA6     4               2.0000000000
      5926       184  AHEP      HO7             4.4727975679      -14.6458807092       26.3256794122  LPSA6     4               2.0000000000
      5927       185  AHEP      C1              0.9886453995      -20.1879020517       31.4342177374  LPSA6     5               3.0000000000
      5928       185  AHEP      H1             -0.0034204252      -19.9291211060       30.9794447437  LPSA6     5               3.0000000000
      5929       185  AHEP      C5              2.3475261934      -22.0844769378       31.9165413065  LPSA6     5               3.0000000000
      5930       185  AHEP      H5              3.2135092154      -21.4080378525       31.6031509785  LPSA6     5               3.0000000000
      5931       185  AHEP      O5              1.1596050192      -21.6109184157       31.3013865768  LPSA6     5               3.0000000000
      5932       185  AHEP      C2              0.8683464242      -19.9183582567       32.9718957084  LPSA6     5               3.0000000000
      5933       185  AHEP      H2              0.8014909787      -18.7892432628       33.0921707216  LPSA6     5               3.0000000000
      5934       185  AHEP      O2             -0.3225885586      -20.4994457428       33.4691025827  LPSA6     5               3.0000000000
      5935       185  AHEP      HO2            -0.9709852432      -19.8238272726       33.6403503244  LPSA6     5               3.0000000000
      5936       185  AHEP      C3              2.1473972551      -20.3802755373       33.7004304811  LPSA6     5               3.0000000000
      5937       185  AHEP      H3              3.0212120876      -19.8279047613       33.3375632548  LPSA6     5               3.0000000000
      5938       185  AHEP      O3              2.1571231874      -20.2117155201       35.1462238331  LPSA6     5               3.0000000000
      5939       185  AHEP      C4              2.2761137712      -21.8439533388       33.4524658705  LPSA6     5               3.0000000000
      5940       185  AHEP      H4              1.3892792286      -22.4163243169       33.8188816395  LPSA6     5               3.0000000000
      5941       185  AHEP      O4              3.5103252533      -22.3027615578       34.0881196202  LPSA6     5               3.0000000000
      5942       185  AHEP      P4              3.4661128615      -23.3597036815       35.2810123301  LPSA6     5               3.0000000000
      5943       185  AHEP      OP42            4.8754418272      -23.4272134745       35.8202965042  LPSA6     5               3.0000000000
      5944       185  AHEP      OP43            3.0353384945      -24.6911379595       34.6107506294  LPSA6     5               3.0000000000
      5945       185  AHEP      OP44            2.4075563022      -22.8864179919       36.2417033353  LPSA6     5               3.0000000000
      5946       185  AHEP      C6              2.6879661026      -23.5370499245       31.5493607386  LPSA6     5               3.0000000000
      5947       185  AHEP      H6              3.6672233622      -23.8438442621       31.9533288164  LPSA6     5               3.0000000000
      5948       185  AHEP      O6              1.6834954040      -24.4168221133       32.0428602265  LPSA6     5               3.0000000000
      5949       185  AHEP      HO6             0.8283782911      -24.4352349321       31.5367188277  LPSA6     5               3.0000000000
      5950       185  AHEP      C7              2.9341704401      -23.6454262412       30.0822725317  LPSA6     5               3.0000000000
      5951       185  AHEP      H71             3.7059192740      -24.4289085247       29.9169108581  LPSA6     5               3.0000000000
      5952       185  AHEP      H72             3.3140204227      -22.7160235561       29.6179339851  LPSA6     5               3.0000000000
      5953       185  AHEP      O7              1.7197243984      -24.1593459331       29.4957736452  LPSA6     5               3.0000000000
      5954       186  AHEP      C1              0.9820756635      -23.2054116684       28.7926622005  LPSA6     6               4.0000000000
      5955       186  AHEP      H1              1.3537657343      -22.1514803291       29.0422981953  LPSA6     6               4.0000000000
      5956       186  AHEP      C5              0.6541032882      -24.6533899774       26.9237617191  LPSA6     6               4.0000000000
      5957       186  AHEP      H5              1.1935656614      -25.4312591968       27.4818042043  LPSA6     6               4.0000000000
      5958       186  AHEP      O5              1.0899111655      -23.3544126185       27.3547530115  LPSA6     6               4.0000000000
      5959       186  AHEP      C2             -0.4517207007      -23.2765092017       29.2397872647  LPSA6     6               4.0000000000
      5960       186  AHEP      H2             -0.4618837713      -23.0673309014       30.3523091474  LPSA6     6               4.0000000000
      5961       186  AHEP      O2             -1.2287604063      -22.2253105989       28.7267108980  LPSA6     6               4.0000000000
      5962       186  AHEP      HO2            -1.3891297999      -21.6732732554       29.4669064354  LPSA6     6               4.0000000000
      5963       186  AHEP      C3             -1.0020414157      -24.6704736302       28.8468391403  LPSA6     6               4.0000000000
      5964       186  AHEP      H3             -0.4397728757      -25.4093906287       29.4311808254  LPSA6     6               4.0000000000
      5965       186  AHEP      O3             -2.4504695699      -24.8762818486       29.2225362108  LPSA6     6               4.0000000000
      5966       186  AHEP      HO3            -2.6201926719      -25.3576796370       29.9865592523  LPSA6     6               4.0000000000
      5967       186  AHEP      C4             -0.8279765462      -24.7973944383       27.2761740859  LPSA6     6               4.0000000000
      5968       186  AHEP      H4             -1.5181819378      -24.1192006358       26.7944950683  LPSA6     6               4.0000000000
      5969       186  AHEP      O4             -1.2809093915      -26.0714268512       26.7938835778  LPSA6     6               4.0000000000
      5970       186  AHEP      HO4            -0.5555806656      -26.7102921882       27.1589530594  LPSA6     6               4.0000000000
      5971       186  AHEP      C6              0.9857577976      -24.9453547894       25.4906533340  LPSA6     6               4.0000000000
      5972       186  AHEP      H6              0.6961511595      -25.9801562611       25.3442628137  LPSA6     6               4.0000000000
      5973       186  AHEP      O6              0.1034358730      -24.2135301846       24.6375675438  LPSA6     6               4.0000000000
      5974       186  AHEP      HO6             0.5936543099      -23.6889827760       23.9977784313  LPSA6     6               4.0000000000
      5975       186  AHEP      C7              2.4511479102      -24.8510350395       25.1799756221  LPSA6     6               4.0000000000
      5976       186  AHEP      H71             2.5988912085      -25.2520176579       24.1408078076  LPSA6     6               4.0000000000
      5977       186  AHEP      H72             2.9603869373      -25.4878324844       25.9252229174  LPSA6     6               4.0000000000
      5978       186  AHEP      O7              2.9677363094      -23.5550266147       25.2517430265  LPSA6     6               4.0000000000
      5979       186  AHEP      HO7             3.1724199302      -23.4312897946       26.2011285002  LPSA6     6               4.0000000000
      5980       187  AGLC      C1              2.6102365083      -18.9643421796       35.6520976122  LPSA6     7               4.0000000000
      5981       187  AGLC      H1              3.6382098659      -18.7351752082       35.2047739589  LPSA6     7               4.0000000000
      5982       187  AGLC      C5              0.4902389563      -18.0314141761       36.0987679218  LPSA6     7               4.0000000000
      5983       187  AGLC      H5             -0.0142392280      -18.9714305426       35.8327124756  LPSA6     7               4.0000000000
      5984       187  AGLC      O5              1.7062016509      -17.9193667156       35.4366254460  LPSA6     7               4.0000000000
      5985       187  AGLC      C2              2.8172095366      -19.0178539861       37.1582745954  LPSA6     7               4.0000000000
      5986       187  AGLC      H2              3.1118159242      -17.9576201115       37.4887389927  LPSA6     7               4.0000000000
      5987       187  AGLC      O2              3.9980997626      -19.7682680282       37.5024056006  LPSA6     7               4.0000000000
      5988       187  AGLC      HO2             3.6945070211      -20.6622457826       37.6430208865  LPSA6     7               4.0000000000
      5989       187  AGLC      C3              1.6413478498      -19.1767901953       37.9903802326  LPSA6     7               4.0000000000
      5990       187  AGLC      H3              1.2225566701      -20.1325192026       37.6727250444  LPSA6     7               4.0000000000
      5991       187  AGLC      O3              1.8519502216      -19.3574753873       39.4204481292  LPSA6     7               4.0000000000
      5992       187  AGLC      C4              0.7713710320      -18.0201607578       37.5928595998  LPSA6     7               4.0000000000
      5993       187  AGLC      H4              1.2333289771      -17.0295394694       37.9560286200  LPSA6     7               4.0000000000
      5994       187  AGLC      O4             -0.5011292365      -18.2785879880       38.2243117391  LPSA6     7               4.0000000000
      5995       187  AGLC      HO4            -0.8886618493      -17.5240024716       38.6132003238  LPSA6     7               4.0000000000
      5996       187  AGLC      C6             -0.5160943578      -17.0029371687       35.5245160098  LPSA6     7               4.0000000000
      5997       187  AGLC      H61            -0.5129250974      -17.1441827041       34.4135318240  LPSA6     7               4.0000000000
      5998       187  AGLC      H62            -1.5700051448      -17.0549657513       35.8722646349  LPSA6     7               4.0000000000
      5999       187  AGLC      O6              0.0682475996      -15.6750640038       35.6892983147  LPSA6     7               4.0000000000
      6000       187  AGLC      HO6            -0.3917031598      -15.4054258987       36.4386090630  LPSA6     7               4.0000000000
      6001       188  AGLC      C1              1.5028401572      -20.5941947427       39.9328324507  LPSA6     8               5.0000000000
      6002       188  AGLC      H1              0.4920831372      -20.8744903837       39.5884769495  LPSA6     8               5.0000000000
      6003       188  AGLC      C5              3.7671572506      -21.5724778207       40.2153373402  LPSA6     8               5.0000000000
      6004       188  AGLC      H5              4.1903802355      -20.6328693671       39.8400606936  LPSA6     8               5.0000000000
      6005       188  AGLC      O5              2.4449886949      -21.6763490713       39.6195505863  LPSA6     8               5.0000000000
      6006       188  AGLC      C2              1.4065383739      -20.5463635509       41.4170311384  LPSA6     8               5.0000000000
      6007       188  AGLC      H2              0.9574208705      -21.5375466238       41.6529594578  LPSA6     8               5.0000000000
      6008       188  AGLC      O2              0.4245151437      -19.6614998330       41.9438754185  LPSA6     8               5.0000000000
      6009       188  AGLC      C3              2.7010909409      -20.3893981104       42.1297388169  LPSA6     8               5.0000000000
      6010       188  AGLC      H3              3.0350765272      -19.4153773676       41.6567950186  LPSA6     8               5.0000000000
      6011       188  AGLC      O3              2.4766292173      -20.2438729952       43.5370978028  LPSA6     8               5.0000000000
      6012       188  AGLC      C4              3.5396302394      -21.5209747480       41.7603093222  LPSA6     8               5.0000000000
      6013       188  AGLC      H4              3.0756121320      -22.4485932343       42.0401368658  LPSA6     8               5.0000000000
      6014       188  AGLC      O4              4.7961794840      -21.4451717498       42.3914819843  LPSA6     8               5.0000000000
      6015       188  AGLC      HO4             5.0722775287      -20.5615260544       42.3800652601  LPSA6     8               5.0000000000
      6016       188  AGLC      C6              4.8178710134      -22.6015935438       39.7357334439  LPSA6     8               5.0000000000
      6017       188  AGLC      H61             4.8325322616      -22.7544696306       38.6468043611  LPSA6     8               5.0000000000
      6018       188  AGLC      H62             5.8287210876      -22.3855357154       40.0276014644  LPSA6     8               5.0000000000
      6019       188  AGLC      O6              4.6744439419      -23.8699044100       40.3040784562  LPSA6     8               5.0000000000
      6020       188  AGLC      HO6             5.0330785014      -23.9143808557       41.2121845210  LPSA6     8               5.0000000000
      6021       189  AGAL      C1             -0.8824046026      -19.7158369384       41.4573847493  LPSA6     9               6.0000000000
      6022       189  AGAL      H1             -0.8761082219      -19.7635035463       40.3420235153  LPSA6     9               6.0000000000
      6023       189  AGAL      C5             -1.9460713617      -20.8226271432       43.2125447641  LPSA6     9               6.0000000000
      6024       189  AGAL      H5             -0.9355407863      -20.6155871455       43.7424973645  LPSA6     9               6.0000000000
      6025       189  AGAL      O5             -1.7144760975      -20.8525279011       41.8451689838  LPSA6     9               6.0000000000
      6026       189  AGAL      C2             -1.5791018136      -18.4368054270       41.8393925249  LPSA6     9               6.0000000000
      6027       189  AGAL      H2             -2.5714024753      -18.4328251613       41.4115621152  LPSA6     9               6.0000000000
      6028       189  AGAL      O2             -1.0233726458      -17.2946880661       41.1608705954  LPSA6     9               6.0000000000
      6029       189  AGAL      C3             -1.8500568140      -18.3669170348       43.3264191845  LPSA6     9               6.0000000000
      6030       189  AGAL      H3             -0.8502385437      -18.3183714539       43.9424563891  LPSA6     9               6.0000000000
      6031       189  AGAL      O3             -2.4079506796      -17.1592322518       43.7491515633  LPSA6     9               6.0000000000
      6032       189  AGAL      HO3            -2.0477110686      -16.4814526712       43.1585960960  LPSA6     9               6.0000000000
      6033       189  AGAL      C4             -2.6778175553      -19.5452150631       43.6505755014  LPSA6     9               6.0000000000
      6034       189  AGAL      H4             -2.8603611245      -19.6639026674       44.7734818408  LPSA6     9               6.0000000000
      6035       189  AGAL      O4             -3.9358380464      -19.5674045206       43.0499075873  LPSA6     9               6.0000000000
      6036       189  AGAL      HO4            -4.5233631158      -20.0367693584       43.6622427513  LPSA6     9               6.0000000000
      6037       189  AGAL      C6             -2.3695012709      -22.1539084123       43.8349081587  LPSA6     9               6.0000000000
      6038       189  AGAL      H61            -1.6473383712      -22.9885926495       43.6417203355  LPSA6     9               6.0000000000
      6039       189  AGAL      H62            -2.4450730509      -22.1455343221       44.9292747136  LPSA6     9               6.0000000000
      6040       189  AGAL      O6             -3.6416349789      -22.5360831282       43.4062227539  LPSA6     9               6.0000000000
      6041       189  AGAL      HO6            -3.5155831103      -23.1880902153       42.6923548993  LPSA6     9               6.0000000000
      6042       190  AGAL      C1             -0.6235351978      -16.0358241400       41.7517281777  LPSA6     10              7.0000000000
      6043       190  AGAL      H1             -1.5736505685      -15.4924302431       41.8429972083  LPSA6     10              7.0000000000
      6044       190  AGAL      C5              1.3196950730      -16.5827986529       43.0613392294  LPSA6     10              7.0000000000
      6045       190  AGAL      H5              1.1816737334      -17.6680524295       42.6233508762  LPSA6     10              7.0000000000
      6046       190  AGAL      O5              0.0307860438      -15.9397584504       43.0470213554  LPSA6     10              7.0000000000
      6047       190  AGAL      C2              0.2939258082      -15.3500365714       40.7227968417  LPSA6     10              7.0000000000
      6048       190  AGAL      H2              0.3218827992      -14.2372315748       41.0433947026  LPSA6     10              7.0000000000
      6049       190  AGAL      O2             -0.3355169299      -15.0521210786       39.5532095562  LPSA6     10              7.0000000000
      6050       190  AGAL      HO2            -0.2424048228      -14.1320816565       39.3379401176  LPSA6     10              7.0000000000
      6051       190  AGAL      C3              1.6506389377      -15.9578584664       40.6928251787  LPSA6     10              7.0000000000
      6052       190  AGAL      H3              1.4506117374      -17.0034948662       40.4679648945  LPSA6     10              7.0000000000
      6053       190  AGAL      O3              2.5379132569      -15.3956129736       39.7732034444  LPSA6     10              7.0000000000
      6054       190  AGAL      HO3             2.6237837923      -16.0250177602       39.0151094934  LPSA6     10              7.0000000000
      6055       190  AGAL      C4              2.2548333559      -15.8683533449       42.0524071915  LPSA6     10              7.0000000000
      6056       190  AGAL      H4              3.2224902185      -16.4032135008       42.1099272557  LPSA6     10              7.0000000000
      6057       190  AGAL      O4              2.4825736891      -14.5625354839       42.4965010455  LPSA6     10              7.0000000000
      6058       190  AGAL      HO4             1.6195701729      -14.1959231878       42.5675127347  LPSA6     10              7.0000000000
      6059       190  AGAL      C6              1.9608265442      -16.7909738452       44.3959537205  LPSA6     10              7.0000000000
      6060       190  AGAL      H61             1.2914632279      -17.2692973434       45.1044438806  LPSA6     10              7.0000000000
      6061       190  AGAL      H62             2.8409360826      -17.5871464612       44.2564473849  LPSA6     10              7.0000000000
      6062       190  AGAL      O6              2.5370518530      -15.6776453023       45.1112340130  LPSA6     10              7.0000000000
      6063       190  AGAL      HO6             2.0160167102      -15.5436485561       45.9237589285  LPSA6     10              7.0000000000
      6064       191  BGLC      C1              2.5107928067      -21.2800236709       44.5018065681  LPSA6     11              6.0000000000
      6065       191  BGLC      H1              3.5693610581      -21.4755754274       44.5883763758  LPSA6     11              6.0000000000
      6066       191  BGLC      C5              1.6676638857      -23.5558329153       45.1248117688  LPSA6     11              6.0000000000
      6067       191  BGLC      H5              2.7077714813      -23.9592559304       45.3871201921  LPSA6     11              6.0000000000
      6068       191  BGLC      O5              1.6887810917      -22.4414164298       44.0830650888  LPSA6     11              6.0000000000
      6069       191  BGLC      C2              1.9380833406      -20.7651074520       45.7977571702  LPSA6     11              6.0000000000
      6070       191  BGLC      H2              0.8985330396      -20.3560592982       45.7293388291  LPSA6     11              6.0000000000
      6071       191  BGLC      O2              2.7055096112      -19.6060922873       46.0886391483  LPSA6     11              6.0000000000
      6072       191  BGLC      HO2             2.1225229434      -18.8965066258       46.2788110113  LPSA6     11              6.0000000000
      6073       191  BGLC      C3              1.8770497176      -21.7682566854       46.8736276645  LPSA6     11              6.0000000000
      6074       191  BGLC      H3              2.9715867656      -22.0264172894       47.1984917368  LPSA6     11              6.0000000000
      6075       191  BGLC      O3              1.2751645014      -21.1509199173       48.0056213318  LPSA6     11              6.0000000000
      6076       191  BGLC      C4              1.1179895296      -22.9224190559       46.4390836423  LPSA6     11              6.0000000000
      6077       191  BGLC      H4              0.0702542173      -22.5356391506       46.2001611147  LPSA6     11              6.0000000000
      6078       191  BGLC      O4              0.9554755336      -23.8752351603       47.4766894645  LPSA6     11              6.0000000000
      6079       191  BGLC      HO4             0.3415788832      -23.5098886594       48.1247908570  LPSA6     11              6.0000000000
      6080       191  BGLC      C6              0.9623050204      -24.7864940131       44.5291127165  LPSA6     11              6.0000000000
      6081       191  BGLC      H61             0.6008281139      -25.5090617148       45.2481190913  LPSA6     11              6.0000000000
      6082       191  BGLC      H62             0.1279008266      -24.4013361921       43.8913252379  LPSA6     11              6.0000000000
      6083       191  BGLC      O6              1.7530660711      -25.5320365451       43.5637942269  LPSA6     11              6.0000000000
      6084       191  BGLC      HO6             1.9136936013      -26.3324158899       44.0054369298  LPSA6     11              6.0000000000
      6085       192  BGLCNA    C1              1.8687222034      -21.1825338695       49.3238540420  LPSA6     12              7.0000000000
      6086       192  BGLCNA    H1              2.5952758031      -20.3037249391       49.3874222992  LPSA6     12              7.0000000000
      6087       192  BGLCNA    C5              3.2546379136      -22.3723235793       50.8763077070  LPSA6     12              7.0000000000
      6088       192  BGLCNA    H5              4.0070879975      -21.4679301679       50.9814236466  LPSA6     12              7.0000000000
      6089       192  BGLCNA    O5              2.5894772179      -22.4071049313       49.5875345322  LPSA6     12              7.0000000000
      6090       192  BGLCNA    C2              0.7695409747      -21.0475058714       50.3245054808  LPSA6     12              7.0000000000
      6091       192  BGLCNA    H2              0.2066896314      -22.0752914356       50.3375086743  LPSA6     12              7.0000000000
      6092       192  BGLCNA    N              -0.0486504566      -19.8538197554       50.0347611965  LPSA6     12              7.0000000000
      6093       192  BGLCNA    HN              0.5261373121      -19.1049920405       49.9972643287  LPSA6     12              7.0000000000
      6094       192  BGLCNA    C              -1.3358995369      -19.9429583669       49.8903426450  LPSA6     12              7.0000000000
      6095       192  BGLCNA    O              -1.8983690895      -21.0111734242       50.0855928044  LPSA6     12              7.0000000000
      6096       192  BGLCNA    CT             -2.0697609052      -18.6769531219       49.5677689528  LPSA6     12              7.0000000000
      6097       192  BGLCNA    HT1            -2.7322783259      -18.3563634604       50.3918503408  LPSA6     12              7.0000000000
      6098       192  BGLCNA    HT2            -2.8545204901      -18.8789569656       48.7104760971  LPSA6     12              7.0000000000
      6099       192  BGLCNA    HT3            -1.2997487207      -17.9391723461       49.2316245990  LPSA6     12              7.0000000000
      6100       192  BGLCNA    C3              1.3155487533      -20.9770884368       51.6995695120  LPSA6     12              7.0000000000
      6101       192  BGLCNA    H3              1.9630152590      -19.9966698689       51.8605307917  LPSA6     12              7.0000000000
      6102       192  BGLCNA    O3              0.3034384256      -20.7947512408       52.7272334264  LPSA6     12              7.0000000000
      6103       192  BGLCNA    C4              2.1169786269      -22.2127630785       51.9591692987  LPSA6     12              7.0000000000
      6104       192  BGLCNA    H4              1.5115007472      -23.1950116873       51.9037868612  LPSA6     12              7.0000000000
      6105       192  BGLCNA    O4              2.6783546236      -22.2118209926       53.2294962294  LPSA6     12              7.0000000000
      6106       192  BGLCNA    HO4             3.4672461538      -21.5969655616       53.2834945119  LPSA6     12              7.0000000000
      6107       192  BGLCNA    C6              4.1397190953      -23.6329259673       50.9528560558  LPSA6     12              7.0000000000
      6108       192  BGLCNA    H61             4.5914923937      -23.7135677026       51.9144325068  LPSA6     12              7.0000000000
      6109       192  BGLCNA    H62             3.4264138543      -24.4402519361       50.8287962869  LPSA6     12              7.0000000000
      6110       192  BGLCNA    O6              5.0216143519      -23.6812298304       49.8597561973  LPSA6     12              7.0000000000
      6111       192  BGLCNA    HO6             5.7840658172      -23.2261380555       50.1903398796  LPSA6     12              7.0000000000
      6112       193  AGAL      C1              0.6425523236      -19.8732241053       53.8132743488  LPSA6     13              8.0000000000
      6113       193  AGAL      H1              1.6583203669      -20.1185285027       54.1959401301  LPSA6     13              8.0000000000
      6114       193  AGAL      C5             -1.0206543583      -18.2075871092       53.2950732168  LPSA6     13              8.0000000000
      6115       193  AGAL      H5             -1.3631563394      -18.9368303098       52.5641412600  LPSA6     13              8.0000000000
      6116       193  AGAL      O5              0.3794825878      -18.4608746978       53.4918445955  LPSA6     13              8.0000000000
      6117       193  AGAL      C2             -0.2009772175      -20.0832335801       55.1010141246  LPSA6     13              8.0000000000
      6118       193  AGAL      H2             -0.0009224499      -19.2396208827       55.7917211299  LPSA6     13              8.0000000000
      6119       193  AGAL      O2              0.1224251093      -21.2841688089       55.7701983428  LPSA6     13              8.0000000000
      6120       193  AGAL      C3             -1.7084431908      -19.7966029714       54.8979691660  LPSA6     13              8.0000000000
      6121       193  AGAL      H3             -2.0533707807      -20.3764042163       54.0477453328  LPSA6     13              8.0000000000
      6122       193  AGAL      O3             -2.5144098113      -20.2671135990       55.9888739531  LPSA6     13              8.0000000000
      6123       193  AGAL      HO3            -3.3297714693      -20.6526285036       55.6848713412  LPSA6     13              8.0000000000
      6124       193  AGAL      C4             -1.9073669141      -18.4336076744       54.5514025965  LPSA6     13              8.0000000000
      6125       193  AGAL      H4             -2.9914545324      -18.2480687743       54.1954731349  LPSA6     13              8.0000000000
      6126       193  AGAL      O4             -1.5595171395      -17.5262022796       55.5743212917  LPSA6     13              8.0000000000
      6127       193  AGAL      HO4            -0.7329133823      -17.6958574425       56.0499681296  LPSA6     13              8.0000000000
      6128       193  AGAL      C6             -1.3532292376      -16.9415137130       52.5301443486  LPSA6     13              8.0000000000
      6129       193  AGAL      H61            -0.7322036991      -16.8841341651       51.6253596531  LPSA6     13              8.0000000000
      6130       193  AGAL      H62            -2.4595919919      -16.9142084630       52.3684678279  LPSA6     13              8.0000000000
      6131       193  AGAL      O6             -1.0704670936      -15.7901859001       53.2985910507  LPSA6     13              8.0000000000
      6132       193  AGAL      HO6            -1.7944339003      -15.6559601790       53.9299633642  LPSA6     13              8.0000000000
      6133       194  ARHM      C1              0.7675511221      -21.2489181811       57.0117786358  LPSA6     14              9.0000000000
      6134       194  ARHM      H1              1.3489111328      -20.3036995445       56.9981767125  LPSA6     14              9.0000000000
      6135       194  ARHM      C5              1.0467120462      -23.5529152582       57.1930138837  LPSA6     14              9.0000000000
      6136       194  ARHM      H5              0.4703055726      -23.6457230116       56.1976867078  LPSA6     14              9.0000000000
      6137       194  ARHM      O5              1.6764010068      -22.3265330136       57.1718909996  LPSA6     14              9.0000000000
      6138       194  ARHM      C2             -0.2856411337      -21.2700168512       58.1413490634  LPSA6     14              9.0000000000
      6139       194  ARHM      H2             -0.9575904448      -20.4599265013       57.8875987320  LPSA6     14              9.0000000000
      6140       194  ARHM      O2              0.2234603145      -21.1331569467       59.4330148990  LPSA6     14              9.0000000000
      6141       194  ARHM      C3             -1.0101124230      -22.5846104508       58.1095432995  LPSA6     14              9.0000000000
      6142       194  ARHM      H3             -1.3359264783      -22.7718415821       57.0440121713  LPSA6     14              9.0000000000
      6143       194  ARHM      O3             -2.1867084511      -22.6251943887       58.8567888868  LPSA6     14              9.0000000000
      6144       194  ARHM      HO3            -1.8853928691      -22.6690489270       59.8104957846  LPSA6     14              9.0000000000
      6145       194  ARHM      C4              0.0072327058      -23.6405845183       58.3490442956  LPSA6     14              9.0000000000
      6146       194  ARHM      H4              0.6000651792      -23.5597007414       59.2902338481  LPSA6     14              9.0000000000
      6147       194  ARHM      O4             -0.6596499937      -24.9293259378       58.4446785014  LPSA6     14              9.0000000000
      6148       194  ARHM      HO4            -0.6401441152      -25.3614459595       59.2969967688  LPSA6     14              9.0000000000
      6149       194  ARHM      C6              2.0943637722      -24.6776030151       57.2492155848  LPSA6     14              9.0000000000
      6150       194  ARHM      H61             2.9820567983      -24.5410256483       56.5358243550  LPSA6     14              9.0000000000
      6151       194  ARHM      H62             2.3819308294      -24.7609028943       58.3170764683  LPSA6     14              9.0000000000
      6152       194  ARHM      H63             1.8175470018      -25.6889762447       56.9421594120  LPSA6     14              9.0000000000
      6153       195  ARHM      C1              1.0598446965      -20.1274753064       59.7267990175  LPSA6     15             10.0000000000
      6154       195  ARHM      H1              0.9065983457      -19.2625416804       59.0458905905  LPSA6     15             10.0000000000
      6155       195  ARHM      C5              2.9294272720      -21.4785955445       60.6468530148  LPSA6     15             10.0000000000
      6156       195  ARHM      H5              2.4770295346      -22.5003677786       60.4457705401  LPSA6     15             10.0000000000
      6157       195  ARHM      O5              2.4598699273      -20.4992089868       59.6688136410  LPSA6     15             10.0000000000
      6158       195  ARHM      C2              0.7762216776      -19.6248564087       61.1407671534  LPSA6     15             10.0000000000
      6159       195  ARHM      H2             -0.3624453874      -19.4400427252       61.2133420761  LPSA6     15             10.0000000000
      6160       195  ARHM      O2              1.5481166020      -18.4010554993       61.3234079317  LPSA6     15             10.0000000000
      6161       195  ARHM      C3              1.1543247178      -20.6931504280       62.1677656617  LPSA6     15             10.0000000000
      6162       195  ARHM      H3              0.6109156322      -21.6304669174       61.8628392879  LPSA6     15             10.0000000000
      6163       195  ARHM      O3              0.5292149093      -20.2708884457       63.4092175029  LPSA6     15             10.0000000000
      6164       195  ARHM      C4              2.5768216464      -20.9602005495       62.0487117432  LPSA6     15             10.0000000000
      6165       195  ARHM      H4              3.1446849106      -19.9502809601       62.1496903561  LPSA6     15             10.0000000000
      6166       195  ARHM      O4              3.1622321434      -21.8905758150       62.9635513464  LPSA6     15             10.0000000000
      6167       195  ARHM      HO4             4.0981679785      -21.7575996116       62.9565205260  LPSA6     15             10.0000000000
      6168       195  ARHM      C6              4.4091491660      -21.7120438649       60.4460959132  LPSA6     15             10.0000000000
      6169       195  ARHM      H61             4.8473133609      -22.5154511917       61.0956562646  LPSA6     15             10.0000000000
      6170       195  ARHM      H62             4.6243584365      -21.7968213772       59.3910198679  LPSA6     15             10.0000000000
      6171       195  ARHM      H63             5.0318723382      -20.8687307674       60.8578185328  LPSA6     15             10.0000000000
      6172       196  BMANNA    C1              1.3994224458      -17.6446066369       62.5145562334  LPSA6     16             11.0000000000
      6173       196  BMANNA    H1              1.9257863453      -18.2496574148       63.3432051365  LPSA6     16             11.0000000000
      6174       196  BMANNA    C5              0.0319615147      -16.7126811217       64.1851548173  LPSA6     16             11.0000000000
      6175       196  BMANNA    H5              0.5666703234      -17.2488990035       64.9800677769  LPSA6     16             11.0000000000
      6176       196  BMANNA    O5              0.0535897326      -17.4170234197       62.9158851071  LPSA6     16             11.0000000000
      6177       196  BMANNA    C2              2.1376542197      -16.3063104322       62.2781089586  LPSA6     16             11.0000000000
      6178       196  BMANNA    H2              3.1783459494      -16.6107322541       61.9912908466  LPSA6     16             11.0000000000
      6179       196  BMANNA    N               1.6420749269      -15.4137734173       61.2264456342  LPSA6     16             11.0000000000
      6180       196  BMANNA    HN              0.9679778368      -14.8014092270       61.5688724990  LPSA6     16             11.0000000000
      6181       196  BMANNA    C               2.0121477851      -15.4519366982       59.9704010620  LPSA6     16             11.0000000000
      6182       196  BMANNA    O               2.9117394184      -16.2344698525       59.5582221915  LPSA6     16             11.0000000000
      6183       196  BMANNA    CT              1.3024728137      -14.4987135524       59.1331689300  LPSA6     16             11.0000000000
      6184       196  BMANNA    HT1             1.8609144680      -13.6254331197       58.8344492748  LPSA6     16             11.0000000000
      6185       196  BMANNA    HT2             0.3463642323      -14.1309810067       59.5043001239  LPSA6     16             11.0000000000
      6186       196  BMANNA    HT3             1.0461853925      -14.9555407069       58.1231520073  LPSA6     16             11.0000000000
      6187       196  BMANNA    C3              2.1436913750      -15.6023832797       63.6119771117  LPSA6     16             11.0000000000
      6188       196  BMANNA    H3              2.6470901058      -16.2410864033       64.3839812837  LPSA6     16             11.0000000000
      6189       196  BMANNA    O3              2.8734181712      -14.4092824558       63.6122488842  LPSA6     16             11.0000000000
      6190       196  BMANNA    HO3             3.5311203989      -14.4169651953       64.2950500102  LPSA6     16             11.0000000000
      6191       196  BMANNA    C4              0.7158821509      -15.3341825042       64.1045846713  LPSA6     16             11.0000000000
      6192       196  BMANNA    H4              0.1538981615      -14.6785052109       63.4124605202  LPSA6     16             11.0000000000
      6193       196  BMANNA    O4              0.5732529696      -14.6860292066       65.3816866120  LPSA6     16             11.0000000000
      6194       196  BMANNA    HO4            -0.2700949098      -14.2386564287       65.4353184152  LPSA6     16             11.0000000000
      6195       196  BMANNA    C6             -1.3885733770      -16.5556097590       64.7427751243  LPSA6     16             11.0000000000
      6196       196  BMANNA    H61            -1.3007215774      -16.5429452667       65.8875394407  LPSA6     16             11.0000000000
      6197       196  BMANNA    H62            -1.8323179744      -15.6051160192       64.4389269682  LPSA6     16             11.0000000000
      6198       196  BMANNA    O6             -2.2924581781      -17.6134669223       64.3660927576  LPSA6     16             11.0000000000
      6199       196  BMANNA    HO6            -2.9997995633      -17.1118083144       63.9036969990  LPSA6     16             11.0000000000
      6200       197  BGLCNA    C1              0.0242986882      -21.2598317882       64.1715778089  LPSA6     17             11.0000000000
      6201       197  BGLCNA    H1              0.5889989632      -22.2433411590       63.9082176002  LPSA6     17             11.0000000000
      6202       197  BGLCNA    C5             -1.9662803796      -22.6240694980       64.5563394407  LPSA6     17             11.0000000000
      6203       197  BGLCNA    H5             -1.4487830188      -23.6184062808       64.2825289487  LPSA6     17             11.0000000000
      6204       197  BGLCNA    O5             -1.3416161983      -21.5868743132       63.7849982893  LPSA6     17             11.0000000000
      6205       197  BGLCNA    C2              0.1122541557      -20.8297810653       65.5899343931  LPSA6     17             11.0000000000
      6206       197  BGLCNA    H2             -0.4731253933      -19.8776487832       65.8249043900  LPSA6     17             11.0000000000
      6207       197  BGLCNA    N               1.4270084746      -20.4247133631       65.8849826081  LPSA6     17             11.0000000000
      6208       197  BGLCNA    HN              2.1962959024      -20.8970937810       65.4150135415  LPSA6     17             11.0000000000
      6209       197  BGLCNA    C               1.8732826171      -19.5874328637       66.8043620798  LPSA6     17             11.0000000000
      6210       197  BGLCNA    O               1.1146781295      -18.8955263633       67.4729873017  LPSA6     17             11.0000000000
      6211       197  BGLCNA    CT              3.3438627870      -19.5273584441       66.9728872304  LPSA6     17             11.0000000000
      6212       197  BGLCNA    HT1             3.9128306029      -18.6782144374       66.5529393721  LPSA6     17             11.0000000000
      6213       197  BGLCNA    HT2             3.7488943364      -20.5221783840       66.7043805047  LPSA6     17             11.0000000000
      6214       197  BGLCNA    HT3             3.6142685243      -19.4842140545       68.1408097225  LPSA6     17             11.0000000000
      6215       197  BGLCNA    C3             -0.4375209663      -21.9770231627       66.4076579941  LPSA6     17             11.0000000000
      6216       197  BGLCNA    H3              0.2102750800      -22.8437063960       66.0441361901  LPSA6     17             11.0000000000
      6217       197  BGLCNA    O3             -0.1178108450      -21.7063973750       67.8205355914  LPSA6     17             11.0000000000
      6218       197  BGLCNA    C4             -1.9036537537      -22.1764932813       66.0496966154  LPSA6     17             11.0000000000
      6219       197  BGLCNA    H4             -2.4893063603      -21.1933693862       66.1123142204  LPSA6     17             11.0000000000
      6220       197  BGLCNA    O4             -2.5536217770      -23.0817987066       66.9186044206  LPSA6     17             11.0000000000
      6221       197  BGLCNA    HO4            -3.4629227605      -23.2708658610       66.7204061560  LPSA6     17             11.0000000000
      6222       197  BGLCNA    C6             -3.4364247055      -22.7788520590       64.1200051697  LPSA6     17             11.0000000000
      6223       197  BGLCNA    H61            -3.7148347403      -23.8146671175       64.1272946536  LPSA6     17             11.0000000000
      6224       197  BGLCNA    H62            -4.1344979818      -22.2257247486       64.8212395067  LPSA6     17             11.0000000000
      6225       197  BGLCNA    O6             -3.6692304378      -22.2880232941       62.7926115083  LPSA6     17             11.0000000000
      6226       197  BGLCNA    HO6            -3.1155117441      -22.7662240356       62.1856770532  LPSA6     17             11.0000000000
      6227       198  AGAL      C1              0.2066413547      -22.8723781712       68.6198653987  LPSA6     18             12.0000000000
      6228       198  AGAL      H1             -0.7605342203      -23.4259661365       68.8082567594  LPSA6     18             12.0000000000
      6229       198  AGAL      C5              2.4702686300      -23.1401609222       67.8636918791  LPSA6     18             12.0000000000
      6230       198  AGAL      H5              2.3597680035      -22.1526329946       67.4068928888  LPSA6     18             12.0000000000
      6231       198  AGAL      O5              1.1265091141      -23.7321864472       67.9834320655  LPSA6     18             12.0000000000
      6232       198  AGAL      C2              0.8577182702      -22.4780904083       70.0000206359  LPSA6     18             12.0000000000
      6233       198  AGAL      H2              1.0357766703      -23.5063257617       70.3908489884  LPSA6     18             12.0000000000
      6234       198  AGAL      O2             -0.0891088042      -21.8977430299       70.8342757016  LPSA6     18             12.0000000000
      6235       198  AGAL      C3              2.1986886636      -21.8442567003       69.8682924558  LPSA6     18             12.0000000000
      6236       198  AGAL      H3              2.1158112706      -20.9760302042       69.0958348126  LPSA6     18             12.0000000000
      6237       198  AGAL      O3              2.6703822911      -21.3270078427       71.0758896640  LPSA6     18             12.0000000000
      6238       198  AGAL      HO3             3.0222020325      -20.4415868138       70.9682873819  LPSA6     18             12.0000000000
      6239       198  AGAL      C4              3.1002885877      -22.7747207338       69.1634745928  LPSA6     18             12.0000000000
      6240       198  AGAL      H4              4.1081756991      -22.3736726831       68.9039691178  LPSA6     18             12.0000000000
      6241       198  AGAL      O4              3.3527554313      -23.9526847426       69.9734134928  LPSA6     18             12.0000000000
      6242       198  AGAL      HO4             3.9976376863      -23.7061498190       70.7236544006  LPSA6     18             12.0000000000
      6243       198  AGAL      C6              3.1746955195      -23.8639407433       66.8042742825  LPSA6     18             12.0000000000
      6244       198  AGAL      H61             2.6027827831      -23.7105913139       65.8877991861  LPSA6     18             12.0000000000
      6245       198  AGAL      H62             4.1525693309      -23.3320128857       66.6499463921  LPSA6     18             12.0000000000
      6246       198  AGAL      O6              3.3167499339      -25.1796727744       66.9803033045  LPSA6     18             12.0000000000
      6247       198  AGAL      HO6             2.8078234422      -25.5920833104       67.6707071977  LPSA6     18             12.0000000000
      6248       199  ARHM      C1              0.0501476078      -22.4201349580       72.1803514454  LPSA6     19             13.0000000000
      6249       199  ARHM      H1              1.0222572942      -22.8491173660       72.3185909119  LPSA6     19             13.0000000000
      6250       199  ARHM      C5             -2.1480542093      -23.3067763723       72.2512180912  LPSA6     19             13.0000000000
      6251       199  ARHM      H5             -2.2742516261      -22.9037560816       71.2133247196  LPSA6     19             13.0000000000
      6252       199  ARHM      O5             -0.7561681324      -23.5831616394       72.4162684983  LPSA6     19             13.0000000000
      6253       199  ARHM      C2             -0.2895009437      -21.3145378249       73.1100514097  LPSA6     19             13.0000000000
      6254       199  ARHM      H2              0.2121740577      -20.3964782057       72.9420985559  LPSA6     19             13.0000000000
      6255       199  ARHM      O2             -0.0291984746      -21.7069617174       74.4131644751  LPSA6     19             13.0000000000
      6256       199  ARHM      C3             -1.8202514376      -21.0397135326       72.9859276785  LPSA6     19             13.0000000000
      6257       199  ARHM      H3             -2.0128811542      -20.7840305784       71.9471750908  LPSA6     19             13.0000000000
      6258       199  ARHM      O3             -2.2002571014      -19.9631315925       73.7644258584  LPSA6     19             13.0000000000
      6259       199  ARHM      HO3            -1.8443704367      -20.1186314134       74.6464134549  LPSA6     19             13.0000000000
      6260       199  ARHM      C4             -2.6426239590      -22.2308758089       73.2443334127  LPSA6     19             13.0000000000
      6261       199  ARHM      H4             -2.4066053312      -22.5404637968       74.2703943704  LPSA6     19             13.0000000000
      6262       199  ARHM      O4             -4.0195219399      -22.0341787654       73.1708570575  LPSA6     19             13.0000000000
      6263       199  ARHM      HO4            -4.2081973237      -21.8059582575       72.2126258713  LPSA6     19             13.0000000000
      6264       199  ARHM      C6             -2.9853410523      -24.5974002861       72.3031700958  LPSA6     19             13.0000000000
      6265       199  ARHM      H61            -2.5183150862      -25.1713367759       71.5186681997  LPSA6     19             13.0000000000
      6266       199  ARHM      H62            -2.9410521882      -25.1720239878       73.2001761489  LPSA6     19             13.0000000000
      6267       199  ARHM      H63            -4.0455684154      -24.4376750059       72.0875448643  LPSA6     19             13.0000000000
      6268       200  ARHM      C1              1.3306430459      -21.6839935720       74.6981797177  LPSA6     20             14.0000000000
      6269       200  ARHM      H1              1.9402737884      -21.1569423193       73.8936196974  LPSA6     20             14.0000000000
      6270       200  ARHM      C5              1.4950334792      -23.6919877081       75.9960310464  LPSA6     20             14.0000000000
      6271       200  ARHM      H5              0.3934340851      -23.7641519398       75.8071112250  LPSA6     20             14.0000000000
      6272       200  ARHM      O5              1.9798356162      -22.9439870499       74.8741575474  LPSA6     20             14.0000000000
      6273       200  ARHM      C2              1.5774570316      -20.8362509195       75.9438944127  LPSA6     20             14.0000000000
      6274       200  ARHM      H2              0.9724484543      -19.8482520382       75.7904987900  LPSA6     20             14.0000000000
      6275       200  ARHM      O2              2.9742082005      -20.5784336147       76.2145535291  LPSA6     20             14.0000000000
      6276       200  ARHM      C3              1.0667352220      -21.6206745239       77.0746584307  LPSA6     20             14.0000000000
      6277       200  ARHM      H3             -0.0654484630      -21.8031156970       76.9570890266  LPSA6     20             14.0000000000
      6278       200  ARHM      O3              1.2098282233      -20.7748075706       78.2431898216  LPSA6     20             14.0000000000
      6279       200  ARHM      C4              1.7439752801      -22.9427311006       77.2147849866  LPSA6     20             14.0000000000
      6280       200  ARHM      H4              2.8089989966      -22.8622770435       77.2882629629  LPSA6     20             14.0000000000
      6281       200  ARHM      O4              1.2827219661      -23.5786989216       78.4294019453  LPSA6     20             14.0000000000
      6282       200  ARHM      HO4             1.3783209698      -24.4399200600       78.0714846557  LPSA6     20             14.0000000000
      6283       200  ARHM      C6              2.0666773035      -25.0479665365       75.9818768401  LPSA6     20             14.0000000000
      6284       200  ARHM      H61             3.1881973846      -25.1794148670       76.0487105533  LPSA6     20             14.0000000000
      6285       200  ARHM      H62             1.5919956506      -25.6621212397       76.7492574554  LPSA6     20             14.0000000000
      6286       200  ARHM      H63             1.8797190310      -25.6270618782       75.0059134709  LPSA6     20             14.0000000000
      6287       201  BMANNA    C1              3.3148682455      -19.4793338740       75.4501725836  LPSA6     21             15.0000000000
      6288       201  BMANNA    H1              2.5037097324      -19.2408490312       74.6495731600  LPSA6     21             15.0000000000
      6289       201  BMANNA    C5              4.6455059018      -18.6563331311       73.6578092950  LPSA6     21             15.0000000000
      6290       201  BMANNA    H5              3.7148656443      -18.2892242477       73.0422409194  LPSA6     21             15.0000000000
      6291       201  BMANNA    O5              4.4254648317      -19.8054586309       74.5460975074  LPSA6     21             15.0000000000
      6292       201  BMANNA    C2              3.6555767951      -18.3180637186       76.3268603500  LPSA6     21             15.0000000000
      6293       201  BMANNA    H2              2.7169858379      -18.1788753341       76.8663433126  LPSA6     21             15.0000000000
      6294       201  BMANNA    N               4.7338984468      -18.6327623214       77.2602735953  LPSA6     21             15.0000000000
      6295       201  BMANNA    HN              5.5426247850      -18.9957531222       76.8630196157  LPSA6     21             15.0000000000
      6296       201  BMANNA    C               4.8028004630      -18.2052128912       78.6142451918  LPSA6     21             15.0000000000
      6297       201  BMANNA    O               4.0125080318      -17.3594567447       79.0340579138  LPSA6     21             15.0000000000
      6298       201  BMANNA    CT              5.9205360225      -18.7801538797       79.5125915666  LPSA6     21             15.0000000000
      6299       201  BMANNA    HT1             6.8599078765      -18.2171550513       79.3040814335  LPSA6     21             15.0000000000
      6300       201  BMANNA    HT2             5.9482843412      -19.8660587787       79.3224353366  LPSA6     21             15.0000000000
      6301       201  BMANNA    HT3             5.6649179540      -18.6201385085       80.6000991146  LPSA6     21             15.0000000000
      6302       201  BMANNA    C3              3.9082186178      -17.1478936805       75.4428482744  LPSA6     21             15.0000000000
      6303       201  BMANNA    H3              2.9271804931      -17.0135579391       75.0091666053  LPSA6     21             15.0000000000
      6304       201  BMANNA    O3              4.2148704274      -15.9723233343       76.1769203835  LPSA6     21             15.0000000000
      6305       201  BMANNA    HO3             4.9423090119      -16.1721533628       76.7354970047  LPSA6     21             15.0000000000
      6306       201  BMANNA    C4              5.0340682391      -17.4471116777       74.4866217523  LPSA6     21             15.0000000000
      6307       201  BMANNA    H4              6.1044994975      -17.5978773580       75.0002820064  LPSA6     21             15.0000000000
      6308       201  BMANNA    O4              5.2898352126      -16.3830972718       73.6152290754  LPSA6     21             15.0000000000
      6309       201  BMANNA    HO4             6.1841158706      -16.0061730510       73.7703874424  LPSA6     21             15.0000000000
      6310       201  BMANNA    C6              5.6160587112      -18.9484667346       72.6348027846  LPSA6     21             15.0000000000
      6311       201  BMANNA    H61             5.6804482699      -18.1669180571       71.8494922130  LPSA6     21             15.0000000000
      6312       201  BMANNA    H62             6.6511491801      -18.8277031237       73.0558617198  LPSA6     21             15.0000000000
      6313       201  BMANNA    O6              5.5924761791      -20.2225169646       72.0654385618  LPSA6     21             15.0000000000
      6314       201  BMANNA    HO6             5.6337123067      -20.8588238153       72.7784055652  LPSA6     21             15.0000000000
      6315       202  BGLCNA    C1              0.2346013045      -20.7750053088       79.2248726046  LPSA6     22             15.0000000000
      6316       202  BGLCNA    H1             -0.3735946074      -21.7252651516       79.2753119810  LPSA6     22             15.0000000000
      6317       202  BGLCNA    C5             -1.7688532228      -19.7816084843       80.1145289529  LPSA6     22             15.0000000000
      6318       202  BGLCNA    H5             -2.2317848671      -20.8562328169       80.0727605020  LPSA6     22             15.0000000000
      6319       202  BGLCNA    O5             -0.7243855519      -19.7683350825       79.0803056561  LPSA6     22             15.0000000000
      6320       202  BGLCNA    C2              0.9118974987      -20.6058047226       80.5602818744  LPSA6     22             15.0000000000
      6321       202  BGLCNA    H2              1.3937580602      -19.5691824295       80.4633107900  LPSA6     22             15.0000000000
      6322       202  BGLCNA    N               1.9100310505      -21.6444078275       80.7025670875  LPSA6     22             15.0000000000
      6323       202  BGLCNA    HN              1.6295913133      -22.5455493181       80.4501896382  LPSA6     22             15.0000000000
      6324       202  BGLCNA    C               3.0593412041      -21.5001318984       81.3295640408  LPSA6     22             15.0000000000
      6325       202  BGLCNA    O               3.3809086641      -20.4137098138       81.8448112003  LPSA6     22             15.0000000000
      6326       202  BGLCNA    CT              3.9413628831      -22.6926100188       81.4359073222  LPSA6     22             15.0000000000
      6327       202  BGLCNA    HT1             4.5386379410      -22.6092802393       80.5353412834  LPSA6     22             15.0000000000
      6328       202  BGLCNA    HT2             3.3035176417      -23.5918173353       81.2752873926  LPSA6     22             15.0000000000
      6329       202  BGLCNA    HT3             4.4499897518      -22.8223665459       82.3679651303  LPSA6     22             15.0000000000
      6330       202  BGLCNA    C3             -0.0973851754      -20.5975257387       81.6855161512  LPSA6     22             15.0000000000
      6331       202  BGLCNA    H3             -0.6692985562      -21.5583080600       81.6419517197  LPSA6     22             15.0000000000
      6332       202  BGLCNA    O3              0.6621707860      -20.5665018204       82.8729300216  LPSA6     22             15.0000000000
      6333       202  BGLCNA    C4             -1.1330029769      -19.4893612075       81.4704242134  LPSA6     22             15.0000000000
      6334       202  BGLCNA    H4             -0.5801314588      -18.5888059052       81.4144045074  LPSA6     22             15.0000000000
      6335       202  BGLCNA    O4             -2.0784982771      -19.4088172547       82.5140850489  LPSA6     22             15.0000000000
      6336       202  BGLCNA    HO4            -2.2477694050      -18.4717936432       82.7130071916  LPSA6     22             15.0000000000
      6337       202  BGLCNA    C6             -2.7866912545      -18.7176212662       79.7284495560  LPSA6     22             15.0000000000
      6338       202  BGLCNA    H61            -3.3439289383      -18.5260276194       80.6924177192  LPSA6     22             15.0000000000
      6339       202  BGLCNA    H62            -2.2914760898      -17.7590639855       79.4648784538  LPSA6     22             15.0000000000
      6340       202  BGLCNA    O6             -3.7404646301      -19.1325535061       78.8100863794  LPSA6     22             15.0000000000
      6341       202  BGLCNA    HO6            -3.2952389570      -19.4292461754       78.0328486455  LPSA6     22             15.0000000000
      6342       203  AGAL      C1              0.0913429503      -20.9744171244       84.0628261254  LPSA6     23             16.0000000000
      6343       203  AGAL      H1             -0.5941933307      -20.2027261534       84.5106287163  LPSA6     23             16.0000000000
      6344       203  AGAL      C5              0.1956998733      -23.3338665817       83.7583018441  LPSA6     23             16.0000000000
      6345       203  AGAL      H5              0.8538144684      -23.1179508028       82.8366412438  LPSA6     23             16.0000000000
      6346       203  AGAL      O5             -0.6237632919      -22.2124823475       83.9976212264  LPSA6     23             16.0000000000
      6347       203  AGAL      C2              1.1486938470      -21.1090677269       85.1427633740  LPSA6     23             16.0000000000
      6348       203  AGAL      H2              0.6045504293      -21.4128498026       86.0076373284  LPSA6     23             16.0000000000
      6349       203  AGAL      O2              1.7631305830      -19.8942054865       85.5000844886  LPSA6     23             16.0000000000
      6350       203  AGAL      C3              2.0721834614      -22.2563918134       84.9194901020  LPSA6     23             16.0000000000
      6351       203  AGAL      H3              2.4629218080      -22.1224794967       83.8641570193  LPSA6     23             16.0000000000
      6352       203  AGAL      O3              3.2019349719      -22.2970536922       85.7108298168  LPSA6     23             16.0000000000
      6353       203  AGAL      HO3             2.8670794868      -22.1289996204       86.6206525111  LPSA6     23             16.0000000000
      6354       203  AGAL      C4              1.2430429963      -23.5053990096       84.8901212015  LPSA6     23             16.0000000000
      6355       203  AGAL      H4              1.8417433436      -24.4133949433       84.6506069022  LPSA6     23             16.0000000000
      6356       203  AGAL      O4              0.6277671008      -23.8798332931       86.1132943683  LPSA6     23             16.0000000000
      6357       203  AGAL      HO4            -0.1494183685      -24.2416166516       85.8278371007  LPSA6     23             16.0000000000
      6358       203  AGAL      C6             -0.6228710126      -24.5215570701       83.3278962909  LPSA6     23             16.0000000000
      6359       203  AGAL      H61            -1.3373118995      -24.2204331236       82.6074235255  LPSA6     23             16.0000000000
      6360       203  AGAL      H62            -0.0387998994      -25.2531472709       82.7620574208  LPSA6     23             16.0000000000
      6361       203  AGAL      O6             -1.3339498041      -25.0390886233       84.3845202183  LPSA6     23             16.0000000000
      6362       203  AGAL      HO6            -1.9037275468      -25.7639507289       84.1740981585  LPSA6     23             16.0000000000
      6363       204  ARHM      C1              1.1550346440      -18.8824654295       86.2818185944  LPSA6     24             17.0000000000
      6364       204  ARHM      H1              0.1132966963      -19.1243491071       86.3680542693  LPSA6     24             17.0000000000
      6365       204  ARHM      C5              2.5271352331      -17.0273757609       85.6157638072  LPSA6     24             17.0000000000
      6366       204  ARHM      H5              3.0869792787      -17.7053649934       85.0070975499  LPSA6     24             17.0000000000
      6367       204  ARHM      O5              1.1954689072      -17.4671734370       85.8657410059  LPSA6     24             17.0000000000
      6368       204  ARHM      C2              1.8554509506      -19.0245333776       87.5921581840  LPSA6     24             17.0000000000
      6369       204  ARHM      H2              1.9388970246      -20.0507019748       87.8984046741  LPSA6     24             17.0000000000
      6370       204  ARHM      O2              1.2952330117      -18.1702857136       88.6075763533  LPSA6     24             17.0000000000
      6371       204  ARHM      C3              3.2941778016      -18.5163848209       87.4133527752  LPSA6     24             17.0000000000
      6372       204  ARHM      H3              3.7390164343      -19.1790867870       86.6640279609  LPSA6     24             17.0000000000
      6373       204  ARHM      O3              4.1553867641      -18.7348429842       88.5620392964  LPSA6     24             17.0000000000
      6374       204  ARHM      HO3             4.0212674091      -17.9577806792       89.1463757531  LPSA6     24             17.0000000000
      6375       204  ARHM      C4              3.3243525188      -17.0691946056       86.9402325015  LPSA6     24             17.0000000000
      6376       204  ARHM      H4              2.7186794268      -16.4398519369       87.7071552895  LPSA6     24             17.0000000000
      6377       204  ARHM      O4              4.6150879631      -16.5079763909       86.8379508285  LPSA6     24             17.0000000000
      6378       204  ARHM      HO4             4.6559101889      -15.5834575063       87.0219124236  LPSA6     24             17.0000000000
      6379       204  ARHM      C6              2.5902125959      -15.6066740369       84.9175891319  LPSA6     24             17.0000000000
      6380       204  ARHM      H61             3.5365440291      -15.5244791383       84.3853494017  LPSA6     24             17.0000000000
      6381       204  ARHM      H62             1.7751601776      -15.5849731423       84.2649634992  LPSA6     24             17.0000000000
      6382       204  ARHM      H63             2.3904856187      -14.7831084438       85.6811466487  LPSA6     24             17.0000000000
      6383       205  ARHM      C1              0.1163068119      -18.7464289590       89.1588742089  LPSA6     25             18.0000000000
      6384       205  ARHM      H1             -0.2946480602      -19.4445155062       88.4722246341  LPSA6     25             18.0000000000
      6385       205  ARHM      C5             -0.6734676559      -16.7256625846       90.1670531641  LPSA6     25             18.0000000000
      6386       205  ARHM      H5              0.1716611291      -16.1554059959       89.8870230824  LPSA6     25             18.0000000000
      6387       205  ARHM      O5             -0.9582725730      -17.7886591082       89.2315309535  LPSA6     25             18.0000000000
      6388       205  ARHM      C2              0.4406887259      -19.3500798322       90.4685713243  LPSA6     25             18.0000000000
      6389       205  ARHM      H2              1.3734467121      -19.9964196804       90.3413143991  LPSA6     25             18.0000000000
      6390       205  ARHM      O2             -0.6855415704      -20.1569731296       90.9328696740  LPSA6     25             18.0000000000
      6391       205  ARHM      C3              0.6939406854      -18.1651763419       91.4562257518  LPSA6     25             18.0000000000
      6392       205  ARHM      H3              1.5845791084      -17.6099818373       91.0689171631  LPSA6     25             18.0000000000
      6393       205  ARHM      O3              1.0325206218      -18.7593177669       92.6920647463  LPSA6     25             18.0000000000
      6394       205  ARHM      C4             -0.4056916498      -17.2591254722       91.5960769721  LPSA6     25             18.0000000000
      6395       205  ARHM      H4             -1.3931304412      -17.8107048766       91.8876801091  LPSA6     25             18.0000000000
      6396       205  ARHM      O4             -0.0317237456      -16.3009738215       92.5862492282  LPSA6     25             18.0000000000
      6397       205  ARHM      HO4            -0.8464853819      -16.1105944379       93.0149361445  LPSA6     25             18.0000000000
      6398       205  ARHM      C6             -1.7922473715      -15.6858620715       90.2083352735  LPSA6     25             18.0000000000
      6399       205  ARHM      H61            -2.0850892910      -15.3464106838       89.1912344565  LPSA6     25             18.0000000000
      6400       205  ARHM      H62            -2.7425518917      -16.0697929021       90.6686969550  LPSA6     25             18.0000000000
      6401       205  ARHM      H63            -1.5215879711      -14.7456591216       90.8233913566  LPSA6     25             18.0000000000
      6402       206  BMANNA    C1             -0.7805366496      -21.4178482637       90.3138108879  LPSA6     26             19.0000000000
      6403       206  BMANNA    H1              0.1958661570      -21.7297166784       89.8388342826  LPSA6     26             19.0000000000
      6404       206  BMANNA    C5             -1.7305877469      -22.8188224235       88.6312665858  LPSA6     26             19.0000000000
      6405       206  BMANNA    H5             -0.7473666233      -22.9446825394       88.1771240033  LPSA6     26             19.0000000000
      6406       206  BMANNA    O5             -1.7492034426      -21.5187817637       89.2346891933  LPSA6     26             19.0000000000
      6407       206  BMANNA    C2             -1.1102578179      -22.3788641377       91.3475147821  LPSA6     26             19.0000000000
      6408       206  BMANNA    H2             -0.2678731863      -22.2796276212       92.1081287357  LPSA6     26             19.0000000000
      6409       206  BMANNA    N              -2.4232299434      -22.0127390433       91.9238920796  LPSA6     26             19.0000000000
      6410       206  BMANNA    HN             -3.1527492241      -21.9434517059       91.3050515894  LPSA6     26             19.0000000000
      6411       206  BMANNA    C              -2.6732551631      -21.8770750204       93.1798471680  LPSA6     26             19.0000000000
      6412       206  BMANNA    O              -1.7386898818      -21.8640922089       94.0003587425  LPSA6     26             19.0000000000
      6413       206  BMANNA    CT             -4.1134753261      -21.7549913147       93.6758917343  LPSA6     26             19.0000000000
      6414       206  BMANNA    HT1            -4.6894940252      -21.4227992813       92.8666282051  LPSA6     26             19.0000000000
      6415       206  BMANNA    HT2            -4.3833344734      -21.2566913580       94.6620984389  LPSA6     26             19.0000000000
      6416       206  BMANNA    HT3            -4.4374873268      -22.7884266003       93.8484898219  LPSA6     26             19.0000000000
      6417       206  BMANNA    C3             -1.0518790351      -23.7699750013       90.7100883268  LPSA6     26             19.0000000000
      6418       206  BMANNA    H3             -0.0091849705      -23.9309483912       90.3384445889  LPSA6     26             19.0000000000
      6419       206  BMANNA    O3             -1.2607447504      -24.7489871758       91.7636866611  LPSA6     26             19.0000000000
      6420       206  BMANNA    HO3            -0.4316268096      -24.7283678283       92.2265744207  LPSA6     26             19.0000000000
      6421       206  BMANNA    C4             -2.0039125232      -23.8315893032       89.6481622736  LPSA6     26             19.0000000000
      6422       206  BMANNA    H4             -3.0909946971      -23.6662764207       89.9013799111  LPSA6     26             19.0000000000
      6423       206  BMANNA    O4             -2.0161866512      -25.1161536678       89.0416847738  LPSA6     26             19.0000000000
      6424       206  BMANNA    HO4            -2.5821728231      -25.6873418632       89.5591157304  LPSA6     26             19.0000000000
      6425       206  BMANNA    C6             -2.6638224256      -22.6860738632       87.3900617492  LPSA6     26             19.0000000000
      6426       206  BMANNA    H61            -2.5831389553      -21.6903702356       86.9191763972  LPSA6     26             19.0000000000
      6427       206  BMANNA    H62            -2.4456431123      -23.4116441782       86.6504270337  LPSA6     26             19.0000000000
      6428       206  BMANNA    O6             -4.0318010985      -22.8784276946       87.7329108337  LPSA6     26             19.0000000000
      6429       206  BMANNA    HO6            -4.1356632469      -23.6987197600       88.1688153196  LPSA6     26             19.0000000000
      6430       207  BGLCNA    C1              2.0730731839      -18.3717887836       93.4616184899  LPSA6     27             19.0000000000
      6431       207  BGLCNA    H1              2.1856397612      -17.2923393913       93.4392217979  LPSA6     27             19.0000000000
      6432       207  BGLCNA    C5              4.3939210246      -18.4104695194       93.9656603721  LPSA6     27             19.0000000000
      6433       207  BGLCNA    H5              4.3475954751      -17.2912940972       93.9564344452  LPSA6     27             19.0000000000
      6434       207  BGLCNA    O5              3.3723241162      -18.8512823711       93.0607755266  LPSA6     27             19.0000000000
      6435       207  BGLCNA    C2              1.7320233689      -18.8325013488       94.8806799918  LPSA6     27             19.0000000000
      6436       207  BGLCNA    H2              1.7511405613      -19.9361112433       94.8757458582  LPSA6     27             19.0000000000
      6437       207  BGLCNA    N               0.4032663099      -18.3818242616       95.2501113516  LPSA6     27             19.0000000000
      6438       207  BGLCNA    HN              0.2018655719      -17.3607556869       95.0827132934  LPSA6     27             19.0000000000
      6439       207  BGLCNA    C              -0.3741240101      -19.2972926202       95.9523160909  LPSA6     27             19.0000000000
      6440       207  BGLCNA    O               0.0479718916      -20.3480284032       96.5238801166  LPSA6     27             19.0000000000
      6441       207  BGLCNA    CT             -1.8840317361      -18.9120715622       96.0293745529  LPSA6     27             19.0000000000
      6442       207  BGLCNA    HT1            -2.1021956517      -18.0332463894       95.3635606282  LPSA6     27             19.0000000000
      6443       207  BGLCNA    HT2            -2.2573245098      -18.7545639313       97.0167906789  LPSA6     27             19.0000000000
      6444       207  BGLCNA    HT3            -2.4771506610      -19.8540373031       95.7039804309  LPSA6     27             19.0000000000
      6445       207  BGLCNA    C3              2.7933891445      -18.3697735955       95.7540348103  LPSA6     27             19.0000000000
      6446       207  BGLCNA    H3              2.8965281380      -17.2562021166       95.7401190096  LPSA6     27             19.0000000000
      6447       207  BGLCNA    O3              2.3504388126      -18.8256688494       97.0775356047  LPSA6     27             19.0000000000
      6448       207  BGLCNA    C4              4.1796417971      -18.9076166327       95.3486864533  LPSA6     27             19.0000000000
      6449       207  BGLCNA    H4              4.1467127016      -20.0207645526       95.3090014479  LPSA6     27             19.0000000000
      6450       207  BGLCNA    O4              5.1660856156      -18.4828119056       96.2156872787  LPSA6     27             19.0000000000
      6451       207  BGLCNA    HO4             5.2477009205      -17.5717213021       96.0162444362  LPSA6     27             19.0000000000
      6452       207  BGLCNA    C6              5.7511713046      -18.7972793353       93.2852949846  LPSA6     27             19.0000000000
      6453       207  BGLCNA    H61             6.5163405527      -18.2626056116       93.8557506920  LPSA6     27             19.0000000000
      6454       207  BGLCNA    H62             5.9708137829      -19.8747872095       93.4725180191  LPSA6     27             19.0000000000
      6455       207  BGLCNA    O6              5.7568680335      -18.4620833338       91.9076175409  LPSA6     27             19.0000000000
      6456       207  BGLCNA    HO6             6.6160752665      -18.7486644578       91.5273290588  LPSA6     27             19.0000000000
      6457       208  AGAL      C1              2.9508496601      -18.2496730749       98.2622020222  LPSA6     28             20.0000000000
      6458       208  AGAL      H1              3.9550254585      -18.5760918216       98.3007149491  LPSA6     28             20.0000000000
      6459       208  AGAL      C5              1.6933262246      -16.1787780744       98.1710438288  LPSA6     28             20.0000000000
      6460       208  AGAL      H5              0.9120486875      -16.7389601924       97.4646141937  LPSA6     28             20.0000000000
      6461       208  AGAL      O5              3.0263000931      -16.8333926709       98.1147365872  LPSA6     28             20.0000000000
      6462       208  AGAL      C2              2.2777890144      -18.5170684669       99.6197190629  LPSA6     28             20.0000000000
      6463       208  AGAL      H2              2.9319252246      -17.9714266038      100.2965066153  LPSA6     28             20.0000000000
      6464       208  AGAL      O2              2.2701085880      -19.8602253019      100.0788731798  LPSA6     28             20.0000000000
      6465       208  AGAL      C3              0.9311780120      -17.8755651769       99.7396972452  LPSA6     28             20.0000000000
      6466       208  AGAL      H3              0.3064813637      -18.2306765892       98.8607737785  LPSA6     28             20.0000000000
      6467       208  AGAL      O3              0.1267081050      -18.1453749700      100.9043404272  LPSA6     28             20.0000000000
      6468       208  AGAL      HO3            -0.6657125648      -18.6019067835      100.5606486229  LPSA6     28             20.0000000000
      6469       208  AGAL      C4              1.0695070014      -16.4238298781       99.5102226768  LPSA6     28             20.0000000000
      6470       208  AGAL      H4              0.0925835273      -16.0035967585       99.4798298294  LPSA6     28             20.0000000000
      6471       208  AGAL      O4              1.8300599720      -15.7706363244      100.4757933835  LPSA6     28             20.0000000000
      6472       208  AGAL      HO4             1.2203190869      -15.3494414060      101.0376442747  LPSA6     28             20.0000000000
      6473       208  AGAL      C6              1.6623820795      -14.7443115122       97.6362902244  LPSA6     28             20.0000000000
      6474       208  AGAL      H61             1.9271359132      -14.7524989661       96.5809275898  LPSA6     28             20.0000000000
      6475       208  AGAL      H62             0.6774345902      -14.1625281521       97.7651048223  LPSA6     28             20.0000000000
      6476       208  AGAL      O6              2.5944329191      -13.9546990450       98.3456070822  LPSA6     28             20.0000000000
      6477       208  AGAL      HO6             3.4605900337      -14.0217934600       97.9416813930  LPSA6     28             20.0000000000
      6478       209  ARHM      C1              2.6280346874      -19.8788182477      101.4808913342  LPSA6     29             21.0000000000
      6479       209  ARHM      H1              2.3310992052      -18.9088094969      101.9964955809  LPSA6     29             21.0000000000
      6480       209  ARHM      C5              4.4696681994      -21.2970546159      101.1486206043  LPSA6     29             21.0000000000
      6481       209  ARHM      H5              4.1306522074      -21.3077859546      100.0935446791  LPSA6     29             21.0000000000
      6482       209  ARHM      O5              3.9961535319      -20.0936597788      101.6833506475  LPSA6     29             21.0000000000
      6483       209  ARHM      C2              1.8265503560      -20.9091340528      102.1437305515  LPSA6     29             21.0000000000
      6484       209  ARHM      H2              0.7864851162      -20.8165604784      101.9067628034  LPSA6     29             21.0000000000
      6485       209  ARHM      O2              1.9635408366      -20.8667595241      103.5748524404  LPSA6     29             21.0000000000
      6486       209  ARHM      C3              2.2890728486      -22.2426180001      101.6289418068  LPSA6     29             21.0000000000
      6487       209  ARHM      H3              2.0348141126      -22.3169741168      100.4952263366  LPSA6     29             21.0000000000
      6488       209  ARHM      O3              1.4826209869      -23.2371657782      102.1995749427  LPSA6     29             21.0000000000
      6489       209  ARHM      HO3             1.9868008784      -23.9784084806      102.2092645043  LPSA6     29             21.0000000000
      6490       209  ARHM      C4              3.7201824980      -22.4898680768      101.8247918557  LPSA6     29             21.0000000000
      6491       209  ARHM      H4              3.9937449585      -22.5349797961      102.9338171738  LPSA6     29             21.0000000000
      6492       209  ARHM      O4              4.2525256299      -23.7454483862      101.3452167393  LPSA6     29             21.0000000000
      6493       209  ARHM      HO4             3.9183294107      -24.0117670395      100.4362974805  LPSA6     29             21.0000000000
      6494       209  ARHM      C6              6.0061094336      -21.2406119576      101.2162231226  LPSA6     29             21.0000000000
      6495       209  ARHM      H61             6.2396535595      -20.2075238787      100.7685423143  LPSA6     29             21.0000000000
      6496       209  ARHM      H62             6.3194123619      -21.2410816896      102.3013153741  LPSA6     29             21.0000000000
      6497       209  ARHM      H63             6.4154838861      -22.0538749035      100.6072571094  LPSA6     29             21.0000000000
      6498       210  ARHM      C1              1.0391608124      -20.2249232322      104.3945976075  LPSA6     30             22.0000000000
      6499       210  ARHM      H1              0.0357013854      -20.6673230873      104.2094096401  LPSA6     30             22.0000000000
      6500       210  ARHM      C5              2.2699253807      -18.1285700504      104.5143062533  LPSA6     30             22.0000000000
      6501       210  ARHM      H5              3.0063099099      -18.7434549533      103.8668162917  LPSA6     30             22.0000000000
      6502       210  ARHM      O5              1.0132397736      -18.7943273040      104.2052433351  LPSA6     30             22.0000000000
      6503       210  ARHM      C2              1.3914822662      -20.4901407418      105.8471183130  LPSA6     30             22.0000000000
      6504       210  ARHM      H2              1.4394424134      -21.5142281444      106.0289718167  LPSA6     30             22.0000000000
      6505       210  ARHM      O2              0.4199394065      -19.8258702586      106.5813641610  LPSA6     30             22.0000000000
      6506       210  ARHM      C3              2.6400666555      -19.8338274233      106.2079894766  LPSA6     30             22.0000000000
      6507       210  ARHM      H3              3.3892463306      -20.1349848307      105.5270001340  LPSA6     30             22.0000000000
      6508       210  ARHM      O3              3.1212732915      -20.1792586189      107.5373891676  LPSA6     30             22.0000000000
      6509       210  ARHM      C4              2.5949665714      -18.3206779781      105.9708288384  LPSA6     30             22.0000000000
      6510       210  ARHM      H4              1.8079599369      -17.8217303089      106.5400372406  LPSA6     30             22.0000000000
      6511       210  ARHM      O4              3.7196534401      -17.6335888936      106.2997755749  LPSA6     30             22.0000000000
      6512       210  ARHM      HO4             4.4739733413      -17.6293836243      105.6964454668  LPSA6     30             22.0000000000
      6513       210  ARHM      C6              2.2098661249      -16.6849188004      104.0930490251  LPSA6     30             22.0000000000
      6514       210  ARHM      H61             3.2472421586      -16.2655418503      104.2143179997  LPSA6     30             22.0000000000
      6515       210  ARHM      H62             2.0620193072      -16.6402026133      103.0019050467  LPSA6     30             22.0000000000
      6516       210  ARHM      H63             1.4294685673      -16.0750039185      104.6493652223  LPSA6     30             22.0000000000
      6517       211  BMANNA    C1             -0.7070852312      -20.5892684338      106.9502319096  LPSA6     31             23.0000000000
      6518       211  BMANNA    H1             -0.3600522579      -21.6268480222      107.1550799008  LPSA6     31             23.0000000000
      6519       211  BMANNA    C5             -2.8414152606      -21.4909636263      106.2136717625  LPSA6     31             23.0000000000
      6520       211  BMANNA    H5             -2.4067047560      -22.4440514570      106.5467054000  LPSA6     31             23.0000000000
      6521       211  BMANNA    O5             -1.7033554005      -20.6459026184      105.8742289322  LPSA6     31             23.0000000000
      6522       211  BMANNA    C2             -1.3470205391      -19.9956784129      108.0830629221  LPSA6     31             23.0000000000
      6523       211  BMANNA    H2             -0.6077596845      -20.0725875153      108.9031915743  LPSA6     31             23.0000000000
      6524       211  BMANNA    N              -1.5758329983      -18.6159864256      107.8252935315  LPSA6     31             23.0000000000
      6525       211  BMANNA    HN             -1.6672311819      -18.3308183008      106.8111160773  LPSA6     31             23.0000000000
      6526       211  BMANNA    C              -1.6257873925      -17.6905073201      108.7868858964  LPSA6     31             23.0000000000
      6527       211  BMANNA    O              -1.4012955048      -17.9582468965      109.9536662434  LPSA6     31             23.0000000000
      6528       211  BMANNA    CT             -1.9658604740      -16.2655978707      108.3237946568  LPSA6     31             23.0000000000
      6529       211  BMANNA    HT1            -2.7122558492      -16.3341534552      107.5739831696  LPSA6     31             23.0000000000
      6530       211  BMANNA    HT2            -1.0462263628      -15.8152847914      107.9347099034  LPSA6     31             23.0000000000
      6531       211  BMANNA    HT3            -2.2351271402      -15.6230743905      109.1768357935  LPSA6     31             23.0000000000
      6532       211  BMANNA    C3             -2.5166395999      -20.8315831488      108.4884560283  LPSA6     31             23.0000000000
      6533       211  BMANNA    H3             -2.2126743121      -21.9244594271      108.6988550870  LPSA6     31             23.0000000000
      6534       211  BMANNA    O3             -3.0606135546      -20.4125984723      109.7404994872  LPSA6     31             23.0000000000
      6535       211  BMANNA    HO3            -2.3050887419      -19.9244213003      110.0111610137  LPSA6     31             23.0000000000
      6536       211  BMANNA    C4             -3.5343032615      -20.8524116644      107.4199857710  LPSA6     31             23.0000000000
      6537       211  BMANNA    H4             -3.9519437276      -19.7985622163      107.0572414185  LPSA6     31             23.0000000000
      6538       211  BMANNA    O4             -4.6713640795      -21.5848966802      107.8525671122  LPSA6     31             23.0000000000
      6539       211  BMANNA    HO4            -4.4331553635      -22.4757333379      108.1943429300  LPSA6     31             23.0000000000
      6540       211  BMANNA    C6             -3.8312913490      -21.6722175652      105.0512686782  LPSA6     31             23.0000000000
      6541       211  BMANNA    H61            -4.5712202141      -22.5217158651      105.3397811046  LPSA6     31             23.0000000000
      6542       211  BMANNA    H62            -4.4332025132      -20.7864197998      104.8698551944  LPSA6     31             23.0000000000
      6543       211  BMANNA    O6             -3.1606234617      -22.0202541660      103.8241467834  LPSA6     31             23.0000000000
      6544       211  BMANNA    HO6            -2.7831364046      -22.9453182023      103.8134147631  LPSA6     31             23.0000000000
      6545       212  BGLCNA    C1              2.5572691554      -19.5013884103      108.6103969990  LPSA6     32             23.0000000000
      6546       212  BGLCNA    H1              1.4573958832      -19.2773391483      108.4325564695  LPSA6     32             23.0000000000
      6547       212  BGLCNA    C5              2.5157922750      -17.4749679547      109.9277617404  LPSA6     32             23.0000000000
      6548       212  BGLCNA    H5              1.4419476271      -17.3454821799      109.5374749077  LPSA6     32             23.0000000000
      6549       212  BGLCNA    O5              3.1879177564      -18.2636711237      108.9423333575  LPSA6     32             23.0000000000
      6550       212  BGLCNA    C2              2.5717758417      -20.3304376271      109.8194522937  LPSA6     32             23.0000000000
      6551       212  BGLCNA    H2              3.5966150100      -20.3630667716      110.1044894257  LPSA6     32             23.0000000000
      6552       212  BGLCNA    N               2.0736455864      -21.6450365137      109.5956973249  LPSA6     32             23.0000000000
      6553       212  BGLCNA    HN              1.3463564840      -21.6058025429      108.8809076996  LPSA6     32             23.0000000000
      6554       212  BGLCNA    C               2.5068308223      -22.8282924034      110.0864625708  LPSA6     32             23.0000000000
      6555       212  BGLCNA    O               3.3999837634      -22.9034841499      110.9304085025  LPSA6     32             23.0000000000
      6556       212  BGLCNA    CT              1.7957807730      -24.1043634321      109.5841031968  LPSA6     32             23.0000000000
      6557       212  BGLCNA    HT1             1.2715834385      -23.6749746288      108.6281101354  LPSA6     32             23.0000000000
      6558       212  BGLCNA    HT2             1.0121345466      -24.4845921591      110.1898124037  LPSA6     32             23.0000000000
      6559       212  BGLCNA    HT3             2.5106598633      -24.9188578933      109.3122359934  LPSA6     32             23.0000000000
      6560       212  BGLCNA    C3              1.8041247904      -19.6177882935      110.8930231790  LPSA6     32             23.0000000000
      6561       212  BGLCNA    H3              0.8744543744      -19.3809377978      110.4606187373  LPSA6     32             23.0000000000
      6562       212  BGLCNA    O3              1.5502141178      -20.4084512880      112.0657798240  LPSA6     32             23.0000000000
      6563       212  BGLCNA    C4              2.5227748638      -18.3257754692      111.1707572500  LPSA6     32             23.0000000000
      6564       212  BGLCNA    H4              3.5534125402      -18.5917576407      111.5318289610  LPSA6     32             23.0000000000
      6565       212  BGLCNA    O4              1.9098832959      -17.6047594428      112.2070236435  LPSA6     32             23.0000000000
      6566       212  BGLCNA    HO4             2.2782281184      -17.8256199076      113.0745323218  LPSA6     32             23.0000000000
      6567       212  BGLCNA    C6              3.1608361065      -16.1080832181      110.0229508171  LPSA6     32             23.0000000000
      6568       212  BGLCNA    H61             2.5659023381      -15.4092815547      110.7194343748  LPSA6     32             23.0000000000
      6569       212  BGLCNA    H62             4.1800385080      -16.2081272533      110.5717638480  LPSA6     32             23.0000000000
      6570       212  BGLCNA    O6              3.2321243186      -15.4571922957      108.7709294272  LPSA6     32             23.0000000000
      6571       212  BGLCNA    HO6             2.4246965670      -15.6676667691      108.2360311317  LPSA6     32             23.0000000000
      6572       213  AGAL      C1              0.2548380547      -20.1850135044      112.6842874521  LPSA6     33             24.0000000000
      6573       213  AGAL      H1              0.0534546028      -19.1144388814      112.5979959475  LPSA6     33             24.0000000000
      6574       213  AGAL      C5             -0.5749525284      -22.3584719131      112.2149219831  LPSA6     33             24.0000000000
      6575       213  AGAL      H5              0.4665880769      -22.5089537086      111.8792915250  LPSA6     33             24.0000000000
      6576       213  AGAL      O5             -0.8142299566      -20.9735886303      112.0726784748  LPSA6     33             24.0000000000
      6577       213  AGAL      C2              0.3787289483      -20.6014837915      114.1482787662  LPSA6     33             24.0000000000
      6578       213  AGAL      H2             -0.6936983759      -20.5074126536      114.5751854976  LPSA6     33             24.0000000000
      6579       213  AGAL      O2              1.1174588347      -19.6182779358      114.8486222260  LPSA6     33             24.0000000000
      6580       213  AGAL      C3              0.6046443299      -22.0858103325      114.2945545625  LPSA6     33             24.0000000000
      6581       213  AGAL      H3              1.5547241248      -22.3987702490      113.7405815065  LPSA6     33             24.0000000000
      6582       213  AGAL      O3              0.9034317988      -22.4875777953      115.5672660328  LPSA6     33             24.0000000000
      6583       213  AGAL      HO3             0.3117567904      -22.2239761449      116.2400186851  LPSA6     33             24.0000000000
      6584       213  AGAL      C4             -0.5303999441      -22.8646739495      113.6708488317  LPSA6     33             24.0000000000
      6585       213  AGAL      H4             -0.3232411331      -23.9416763044      113.6729875792  LPSA6     33             24.0000000000
      6586       213  AGAL      O4             -1.8513694551      -22.7282947237      114.2435538900  LPSA6     33             24.0000000000
      6587       213  AGAL      HO4            -1.9011587090      -22.0517636124      114.9085525172  LPSA6     33             24.0000000000
      6588       213  AGAL      C6             -1.4492110223      -23.1820681875      111.2992528405  LPSA6     33             24.0000000000
      6589       213  AGAL      H61            -1.1587247657      -22.8611697404      110.2783408757  LPSA6     33             24.0000000000
      6590       213  AGAL      H62            -1.3249559851      -24.2804916735      111.3458027743  LPSA6     33             24.0000000000
      6591       213  AGAL      O6             -2.8306163417      -23.0421243152      111.4129476537  LPSA6     33             24.0000000000
      6592       213  AGAL      HO6            -3.2017221083      -22.3204618585      110.8444757795  LPSA6     33             24.0000000000
      6593       214  ARHM      C1              0.5134170781      -19.1502698108      116.0109133884  LPSA6     34             25.0000000000
      6594       214  ARHM      H1              0.1170683847      -19.9663837468      116.6389743656  LPSA6     34             25.0000000000
      6595       214  ARHM      C5             -0.3309216321      -17.0874056950      115.0727799907  LPSA6     34             25.0000000000
      6596       214  ARHM      H5              0.0031963162      -17.4333817265      114.0209633333  LPSA6     34             25.0000000000
      6597       214  ARHM      O5             -0.6259534565      -18.2739023157      115.8926868953  LPSA6     34             25.0000000000
      6598       214  ARHM      C2              1.6221665848      -18.4657120826      116.7601555753  LPSA6     34             25.0000000000
      6599       214  ARHM      H2              2.5746523507      -19.0518041171      116.8710959342  LPSA6     34             25.0000000000
      6600       214  ARHM      O2              1.2722847708      -18.0496207815      118.1592972339  LPSA6     34             25.0000000000
      6601       214  ARHM      C3              2.0001485385      -17.2034134492      115.9988665506  LPSA6     34             25.0000000000
      6602       214  ARHM      H3              2.3206086024      -17.4376266452      114.9724172480  LPSA6     34             25.0000000000
      6603       214  ARHM      O3              3.0548133202      -16.4043199177      116.5878695042  LPSA6     34             25.0000000000
      6604       214  ARHM      HO3             3.6553375505      -16.0217898209      115.9559434517  LPSA6     34             25.0000000000
      6605       214  ARHM      C4              0.7865768657      -16.2551349935      115.7987835878  LPSA6     34             25.0000000000
      6606       214  ARHM      H4              0.2862762877      -16.0075819612      116.7495315617  LPSA6     34             25.0000000000
      6607       214  ARHM      O4              1.1111518420      -15.0887676895      115.1362621200  LPSA6     34             25.0000000000
      6608       214  ARHM      HO4             1.5657117607      -14.4628044349      115.6953140327  LPSA6     34             25.0000000000
      6609       214  ARHM      C6             -1.6121847013      -16.2086592030      114.8413279703  LPSA6     34             25.0000000000
      6610       214  ARHM      H61            -2.0397546540      -15.7667619236      115.7172490283  LPSA6     34             25.0000000000
      6611       214  ARHM      H62            -1.2725995368      -15.2552879711      114.3996926230  LPSA6     34             25.0000000000
      6612       214  ARHM      H63            -2.3790185542      -16.6198843028      114.1590834060  LPSA6     34             25.0000000000
      6613       215  ARHM      C1              0.8566786281      -19.0796578423      119.0795908573  LPSA6     35             26.0000000000
      6614       215  ARHM      H1              1.5061603219      -20.0301051074      118.8787348947  LPSA6     35             26.0000000000
      6615       215  ARHM      C5             -1.4378990486      -18.2983558490      119.2408916176  LPSA6     35             26.0000000000
      6616       215  ARHM      H5             -1.2130821733      -17.4077835415      118.5254732223  LPSA6     35             26.0000000000
      6617       215  ARHM      O5             -0.5762203940      -19.4590729480      118.9290334222  LPSA6     35             26.0000000000
      6618       215  ARHM      C2              1.1132674657      -18.6282053863      120.5365485050  LPSA6     35             26.0000000000
      6619       215  ARHM      H2              2.2121223767      -18.4506488355      120.7134209997  LPSA6     35             26.0000000000
      6620       215  ARHM      O2              0.7410629175      -19.6264905369      121.4126203716  LPSA6     35             26.0000000000
      6621       215  ARHM      C3              0.2691903009      -17.3781444052      120.8720061906  LPSA6     35             26.0000000000
      6622       215  ARHM      H3              0.6016240380      -16.5762838123      120.1344793452  LPSA6     35             26.0000000000
      6623       215  ARHM      O3              0.5788216005      -16.8725915715      122.1540075829  LPSA6     35             26.0000000000
      6624       215  ARHM      HO3             0.7950384618      -17.6100253002      122.7288731339  LPSA6     35             26.0000000000
      6625       215  ARHM      C4             -1.1751572017      -17.7505838303      120.6788917534  LPSA6     35             26.0000000000
      6626       215  ARHM      H4             -1.5198304960      -18.6001241366      121.3307119103  LPSA6     35             26.0000000000
      6627       215  ARHM      O4             -1.9439658306      -16.5628192008      120.9693790153  LPSA6     35             26.0000000000
      6628       215  ARHM      HO4            -1.5819383381      -15.7434948142      120.5581709812  LPSA6     35             26.0000000000
      6629       215  ARHM      C6             -2.9215058142      -18.6361735720      118.8642347863  LPSA6     35             26.0000000000
      6630       215  ARHM      H61            -3.0353251039      -18.7789249299      117.7433556958  LPSA6     35             26.0000000000
      6631       215  ARHM      H62            -3.0917249167      -19.5466787136      119.4176110492  LPSA6     35             26.0000000000
      6632       215  ARHM      H63            -3.5277772739      -17.7061023634      119.0633705917  LPSA6     35             26.0000000000
      6633       216  BMANNA    C1              1.5535236457      -20.7609725714      121.4471464502  LPSA6     36             27.0000000000
      6634       216  BMANNA    H1              2.5880993564      -20.5315498730      121.0972061898  LPSA6     36             27.0000000000
      6635       216  BMANNA    C5              2.1857243596      -22.9836834544      120.7299884793  LPSA6     36             27.0000000000
      6636       216  BMANNA    H5              3.1495367128      -22.5548397642      120.4610684421  LPSA6     36             27.0000000000
      6637       216  BMANNA    O5              1.1751063336      -21.9274805857      120.6641532654  LPSA6     36             27.0000000000
      6638       216  BMANNA    C2              1.6746116165      -21.2200807721      122.8920138725  LPSA6     36             27.0000000000
      6639       216  BMANNA    H2              2.0514434040      -20.3568853409      123.4719477421  LPSA6     36             27.0000000000
      6640       216  BMANNA    N               0.3663358226      -21.5775766022      123.4395449790  LPSA6     36             27.0000000000
      6641       216  BMANNA    HN             -0.2759789600      -22.1045068155      122.8746519580  LPSA6     36             27.0000000000
      6642       216  BMANNA    C               0.1187167233      -21.4810538920      124.7737151700  LPSA6     36             27.0000000000
      6643       216  BMANNA    O               0.8525235757      -20.9588627242      125.6190347561  LPSA6     36             27.0000000000
      6644       216  BMANNA    CT             -1.1257883617      -22.0902650091      125.3570716528  LPSA6     36             27.0000000000
      6645       216  BMANNA    HT1            -1.3391322368      -23.0519369866      124.8802869227  LPSA6     36             27.0000000000
      6646       216  BMANNA    HT2            -2.0546571149      -21.4800977288      125.1731404614  LPSA6     36             27.0000000000
      6647       216  BMANNA    HT3            -1.1407887193      -22.2067770595      126.4547536948  LPSA6     36             27.0000000000
      6648       216  BMANNA    C3              2.6745442982      -22.3446004054      122.9763638711  LPSA6     36             27.0000000000
      6649       216  BMANNA    H3              3.6629356595      -22.0060661571      122.6403873786  LPSA6     36             27.0000000000
      6650       216  BMANNA    O3              2.8797501659      -22.7929429988      124.3414054450  LPSA6     36             27.0000000000
      6651       216  BMANNA    HO3             3.7449420662      -22.6686534927      124.7171830083  LPSA6     36             27.0000000000
      6652       216  BMANNA    C4              2.2886230882      -23.4881281255      122.1146940524  LPSA6     36             27.0000000000
      6653       216  BMANNA    H4              1.3723745228      -23.9377793364      122.4263894750  LPSA6     36             27.0000000000
      6654       216  BMANNA    O4              3.2265993898      -24.5575339176      122.2172873890  LPSA6     36             27.0000000000
      6655       216  BMANNA    HO4             3.1705938416      -24.6765763444      123.1985163392  LPSA6     36             27.0000000000
      6656       216  BMANNA    C6              1.8513489264      -24.0274103180      119.7412642597  LPSA6     36             27.0000000000
      6657       216  BMANNA    H61             1.8633031117      -23.6290223891      118.6946701192  LPSA6     36             27.0000000000
      6658       216  BMANNA    H62             2.7268478636      -24.6830792680      119.7045442506  LPSA6     36             27.0000000000
      6659       216  BMANNA    O6              0.6225427482      -24.7603579798      120.0914698020  LPSA6     36             27.0000000000
      6660       216  BMANNA    HO6             0.9076778489      -25.4945108282      120.6476247167  LPSA6     36             27.0000000000
      6661       217  ECLIPA    HB6S            3.4757186007       18.1583322664       20.4612168218  LPSA7     1               0.0000000000
      6662       217  ECLIPA    OB6             3.0589620333       16.6355784054       21.7140249152  LPSA7     1               0.0000000000
      6663       217  ECLIPA    CB6             3.9437418891       17.2427046611       20.7042159014  LPSA7     1               0.0000000000
      6664       217  ECLIPA    HB6R            4.9591275680       17.2811434996       21.0541931349  LPSA7     1               0.0000000000
      6665       217  ECLIPA    CB5             4.0697795157       16.3500023169       19.3988764877  LPSA7     1               0.0000000000
      6666       217  ECLIPA    OB5             2.6658344063       16.1281999344       18.9716901872  LPSA7     1               0.0000000000
      6667       217  ECLIPA    HB5             4.4696437139       15.3905362283       19.7771798410  LPSA7     1               0.0000000000
      6668       217  ECLIPA    CB1             2.6390673139       15.3206933459       17.7717324898  LPSA7     1               0.0000000000
      6669       217  ECLIPA    HB1             3.1031306921       14.3181960574       17.9003641080  LPSA7     1               0.0000000000
      6670       217  ECLIPA    OA6             1.3274439727       15.1602219418       17.3217246577  LPSA7     1               0.0000000000
      6671       217  ECLIPA    CA6             0.3559762441       16.1976067192       17.5745106853  LPSA7     1               0.0000000000
      6672       217  ECLIPA    HA6R            0.8985678755       17.1532965573       17.7226451425  LPSA7     1               0.0000000000
      6673       217  ECLIPA    HA6S           -0.3101500241       15.8455296387       18.4598965841  LPSA7     1               0.0000000000
      6674       217  ECLIPA    CB4             4.9375990338       17.0280163425       18.3206521937  LPSA7     1               0.0000000000
      6675       217  ECLIPA    HB4             4.5082944102       18.0032635679       18.0085584641  LPSA7     1               0.0000000000
      6676       217  ECLIPA    OB4             6.2592029379       16.9826280683       18.9017319965  LPSA7     1               0.0000000000
      6677       217  ECLIPA    PB              6.9867085065       18.3554726632       19.3234616795  LPSA7     1               0.0000000000
      6678       217  ECLIPA    OPB4            7.8544069655       18.0475354633       20.5579515876  LPSA7     1               0.0000000000
      6679       217  ECLIPA    OPB3            5.7655267455       19.2449036867       19.6614545037  LPSA7     1               0.0000000000
      6680       217  ECLIPA    OPB2            7.7264910937       18.8779117913       18.0829495795  LPSA7     1               0.0000000000
      6681       217  ECLIPA    CB3             4.8559099934       16.1378359689       17.0955893951  LPSA7     1               0.0000000000
      6682       217  ECLIPA    OB3             5.5199017064       16.6311004522       15.9186528231  LPSA7     1               0.0000000000
      6683       217  ECLIPA    HB3             5.1127811987       15.0597210839       17.3284540628  LPSA7     1               0.0000000000
      6684       217  ECLIPA    C71             6.7364375597       16.2621319031       15.6929469039  LPSA7     1               0.0000000000
      6685       217  ECLIPA    O71             7.3512513334       15.4164050196       16.3832172580  LPSA7     1               0.0000000000
      6686       217  ECLIPA    C72             7.1832229186       16.9073115916       14.3548430386  LPSA7     1               0.0000000000
      6687       217  ECLIPA    H72R            6.4858145677       16.5998920645       13.5774555414  LPSA7     1               0.0000000000
      6688       217  ECLIPA    H72S            8.2988420492       16.6201727976       14.1464415926  LPSA7     1               0.0000000000
      6689       217  ECLIPA    CB2             3.3800844406       15.9994721625       16.6720734084  LPSA7     1               0.0000000000
      6690       217  ECLIPA    HB2             2.9810275425       17.1029743222       16.5298168153  LPSA7     1               0.0000000000
      6691       217  ECLIPA    NB2             3.2038913085       15.1745809782       15.4577284722  LPSA7     1               0.0000000000
      6692       217  ECLIPA    HNB2            3.1530068011       14.1865507983       15.5965609326  LPSA7     1               0.0000000000
      6693       217  ECLIPA    CA4            -0.9508652946       15.0223110494       15.7929312798  LPSA7     1               0.0000000000
      6694       217  ECLIPA    HA4            -0.0489933515       14.4314510418       15.4903430209  LPSA7     1               0.0000000000
      6695       217  ECLIPA    OA4            -1.6409059493       14.3476784479       16.8012065728  LPSA7     1               0.0000000000
      6696       217  ECLIPA    HOA4           -1.1843771972       14.3422268073       17.5928838569  LPSA7     1               0.0000000000
      6697       217  ECLIPA    CA5            -0.5187058388       16.3117775967       16.3547806008  LPSA7     1               0.0000000000
      6698       217  ECLIPA    HA5            -1.3465334856       17.1015165635       16.5880746347  LPSA7     1               0.0000000000
      6699       217  ECLIPA    OA5             0.2940439374       16.9635819271       15.3689671688  LPSA7     1               0.0000000000
      6700       217  ECLIPA    CA1            -0.4386450949       17.1610906780       14.1076640156  LPSA7     1               0.0000000000
      6701       217  ECLIPA    HA1             0.4247785844       17.3501835004       13.4118188108  LPSA7     1               0.0000000000
      6702       217  ECLIPA    OA1            -1.2898279756       18.2900486279       14.1359876212  LPSA7     1               0.0000000000
      6703       217  ECLIPA    OPA2           -1.5901002798       19.8232066263       15.9734101064  LPSA7     1               0.0000000000
      6704       217  ECLIPA    OPA3            0.6872162627       19.7421870406       14.8300177673  LPSA7     1               0.0000000000
      6705       217  ECLIPA    OPA4           -1.2326300198       20.7232872938       13.6615320840  LPSA7     1               0.0000000000
      6706       217  ECLIPA    PA             -0.8045061195       19.6872465331       14.6765383084  LPSA7     1               0.0000000000
      6707       217  ECLIPA    CA3            -1.7772289029       15.1567890790       14.5219348229  LPSA7     1               0.0000000000
      6708       217  ECLIPA    HA3            -2.7726242557       15.7117972234       14.7377032538  LPSA7     1               0.0000000000
      6709       217  ECLIPA    OA3            -2.2123678611       13.8369141999       14.2498111976  LPSA7     1               0.0000000000
      6710       217  ECLIPA    C31            -1.3643640727       13.0623211253       13.5006246295  LPSA7     1               0.0000000000
      6711       217  ECLIPA    O31            -1.2076606757       13.1187699991       12.2941239937  LPSA7     1               0.0000000000
      6712       217  ECLIPA    C32            -1.0479053234       11.7764783086       14.2780289507  LPSA7     1               0.0000000000
      6713       217  ECLIPA    H32R           -1.4641057698       10.9198333638       13.7149713840  LPSA7     1               0.0000000000
      6714       217  ECLIPA    H32S           -1.4829825085       11.8276202257       15.2729523512  LPSA7     1               0.0000000000
      6715       217  ECLIPA    CA2            -0.9062878010       15.8598608083       13.4984733916  LPSA7     1               0.0000000000
      6716       217  ECLIPA    HA2             0.0122619787       15.2758297045       13.3982259915  LPSA7     1               0.0000000000
      6717       217  ECLIPA    NA2            -1.5817994065       16.0880873391       12.2035087571  LPSA7     1               0.0000000000
      6718       217  ECLIPA    HNA2           -2.4360517292       15.6420675460       12.0865030408  LPSA7     1               0.0000000000
      6719       217  ECLIPA    C73             7.1840938817       18.4139401810       14.3319064372  LPSA7     1               0.0000000000
      6720       217  ECLIPA    H73R            7.6204469013       18.8503017301       15.2227416964  LPSA7     1               0.0000000000
      6721       217  ECLIPA    O73             5.7957355056       18.8241689079       14.2644256719  LPSA7     1               0.0000000000
      6722       217  ECLIPA    C81             5.2986459565       19.9234488748       14.8555734565  LPSA7     1               0.0000000000
      6723       217  ECLIPA    O81             6.0341147988       20.5660159744       15.6690894779  LPSA7     1               0.0000000000
      6724       217  ECLIPA    C82             3.8790840642       20.2530090019       14.3536111794  LPSA7     1               0.0000000000
      6725       217  ECLIPA    H82R            3.4712521377       21.1259975604       14.8531840528  LPSA7     1               0.0000000000
      6726       217  ECLIPA    H82S            3.1761492527       19.4070716308       14.5323473422  LPSA7     1               0.0000000000
      6727       217  ECLIPA    C83             3.9048628888       20.5009786288       12.8301722806  LPSA7     1               0.0000000000
      6728       217  ECLIPA    H83R            3.8877794048       19.5119050911       12.2351841548  LPSA7     1               0.0000000000
      6729       217  ECLIPA    H83S            4.8871152112       20.9124085385       12.5911296392  LPSA7     1               0.0000000000
      6730       217  ECLIPA    C84             2.6856242421       21.2863973267       12.3050927261  LPSA7     1               0.0000000000
      6731       217  ECLIPA    H84R            2.8122758031       22.3415683311       12.5767117503  LPSA7     1               0.0000000000
      6732       217  ECLIPA    H84S            1.8474935447       20.7823324066       12.7369555497  LPSA7     1               0.0000000000
      6733       217  ECLIPA    C85             2.5567517105       21.1570935601       10.7695484051  LPSA7     1               0.0000000000
      6734       217  ECLIPA    H85R            2.7439902074       20.0979605873       10.5503608829  LPSA7     1               0.0000000000
      6735       217  ECLIPA    H85S            3.3808768321       21.7225095053       10.2367999955  LPSA7     1               0.0000000000
      6736       217  ECLIPA    C86             1.1087672409       21.4746814231       10.3034592726  LPSA7     1               0.0000000000
      6737       217  ECLIPA    H86R            0.9594810648       22.5619297450        9.9932223571  LPSA7     1               0.0000000000
      6738       217  ECLIPA    H86S            0.3911546755       21.2895370970       11.0807540114  LPSA7     1               0.0000000000
      6739       217  ECLIPA    C87             0.6283471993       20.5162135731        9.1601018854  LPSA7     1               0.0000000000
      6740       217  ECLIPA    H87R           -0.3600914674       20.7892601052        8.8049419625  LPSA7     1               0.0000000000
      6741       217  ECLIPA    H87S            0.5196327409       19.4646837585        9.5406723883  LPSA7     1               0.0000000000
      6742       217  ECLIPA    C88             1.6269287871       20.4370081212        8.0318999685  LPSA7     1               0.0000000000
      6743       217  ECLIPA    H88R            2.5254690374       19.8124829206        8.3479828359  LPSA7     1               0.0000000000
      6744       217  ECLIPA    H88S            2.1496336151       21.4318222148        7.9254521495  LPSA7     1               0.0000000000
      6745       217  ECLIPA    C89             1.0755049603       19.8085328964        6.7101000712  LPSA7     1               0.0000000000
      6746       217  ECLIPA    H89R            0.1389796203       19.2332741232        6.8746682686  LPSA7     1               0.0000000000
      6747       217  ECLIPA    H89S            1.7409313870       19.1157914670        6.2317001698  LPSA7     1               0.0000000000
      6748       217  ECLIPA    C810            0.8357078772       20.9488503761        5.7047246593  LPSA7     1               0.0000000000
      6749       217  ECLIPA    H810R           1.6078702859       21.6780608479        6.0108430704  LPSA7     1               0.0000000000
      6750       217  ECLIPA    H810S          -0.1470780539       21.3523557993        5.8554647029  LPSA7     1               0.0000000000
      6751       217  ECLIPA    C811            0.9744066097       20.5780027928        4.2179945741  LPSA7     1               0.0000000000
      6752       217  ECLIPA    H811R           0.5247578501       21.2158126468        3.5081125689  LPSA7     1               0.0000000000
      6753       217  ECLIPA    H811S           0.5855906777       19.4928124802        4.1819101877  LPSA7     1               0.0000000000
      6754       217  ECLIPA    C812            2.4132811753       20.3262900194        3.7413673409  LPSA7     1               0.0000000000
      6755       217  ECLIPA    H812R           2.3399581540       19.9006650317        2.6403157337  LPSA7     1               0.0000000000
      6756       217  ECLIPA    H812S           3.0024237338       19.7160050885        4.4144737196  LPSA7     1               0.0000000000
      6757       217  ECLIPA    C813            3.2919897343       21.5892139846        3.6785234959  LPSA7     1               0.0000000000
      6758       217  ECLIPA    H813R           2.8091274826       22.2719542930        2.9398073555  LPSA7     1               0.0000000000
      6759       217  ECLIPA    H813S           3.3901431630       22.1841692097        4.6616087352  LPSA7     1               0.0000000000
      6760       217  ECLIPA    C814            4.6838792867       21.3346425742        3.1377409857  LPSA7     1               0.0000000000
      6761       217  ECLIPA    H814R           4.7523179246       20.6753217573        2.1719074593  LPSA7     1               0.0000000000
      6762       217  ECLIPA    H814S           5.2895651699       20.8518601519        3.9166242729  LPSA7     1               0.0000000000
      6763       217  ECLIPA    H814T           5.1960644890       22.2938199081        2.8964685373  LPSA7     1               0.0000000000
      6764       217  ECLIPA    C74             7.8445279237       19.1328025848       13.1792855021  LPSA7     1               0.0000000000
      6765       217  ECLIPA    H74R            8.9081300162       18.9940804286       12.9935747315  LPSA7     1               0.0000000000
      6766       217  ECLIPA    H74S            7.6848929411       20.2743592510       13.3086690609  LPSA7     1               0.0000000000
      6767       217  ECLIPA    C75             7.0775656246       18.8515049889       11.8151371119  LPSA7     1               0.0000000000
      6768       217  ECLIPA    H75R            7.1294543473       19.8281116372       11.2107603889  LPSA7     1               0.0000000000
      6769       217  ECLIPA    H75S            6.0102668762       18.6303494691       12.0082837783  LPSA7     1               0.0000000000
      6770       217  ECLIPA    C76             7.6608831157       17.7196644559       10.9251453624  LPSA7     1               0.0000000000
      6771       217  ECLIPA    H76R            7.3371128767       16.7321864993       11.3555905686  LPSA7     1               0.0000000000
      6772       217  ECLIPA    H76S            8.8270011569       17.6658623446       10.9731137071  LPSA7     1               0.0000000000
      6773       217  ECLIPA    C77             7.2961691757       17.7275585596        9.4191603634  LPSA7     1               0.0000000000
      6774       217  ECLIPA    H77R            7.6674809939       18.6487280138        9.0408775908  LPSA7     1               0.0000000000
      6775       217  ECLIPA    H77S            6.1964566004       17.8486515202        9.2852383479  LPSA7     1               0.0000000000
      6776       217  ECLIPA    C78             7.7634170537       16.3907636873        8.8297405752  LPSA7     1               0.0000000000
      6777       217  ECLIPA    H78R            8.7909263013       16.2340930208        9.1562620580  LPSA7     1               0.0000000000
      6778       217  ECLIPA    H78S            7.0955143339       15.6276435108        9.3169442960  LPSA7     1               0.0000000000
      6779       217  ECLIPA    C79             7.4130315295       16.2270235528        7.2570767761  LPSA7     1               0.0000000000
      6780       217  ECLIPA    H79R            6.4476833090       15.6390176170        7.1763205913  LPSA7     1               0.0000000000
      6781       217  ECLIPA    H79S            8.2065099246       15.6370917032        6.7882549413  LPSA7     1               0.0000000000
      6782       217  ECLIPA    C710            7.4805530915       17.4802717718        6.3785096220  LPSA7     1               0.0000000000
      6783       217  ECLIPA    H710R           6.7599906674       18.1913423080        6.8460783027  LPSA7     1               0.0000000000
      6784       217  ECLIPA    H710S           8.4196353895       17.8752172042        6.4843026416  LPSA7     1               0.0000000000
      6785       217  ECLIPA    C711            7.0707510203       17.2515615743        4.9384125046  LPSA7     1               0.0000000000
      6786       217  ECLIPA    H711R           7.8124528378       16.5415137254        4.5670708729  LPSA7     1               0.0000000000
      6787       217  ECLIPA    H711S           6.0232062141       16.8561938682        4.9306188492  LPSA7     1               0.0000000000
      6788       217  ECLIPA    C712            7.1011516685       18.5859570603        4.2148670498  LPSA7     1               0.0000000000
      6789       217  ECLIPA    H712R           8.1254665781       18.9620580891        4.3130666899  LPSA7     1               0.0000000000
      6790       217  ECLIPA    H712S           6.4919486363       19.2485616394        4.8522839389  LPSA7     1               0.0000000000
      6791       217  ECLIPA    C713            6.5271875528       18.4704446747        2.7357390519  LPSA7     1               0.0000000000
      6792       217  ECLIPA    H713R           5.4577661878       18.1502227473        2.8800411466  LPSA7     1               0.0000000000
      6793       217  ECLIPA    H713S           6.6198598538       19.5226812663        2.2750064041  LPSA7     1               0.0000000000
      6794       217  ECLIPA    C714            7.4147078640       17.5405948785        1.8879763961  LPSA7     1               0.0000000000
      6795       217  ECLIPA    H714R           8.4249721969       17.9550844325        1.7626189762  LPSA7     1               0.0000000000
      6796       217  ECLIPA    H714S           7.3486896220       16.4935878386        2.2081901572  LPSA7     1               0.0000000000
      6797       217  ECLIPA    H714T           6.9484354997       17.6310385684        0.9249202435  LPSA7     1               0.0000000000
      6798       217  ECLIPA    C51             3.3479576307       15.7179545534       14.2380633031  LPSA7     1               0.0000000000
      6799       217  ECLIPA    O51             3.2445418718       16.9586143758       14.1304636378  LPSA7     1               0.0000000000
      6800       217  ECLIPA    C52             3.7235337998       14.8037375905       13.0157035712  LPSA7     1               0.0000000000
      6801       217  ECLIPA    H52R            4.7834383942       14.6316333303       12.8950255930  LPSA7     1               0.0000000000
      6802       217  ECLIPA    H52S            3.2139373739       13.8892089245       13.2222025935  LPSA7     1               0.0000000000
      6803       217  ECLIPA    C53             3.0051276355       15.4143160834       11.7526064304  LPSA7     1               0.0000000000
      6804       217  ECLIPA    H53R            2.1209689542       15.9889746291       12.0082431084  LPSA7     1               0.0000000000
      6805       217  ECLIPA    O53             2.8219569655       14.3173116870       10.8431816314  LPSA7     1               0.0000000000
      6806       217  ECLIPA    C61             1.5880527255       13.9769795315       10.5090573566  LPSA7     1               0.0000000000
      6807       217  ECLIPA    O61             0.5883372365       14.5171504576       10.8659713306  LPSA7     1               0.0000000000
      6808       217  ECLIPA    C62             1.6378913372       12.7598199540        9.5765835255  LPSA7     1               0.0000000000
      6809       217  ECLIPA    H62R            1.7962727366       11.8653124339       10.2152837125  LPSA7     1               0.0000000000
      6810       217  ECLIPA    H62S            2.6128401289       12.8212806343        9.0470049452  LPSA7     1               0.0000000000
      6811       217  ECLIPA    C63             0.3762081278       12.6695952983        8.6803029234  LPSA7     1               0.0000000000
      6812       217  ECLIPA    H63R            0.1953416040       13.6802124170        8.2798705976  LPSA7     1               0.0000000000
      6813       217  ECLIPA    H63S           -0.5617069158       12.3724222869        9.3252199642  LPSA7     1               0.0000000000
      6814       217  ECLIPA    C64             0.4040621701       11.7419270964        7.5279067597  LPSA7     1               0.0000000000
      6815       217  ECLIPA    H64R           -0.5931153396       11.6806017193        6.9620099216  LPSA7     1               0.0000000000
      6816       217  ECLIPA    H64S            0.6760566635       10.7123864182        7.9657393466  LPSA7     1               0.0000000000
      6817       217  ECLIPA    C65             1.5530409367       12.1529171487        6.5414948800  LPSA7     1               0.0000000000
      6818       217  ECLIPA    H65R            2.4213585923       12.0646729137        7.2423230371  LPSA7     1               0.0000000000
      6819       217  ECLIPA    H65S            1.3788813193       13.1913015498        6.1828980290  LPSA7     1               0.0000000000
      6820       217  ECLIPA    C66             1.7399402605       11.2737800054        5.2222643966  LPSA7     1               0.0000000000
      6821       217  ECLIPA    H66R            1.9598827942       10.2566740933        5.5395647249  LPSA7     1               0.0000000000
      6822       217  ECLIPA    H66S            2.6678617473       11.7712813904        4.8113963288  LPSA7     1               0.0000000000
      6823       217  ECLIPA    C67             0.6607738959       11.3026311867        4.1696839457  LPSA7     1               0.0000000000
      6824       217  ECLIPA    H67R           -0.3338775056       11.1126432997        4.5058181646  LPSA7     1               0.0000000000
      6825       217  ECLIPA    H67S            0.9076783933       10.5717782723        3.3478820057  LPSA7     1               0.0000000000
      6826       217  ECLIPA    C68             0.4793334669       12.6434577450        3.5077075145  LPSA7     1               0.0000000000
      6827       217  ECLIPA    H68R            1.3580976178       13.1199249434        3.0112508411  LPSA7     1               0.0000000000
      6828       217  ECLIPA    H68S            0.0720421340       13.2337541893        4.3087918325  LPSA7     1               0.0000000000
      6829       217  ECLIPA    C69            -0.4408647612       12.5009669885        2.2963532923  LPSA7     1               0.0000000000
      6830       217  ECLIPA    H69R           -1.1654498415       11.6641790547        2.3203210098  LPSA7     1               0.0000000000
      6831       217  ECLIPA    H69S            0.1988403114       12.1994206001        1.4693744207  LPSA7     1               0.0000000000
      6832       217  ECLIPA    C610           -1.1689838714       13.7452122364        1.9396251084  LPSA7     1               0.0000000000
      6833       217  ECLIPA    H610R          -0.4932309611       14.6363668971        2.0603347121  LPSA7     1               0.0000000000
      6834       217  ECLIPA    H610S          -2.0023250256       13.9308978668        2.6933643884  LPSA7     1               0.0000000000
      6835       217  ECLIPA    C611           -1.8580486430       13.6839939375        0.5312153135  LPSA7     1               0.0000000000
      6836       217  ECLIPA    H611R          -2.5564174370       12.8254925139        0.5735373188  LPSA7     1               0.0000000000
      6837       217  ECLIPA    H611S          -2.5798610464       14.4686620568        0.3609598123  LPSA7     1               0.0000000000
      6838       217  ECLIPA    C612           -0.8208620309       13.6576042718       -0.5788949292  LPSA7     1               0.0000000000
      6839       217  ECLIPA    H612R          -0.3075876854       14.6597385788       -0.6060949542  LPSA7     1               0.0000000000
      6840       217  ECLIPA    H612S          -0.0269124416       12.9486764463       -0.3132441764  LPSA7     1               0.0000000000
      6841       217  ECLIPA    H612T          -1.2681538615       13.4614704701       -1.5574606966  LPSA7     1               0.0000000000
      6842       217  ECLIPA    C54             4.0569236365       16.3805865811       11.1776054589  LPSA7     1               0.0000000000
      6843       217  ECLIPA    H54R            4.9693856344       15.7793476185       10.8869876633  LPSA7     1               0.0000000000
      6844       217  ECLIPA    H54S            4.4109152943       17.0740845086       11.9574517429  LPSA7     1               0.0000000000
      6845       217  ECLIPA    C55             3.6828087288       17.2614948649        9.9916770240  LPSA7     1               0.0000000000
      6846       217  ECLIPA    H55R            4.3915063117       18.0953691384        9.7856946516  LPSA7     1               0.0000000000
      6847       217  ECLIPA    H55S            2.6738218566       17.7475381303       10.2436295858  LPSA7     1               0.0000000000
      6848       217  ECLIPA    C56             3.7406771124       16.4098358181        8.7515486822  LPSA7     1               0.0000000000
      6849       217  ECLIPA    H56R            3.0084396106       15.5496424794        8.8382497819  LPSA7     1               0.0000000000
      6850       217  ECLIPA    H56S            4.6665578915       16.0042750035        8.4741334449  LPSA7     1               0.0000000000
      6851       217  ECLIPA    C57             3.1348757739       17.0372104496        7.4395707935  LPSA7     1               0.0000000000
      6852       217  ECLIPA    H57R            3.5809103122       17.9996981492        7.1827428724  LPSA7     1               0.0000000000
      6853       217  ECLIPA    H57S            2.0491494978       17.2569377598        7.5196553379  LPSA7     1               0.0000000000
      6854       217  ECLIPA    C58             3.2400046344       16.0152922424        6.2350750625  LPSA7     1               0.0000000000
      6855       217  ECLIPA    H58R            4.2509155733       15.5219013124        6.2095761879  LPSA7     1               0.0000000000
      6856       217  ECLIPA    H58S            2.6081431512       15.1305889338        6.5224540661  LPSA7     1               0.0000000000
      6857       217  ECLIPA    C59             2.9780556736       16.7047291427        4.8667186835  LPSA7     1               0.0000000000
      6858       217  ECLIPA    H59R            3.6791824778       17.5328743657        4.6589989540  LPSA7     1               0.0000000000
      6859       217  ECLIPA    H59S            1.9544690050       17.0692395665        5.0825555512  LPSA7     1               0.0000000000
      6860       217  ECLIPA    C510            3.2161213649       15.7591725456        3.6752379292  LPSA7     1               0.0000000000
      6861       217  ECLIPA    H510R           2.7769941993       14.7096738084        3.7937959224  LPSA7     1               0.0000000000
      6862       217  ECLIPA    H510S           4.3679360604       15.6034195369        3.4613250382  LPSA7     1               0.0000000000
      6863       217  ECLIPA    C511            2.7209570749       16.2556824551        2.3004848829  LPSA7     1               0.0000000000
      6864       217  ECLIPA    H511R           1.6342158607       16.0477117133        2.2679211996  LPSA7     1               0.0000000000
      6865       217  ECLIPA    H511S           2.8104584065       17.3757900882        2.1940961976  LPSA7     1               0.0000000000
      6866       217  ECLIPA    C512            3.3258793068       15.5729418676        1.0189424135  LPSA7     1               0.0000000000
      6867       217  ECLIPA    H512R           3.0606954459       16.1662094850        0.0815295424  LPSA7     1               0.0000000000
      6868       217  ECLIPA    H512S           4.4176809324       15.5213832087        1.1129704346  LPSA7     1               0.0000000000
      6869       217  ECLIPA    C513            2.6914442499       14.1567757860        0.6457389972  LPSA7     1               0.0000000000
      6870       217  ECLIPA    H513R           1.5692281030       14.2339679615        0.5010832175  LPSA7     1               0.0000000000
      6871       217  ECLIPA    H513S           2.8294963381       13.4873974674        1.4088770719  LPSA7     1               0.0000000000
      6872       217  ECLIPA    C514            3.2486313752       13.6510165683       -0.6567184026  LPSA7     1               0.0000000000
      6873       217  ECLIPA    H514R           4.3377160572       13.6250778546       -0.6273993866  LPSA7     1               0.0000000000
      6874       217  ECLIPA    H514S           2.9286623045       12.6076815705       -0.7024724270  LPSA7     1               0.0000000000
      6875       217  ECLIPA    H514T           2.8921524611       14.2927213281       -1.5427815912  LPSA7     1               0.0000000000
      6876       217  ECLIPA    C33             0.4899660041       11.4059127427       14.4880792826  LPSA7     1               0.0000000000
      6877       217  ECLIPA    H33R            0.5253726625       10.3366717435       14.8828993596  LPSA7     1               0.0000000000
      6878       217  ECLIPA    O33             1.0795159618       12.2381864585       15.4699768821  LPSA7     1               0.0000000000
      6879       217  ECLIPA    HO33            0.7595221421       11.9801716336       16.2926205744  LPSA7     1               0.0000000000
      6880       217  ECLIPA    C34             1.3908454557       11.4453355760       13.2255459338  LPSA7     1               0.0000000000
      6881       217  ECLIPA    H34R            1.3735010482       12.4431181591       12.8010908313  LPSA7     1               0.0000000000
      6882       217  ECLIPA    H34S            0.9281112990       10.8066850430       12.3772221142  LPSA7     1               0.0000000000
      6883       217  ECLIPA    C35             2.8627859933       11.0407426144       13.4256256262  LPSA7     1               0.0000000000
      6884       217  ECLIPA    H35R            2.8878153802        9.9876541287       13.6963698038  LPSA7     1               0.0000000000
      6885       217  ECLIPA    H35S            3.2739068334       11.6136815104       14.2668166019  LPSA7     1               0.0000000000
      6886       217  ECLIPA    C36             3.7795992904       11.0963838449       12.1865608177  LPSA7     1               0.0000000000
      6887       217  ECLIPA    H36R            3.2891789826       11.9872984358       11.7430812241  LPSA7     1               0.0000000000
      6888       217  ECLIPA    H36S            3.7109012799       10.2106430162       11.4785220412  LPSA7     1               0.0000000000
      6889       217  ECLIPA    C37             5.1896191535       11.5417825616       12.5255831563  LPSA7     1               0.0000000000
      6890       217  ECLIPA    H37R            5.7707230457       10.5234566841       12.6765215637  LPSA7     1               0.0000000000
      6891       217  ECLIPA    H37S            5.2502944620       12.0362975587       13.5128993321  LPSA7     1               0.0000000000
      6892       217  ECLIPA    C38             5.9395796139       12.3518550161       11.4317274953  LPSA7     1               0.0000000000
      6893       217  ECLIPA    H38R            5.6569391171       13.4174260153       11.4067421357  LPSA7     1               0.0000000000
      6894       217  ECLIPA    H38S            7.0051824485       12.3796071180       11.7230999881  LPSA7     1               0.0000000000
      6895       217  ECLIPA    C39             5.6786981902       11.7852438717       10.0213367345  LPSA7     1               0.0000000000
      6896       217  ECLIPA    H39R            4.5772868081       11.7296008199        9.8128797222  LPSA7     1               0.0000000000
      6897       217  ECLIPA    H39S            6.2193744884       10.8031065812        9.9697980947  LPSA7     1               0.0000000000
      6898       217  ECLIPA    C310            6.3234363170       12.5412128808        8.8401719124  LPSA7     1               0.0000000000
      6899       217  ECLIPA    H310R           7.4494556925       12.4283048979        9.0626900142  LPSA7     1               0.0000000000
      6900       217  ECLIPA    H310S           6.0480334449       13.6348812478        8.8945759064  LPSA7     1               0.0000000000
      6901       217  ECLIPA    C311            5.7186942234       12.1616453273        7.5676235846  LPSA7     1               0.0000000000
      6902       217  ECLIPA    H311R           5.5002316833       11.0636098211        7.5507520616  LPSA7     1               0.0000000000
      6903       217  ECLIPA    H311S           4.7547439045       12.6872967573        7.2851462164  LPSA7     1               0.0000000000
      6904       217  ECLIPA    C312            6.5674662668       12.5208848135        6.3280121142  LPSA7     1               0.0000000000
      6905       217  ECLIPA    H312R           7.1119001529       13.4859149337        6.4861373960  LPSA7     1               0.0000000000
      6906       217  ECLIPA    H312S           7.3144160229       11.7006492674        6.1820758986  LPSA7     1               0.0000000000
      6907       217  ECLIPA    C313            5.7657702223       12.6197935994        4.9895779706  LPSA7     1               0.0000000000
      6908       217  ECLIPA    H313R           5.5323171697       11.6212780012        4.7825120466  LPSA7     1               0.0000000000
      6909       217  ECLIPA    H313S           4.8066582798       13.1850985023        5.1572698764  LPSA7     1               0.0000000000
      6910       217  ECLIPA    C314            6.4681773329       13.2105172161        3.8116661598  LPSA7     1               0.0000000000
      6911       217  ECLIPA    H314R           7.4034109336       12.6216758978        3.6067793993  LPSA7     1               0.0000000000
      6912       217  ECLIPA    H314S           5.8907590609       13.2626914527        2.8849361441  LPSA7     1               0.0000000000
      6913       217  ECLIPA    H314T           6.8262784945       14.2741281592        4.0446347774  LPSA7     1               0.0000000000
      6914       217  ECLIPA    C11            -1.2328509475       16.9598279806       11.2900808200  LPSA7     1               0.0000000000
      6915       217  ECLIPA    O11            -0.1652454529       17.5410913763       11.1394597694  LPSA7     1               0.0000000000
      6916       217  ECLIPA    C12            -2.3613574693       17.3378427584       10.2853014675  LPSA7     1               0.0000000000
      6917       217  ECLIPA    H12R           -2.7538378402       18.3674460878       10.4852637814  LPSA7     1               0.0000000000
      6918       217  ECLIPA    H12S           -3.1582633728       16.5839941913       10.5222272274  LPSA7     1               0.0000000000
      6919       217  ECLIPA    C13            -1.9943229080       17.2331854629        8.8110583416  LPSA7     1               0.0000000000
      6920       217  ECLIPA    H13R           -0.9508151111       17.6724687670        8.5839874118  LPSA7     1               0.0000000000
      6921       217  ECLIPA    O13            -2.9668266849       18.0690107124        8.1311342176  LPSA7     1               0.0000000000
      6922       217  ECLIPA    HO13           -2.6211021698       18.3569137759        7.3064966676  LPSA7     1               0.0000000000
      6923       217  ECLIPA    C14            -1.9971856193       15.7641036086        8.4581579993  LPSA7     1               0.0000000000
      6924       217  ECLIPA    H14R           -2.8536926002       15.1912663200        8.9706443184  LPSA7     1               0.0000000000
      6925       217  ECLIPA    H14S           -0.9979330455       15.3608103249        8.7243868424  LPSA7     1               0.0000000000
      6926       217  ECLIPA    C15            -2.1597874193       15.4818580735        6.9526486677  LPSA7     1               0.0000000000
      6927       217  ECLIPA    H15R           -3.0119695962       16.0035954254        6.5500123177  LPSA7     1               0.0000000000
      6928       217  ECLIPA    H15S           -2.2671467147       14.3984980560        6.8782608049  LPSA7     1               0.0000000000
      6929       217  ECLIPA    C16            -0.9220370959       15.9753071176        6.1622847334  LPSA7     1               0.0000000000
      6930       217  ECLIPA    H16R           -0.0381928353       15.2467399579        6.2733383262  LPSA7     1               0.0000000000
      6931       217  ECLIPA    H16S           -0.4958485311       16.8279974931        6.7182496574  LPSA7     1               0.0000000000
      6932       217  ECLIPA    C17            -1.2074461339       16.2066527305        4.6801229578  LPSA7     1               0.0000000000
      6933       217  ECLIPA    H17R           -1.8079025424       15.2804692595        4.4246758429  LPSA7     1               0.0000000000
      6934       217  ECLIPA    H17S           -0.3456453399       16.2100241442        4.0046542873  LPSA7     1               0.0000000000
      6935       217  ECLIPA    C18            -2.0003338113       17.4643587344        4.4504458171  LPSA7     1               0.0000000000
      6936       217  ECLIPA    H18R           -2.8323609630       17.3186348998        5.0865821920  LPSA7     1               0.0000000000
      6937       217  ECLIPA    H18S           -1.3648306796       18.3373795067        4.7749867078  LPSA7     1               0.0000000000
      6938       217  ECLIPA    C19            -2.4145226547       17.6315482825        3.0097966450  LPSA7     1               0.0000000000
      6939       217  ECLIPA    H19R           -3.0817221529       18.4776818871        2.9245509529  LPSA7     1               0.0000000000
      6940       217  ECLIPA    H19S           -2.9288388112       16.6904243853        2.6238151240  LPSA7     1               0.0000000000
      6941       217  ECLIPA    C110           -1.2032131685       17.9645421826        2.1045801788  LPSA7     1               0.0000000000
      6942       217  ECLIPA    H110R          -0.5737219695       18.7897234264        2.4416701971  LPSA7     1               0.0000000000
      6943       217  ECLIPA    H110S          -0.6593466549       16.9958210341        2.1583327743  LPSA7     1               0.0000000000
      6944       217  ECLIPA    C111           -1.6897010491       18.1940168511        0.7563571155  LPSA7     1               0.0000000000
      6945       217  ECLIPA    H111R          -2.4754736324       17.4708118606        0.3999767799  LPSA7     1               0.0000000000
      6946       217  ECLIPA    H111S          -2.2005539800       19.1207315442        0.7977177860  LPSA7     1               0.0000000000
      6947       217  ECLIPA    C112           -0.5755386859       18.3260179295       -0.2937360943  LPSA7     1               0.0000000000
      6948       217  ECLIPA    H112R           0.0175607032       19.1412493330        0.1973446929  LPSA7     1               0.0000000000
      6949       217  ECLIPA    H112S           0.1382254150       17.5018585994       -0.2177998937  LPSA7     1               0.0000000000
      6950       217  ECLIPA    C113           -1.0767350674       18.3528599124       -1.7468031795  LPSA7     1               0.0000000000
      6951       217  ECLIPA    H113R          -1.5118047195       17.3536507749       -1.9802017524  LPSA7     1               0.0000000000
      6952       217  ECLIPA    H113S          -1.9271621460       19.0338345475       -1.8531093719  LPSA7     1               0.0000000000
      6953       217  ECLIPA    C114           -0.1461818258       18.8268402127       -2.8344928043  LPSA7     1               0.0000000000
      6954       217  ECLIPA    H114R           0.3888723626       19.7711348913       -2.7829422503  LPSA7     1               0.0000000000
      6955       217  ECLIPA    H114S           0.6620578926       18.0596264379       -2.9951089580  LPSA7     1               0.0000000000
      6956       217  ECLIPA    H114T          -0.7393651733       19.0609622749       -3.7399523103  LPSA7     1               0.0000000000
      6957       218  AKDO      C1              4.5314033592       14.9668176392       22.4410509549  LPSA7     2               0.0000000000
      6958       218  AKDO      O11             5.7968025850       15.1443034817       22.4913720772  LPSA7     2               0.0000000000
      6959       218  AKDO      O12             3.8626191231       13.9579378410       22.0800765534  LPSA7     2               0.0000000000
      6960       218  AKDO      C2              3.6932730492       16.1674688100       22.8913181237  LPSA7     2               0.0000000000
      6961       218  AKDO      C6              3.8927801745       18.3424226820       23.8039205188  LPSA7     2               0.0000000000
      6962       218  AKDO      H6              3.4269403529       18.7574685983       22.9487387861  LPSA7     2               0.0000000000
      6963       218  AKDO      O6              4.5854087913       17.0851138872       23.4267274814  LPSA7     2               0.0000000000
      6964       218  AKDO      C3              2.7245903670       15.8361795544       23.9587385105  LPSA7     2               0.0000000000
      6965       218  AKDO      H31             3.1294319560       15.3364909595       24.7868435866  LPSA7     2               0.0000000000
      6966       218  AKDO      H32             1.8897728449       15.1789404731       23.4151264596  LPSA7     2               0.0000000000
      6967       218  AKDO      C4              1.9705454603       17.0929814002       24.3842593775  LPSA7     2               0.0000000000
      6968       218  AKDO      H4              1.5119440248       17.6049450754       23.5563617270  LPSA7     2               0.0000000000
      6969       218  AKDO      O4              0.9744515236       16.7453803936       25.3355834555  LPSA7     2               0.0000000000
      6970       218  AKDO      C5              2.8465536310       18.1291020085       24.9292437177  LPSA7     2               0.0000000000
      6971       218  AKDO      H5              2.3001993299       19.1056043481       25.0107888161  LPSA7     2               0.0000000000
      6972       218  AKDO      O5              3.4176645518       17.6201249174       26.2083878813  LPSA7     2               0.0000000000
      6973       218  AKDO      C7              4.9153431112       19.5047544667       24.1981149098  LPSA7     2               0.0000000000
      6974       218  AKDO      H7              5.4481575653       19.1921034808       25.0939202098  LPSA7     2               0.0000000000
      6975       218  AKDO      O7              4.2460151437       20.7845526872       24.3482682347  LPSA7     2               0.0000000000
      6976       218  AKDO      HO7             4.0799132469       21.0809767433       23.4945166536  LPSA7     2               0.0000000000
      6977       218  AKDO      C8              5.9001078787       19.6366140538       22.9864433882  LPSA7     2               0.0000000000
      6978       218  AKDO      H81             6.3832560828       18.6327566208       22.9153150275  LPSA7     2               0.0000000000
      6979       218  AKDO      H82             5.2582546780       19.9277929209       22.0745354517  LPSA7     2               0.0000000000
      6980       218  AKDO      O8              6.9245357463       20.6523799910       23.3537996748  LPSA7     2               0.0000000000
      6981       218  AKDO      HO8             7.7780266393       20.3947415720       22.9179804014  LPSA7     2               0.0000000000
      6982       219  AKDO      C1             -0.8091745388       17.0486945478       23.8027969005  LPSA7     3               1.0000000000
      6983       219  AKDO      O11            -0.7210074213       16.5346176046       22.6471489042  LPSA7     3               1.0000000000
      6984       219  AKDO      O12            -1.3018946119       18.1715761478       24.0656860145  LPSA7     3               1.0000000000
      6985       219  AKDO      C2             -0.3178190340       16.2728456507       25.0166033796  LPSA7     3               1.0000000000
      6986       219  AKDO      C6              0.3127147415       14.0783184803       25.7688829792  LPSA7     3               1.0000000000
      6987       219  AKDO      H6              1.3776837302       14.4203736151       25.9810553331  LPSA7     3               1.0000000000
      6988       219  AKDO      O6             -0.2332325610       14.8377439300       24.7076657818  LPSA7     3               1.0000000000
      6989       219  AKDO      C3             -1.1438640437       16.4492466772       26.3187707743  LPSA7     3               1.0000000000
      6990       219  AKDO      H31            -2.2323135292       16.0633058633       26.1504935106  LPSA7     3               1.0000000000
      6991       219  AKDO      H32            -1.2222718281       17.5103516672       26.5929217108  LPSA7     3               1.0000000000
      6992       219  AKDO      C4             -0.4885599302       15.6332491416       27.4036122013  LPSA7     3               1.0000000000
      6993       219  AKDO      H4              0.5744273010       15.8932026793       27.4051754129  LPSA7     3               1.0000000000
      6994       219  AKDO      O4             -0.9782841173       15.8258938888       28.7388570077  LPSA7     3               1.0000000000
      6995       219  AKDO      HO4            -0.3275344208       16.1040477603       29.3717785514  LPSA7     3               1.0000000000
      6996       219  AKDO      C5             -0.4794007227       14.2676339561       27.0369167275  LPSA7     3               1.0000000000
      6997       219  AKDO      H5             -0.0643995745       13.6552535776       27.9236884022  LPSA7     3               1.0000000000
      6998       219  AKDO      O5             -1.8224433215       13.7831329721       26.8495261943  LPSA7     3               1.0000000000
      6999       219  AKDO      HO5            -2.2529644659       14.2849998834       26.1887877298  LPSA7     3               1.0000000000
      7000       219  AKDO      C7              0.3338972756       12.6368527281       25.3258859863  LPSA7     3               1.0000000000
      7001       219  AKDO      H7             -0.7085008371       12.2484080513       25.1324849511  LPSA7     3               1.0000000000
      7002       219  AKDO      O7              0.9715031515       11.8457490312       26.3661029982  LPSA7     3               1.0000000000
      7003       219  AKDO      HO7             0.8355437255       10.8957650373       26.1647669547  LPSA7     3               1.0000000000
      7004       219  AKDO      C8              1.2207322897       12.5544022500       24.1539635864  LPSA7     3               1.0000000000
      7005       219  AKDO      H81             0.8424678633       13.1892601281       23.3419478721  LPSA7     3               1.0000000000
      7006       219  AKDO      H82             2.2794110136       12.8243431993       24.2853144505  LPSA7     3               1.0000000000
      7007       219  AKDO      O8              1.2324332971       11.2361223567       23.6541307456  LPSA7     3               1.0000000000
      7008       219  AKDO      HO8             0.3464294493       11.2731315498       23.2473452835  LPSA7     3               1.0000000000
      7009       220  AHEP      C1              3.6364964094       18.5239555445       27.2793229502  LPSA7     4               2.0000000000
      7010       220  AHEP      H1              4.6158680862       18.9179014486       26.8517192453  LPSA7     4               2.0000000000
      7011       220  AHEP      C5              1.4943489230       19.3824330858       28.0185271385  LPSA7     4               2.0000000000
      7012       220  AHEP      H5              1.1112471361       18.3887682116       27.5619054335  LPSA7     4               2.0000000000
      7013       220  AHEP      O5              2.7493541536       19.6390937915       27.3942805697  LPSA7     4               2.0000000000
      7014       220  AHEP      C2              3.9629389158       18.0810977879       28.6827861277  LPSA7     4               2.0000000000
      7015       220  AHEP      H2              4.6058192762       17.1960442041       28.7442425996  LPSA7     4               2.0000000000
      7016       220  AHEP      O2              4.6351965225       19.0932957308       29.3407203943  LPSA7     4               2.0000000000
      7017       220  AHEP      HO2             5.3319812614       18.7257056646       29.8507927467  LPSA7     4               2.0000000000
      7018       220  AHEP      C3              2.6841471695       17.7682658421       29.4857672188  LPSA7     4               2.0000000000
      7019       220  AHEP      H3              2.1686974637       16.8331483576       29.2269906369  LPSA7     4               2.0000000000
      7020       220  AHEP      O3              2.9990394635       17.5486296631       30.7882097304  LPSA7     4               2.0000000000
      7021       220  AHEP      C4              1.7722836337       18.9678677656       29.4546205599  LPSA7     4               2.0000000000
      7022       220  AHEP      H4              2.1529250793       19.8799238364       29.9788637739  LPSA7     4               2.0000000000
      7023       220  AHEP      O4              0.5412235693       18.6170491202       30.0145912217  LPSA7     4               2.0000000000
      7024       220  AHEP      P4              0.0395063040       19.1741188494       31.4978499249  LPSA7     4               2.0000000000
      7025       220  AHEP      OP42           -0.7687172516       18.1269859005       32.1560374192  LPSA7     4               2.0000000000
      7026       220  AHEP      OP43           -0.7813942493       20.3435089595       31.0397938518  LPSA7     4               2.0000000000
      7027       220  AHEP      OP44            1.2727377617       19.6798230640       32.3098937101  LPSA7     4               2.0000000000
      7028       220  AHEP      C6              0.4835095951       20.5647539103       27.7982482844  LPSA7     4               2.0000000000
      7029       220  AHEP      H6             -0.5322113762       20.1532068850       28.0833143566  LPSA7     4               2.0000000000
      7030       220  AHEP      O6              0.8405407347       21.6066398591       28.7103505027  LPSA7     4               2.0000000000
      7031       220  AHEP      HO6             0.0547016466       21.9405412770       29.2203787365  LPSA7     4               2.0000000000
      7032       220  AHEP      C7              0.4055877147       21.0648389979       26.3054198206  LPSA7     4               2.0000000000
      7033       220  AHEP      H71            -0.4534973094       21.8004578710       26.1576126064  LPSA7     4               2.0000000000
      7034       220  AHEP      H72             0.3916946244       20.1842169079       25.6323487339  LPSA7     4               2.0000000000
      7035       220  AHEP      O7              1.5689962994       21.8179227600       25.9755159574  LPSA7     4               2.0000000000
      7036       220  AHEP      HO7             1.4472898706       22.7147098655       26.3256794122  LPSA7     4               2.0000000000
      7037       221  AHEP      C1              2.7018923370       16.2898137928       31.4342177374  LPSA7     5               3.0000000000
      7038       221  AHEP      H1              1.8016105290       15.7992479515       30.9794447437  LPSA7     5               3.0000000000
      7039       221  AHEP      C5              4.9908154877       15.8377251725       31.9165413065  LPSA7     5               3.0000000000
      7040       221  AHEP      H5              5.1589230583       16.9236516319       31.6031509785  LPSA7     5               3.0000000000
      7041       221  AHEP      O5              3.8007335780       15.3696232197       31.3013865768  LPSA7     5               3.0000000000
      7042       221  AHEP      C2              2.4296709137       16.4039242549       32.9718957084  LPSA7     5               3.0000000000
      7043       221  AHEP      H2              1.6079224887       17.1811628579       33.0921707216  LPSA7     5               3.0000000000
      7044       221  AHEP      O2              1.9594267379       15.1650299032       33.4691025827  LPSA7     5               3.0000000000
      7045       221  AHEP      HO2             1.0242681950       15.2135796460       33.6403503244  LPSA7     5               3.0000000000
      7046       221  AHEP      C3              3.6782071660       16.9429009046       33.7004304811  LPSA7     5               3.0000000000
      7047       221  AHEP      H3              3.9369632939       17.9437560899       33.3375632548  LPSA7     5               3.0000000000
      7048       221  AHEP      O3              3.5698963787       17.0724225110       35.1462238331  LPSA7     5               3.0000000000
      7049       221  AHEP      C4              4.7740952439       15.9641517187       33.4524658705  LPSA7     5               3.0000000000
      7050       221  AHEP      H4              4.5195416692       14.9398048439       33.8188816395  LPSA7     5               3.0000000000
      7051       221  AHEP      O4              5.9878196629       16.4746965248       34.0881196202  LPSA7     5               3.0000000000
      7052       221  AHEP      P4              6.6791998158       15.6740250113       35.2810123301  LPSA7     5               3.0000000000
      7053       221  AHEP      OP42            7.7526752247       16.5896757373       35.8202965042  LPSA7     5               3.0000000000
      7054       221  AHEP      OP43            7.2767393561       14.4086277260       34.6107506294  LPSA7     5               3.0000000000
      7055       221  AHEP      OP44            5.5835982670       15.2942901305       36.2417033353  LPSA7     5               3.0000000000
      7056       221  AHEP      C6              6.2334256583       15.0120208807       31.5493607386  LPSA7     5               3.0000000000
      7057       221  AHEP      H6              7.1572423855       15.4588208367       31.9533288164  LPSA7     5               3.0000000000
      7058       221  AHEP      O6              6.1035811731       13.6830735913       32.0428602265  LPSA7     5               3.0000000000
      7059       221  AHEP      HO6             5.4928940856       13.0842200284       31.5367188277  LPSA7     5               3.0000000000
      7060       221  AHEP      C7              6.4870803159       15.1015826835       30.0822725317  LPSA7     5               3.0000000000
      7061       221  AHEP      H71             7.5859959643       15.0588609215       29.9169108581  LPSA7     5               3.0000000000
      7062       221  AHEP      H72             6.1276620219       16.0390760703       29.6179339851  LPSA7     5               3.0000000000
      7063       221  AHEP      O7              5.9537143929       13.8955505820       29.4957736452  LPSA7     5               3.0000000000
      7064       222  AHEP      C1              4.7629589506       14.0858601039       28.7926622005  LPSA7     6               4.0000000000
      7065       222  AHEP      H1              4.3123377845       15.1085356836       29.0422981953  LPSA7     6               4.0000000000
      7066       222  AHEP      C5              5.5152193065       12.8058947063       26.9237617191  LPSA7     6               4.0000000000
      7067       222  AHEP      H5              6.4409790512       12.6082357332       27.4818042043  LPSA7     6               4.0000000000
      7068       222  AHEP      O5              4.9435694207       14.0510802719       27.3547530115  LPSA7     6               4.0000000000
      7069       222  AHEP      C2              3.7665430186       13.0524278789       29.2397872647  LPSA7     6               4.0000000000
      7070       222  AHEP      H2              3.6159269878       13.1979395986       30.3523091474  LPSA7     6               4.0000000000
      7071       222  AHEP      O2              2.4804862233       13.2866652070       28.7267108980  LPSA7     6               4.0000000000
      7072       222  AHEP      HO2             1.9856560956       13.5792514603       29.4669064354  LPSA7     6               4.0000000000
      7073       222  AHEP      C3              4.3197550519       11.6596083775       28.8468391403  LPSA7     6               4.0000000000
      7074       222  AHEP      H3              5.2354705890       11.5059552070       29.4311808254  LPSA7     6               4.0000000000
      7075       222  AHEP      O3              3.4049000210       10.5179685861       29.2225362108  LPSA7     6               4.0000000000
      7076       222  AHEP      HO3             3.6107650433       10.0508825613       29.9865592523  LPSA7     6               4.0000000000
      7077       222  AHEP      C4              4.5335233932       11.6862648325       27.2761740859  LPSA7     6               4.0000000000
      7078       222  AHEP      H4              3.5661274482       11.7080685435       26.7944950683  LPSA7     6               4.0000000000
      7079       222  AHEP      O4              5.0756130550       10.4475374412       26.7938835778  LPSA7     6               4.0000000000
      7080       222  AHEP      HO4             6.0416851623       10.4784463877       27.1589530594  LPSA7     6               4.0000000000
      7081       222  AHEP      C6              5.9568472331       12.8201403911       25.4906533340  LPSA7     6               4.0000000000
      7082       222  AHEP      H6              6.4542020870       11.8676047015       25.3442628137  LPSA7     6               4.0000000000
      7083       222  AHEP      O6              4.8127011246       12.7495081516       24.6375675438  LPSA7     6               4.0000000000
      7084       222  AHEP      HO6             4.8109032180       13.4674641860       23.9977784313  LPSA7     6               4.0000000000
      7085       222  AHEP      C7              6.9603933220       13.8921290312       25.1799756221  LPSA7     6               4.0000000000
      7086       222  AHEP      H71             7.3426048391       13.7010021133       24.1408078076  LPSA7     6               4.0000000000
      7087       222  AHEP      H72             7.7675424135       13.7766053682       25.9252229174  LPSA7     6               4.0000000000
      7088       222  AHEP      O7              6.4496567744       15.1904547185       25.2517430265  LPSA7     6               4.0000000000
      7089       222  AHEP      HO7             6.5141371767       15.4207772380       26.2011285002  LPSA7     6               4.0000000000
      7090       223  AGLC      C1              3.0461896686       18.2918417227       35.6520976122  LPSA7     7               4.0000000000
      7091       223  AGLC      H1              3.6385842240       19.1626548000       35.2047739589  LPSA7     7               4.0000000000
      7092       223  AGLC      C5              0.8622246776       17.5204525875       36.0987679218  LPSA7     7               4.0000000000
      7093       223  AGLC      H5              1.1380681248       16.4898996290       35.8327124756  LPSA7     7               4.0000000000
      7094       223  AGLC      O5              1.6718268973       18.4345992681       35.4366254460  LPSA7     7               4.0000000000
      7095       223  AGLC      C2              3.2336872304       18.3945355014       37.1582745954  LPSA7     7               4.0000000000
      7096       223  AGLC      H2              2.7225650848       19.3690317531       37.4887389927  LPSA7     7               4.0000000000
      7097       223  AGLC      O2              4.6081858439       18.6560245490       37.5024056006  LPSA7     7               4.0000000000
      7098       223  AGLC      HO2             4.9989351594       17.7965597443       37.6430208865  LPSA7     7               4.0000000000
      7099       223  AGLC      C3              2.4854156411       17.4736657746       37.9903802326  LPSA7     7               4.0000000000
      7100       223  AGLC      H3              2.8344733802       16.4903231679       37.6727250444  LPSA7     7               4.0000000000
      7101       223  AGLC      O3              2.7626243971       17.4861478923       39.4204481292  LPSA7     7               4.0000000000
      7102       223  AGLC      C4              1.0594368638       17.7211245511       37.5928595998  LPSA7     7               4.0000000000
      7103       223  AGLC      H4              0.7179552377       18.7594530054       37.9560286200  LPSA7     7               4.0000000000
      7104       223  AGLC      O4              0.3088394335       16.6615750883       38.2243117391  LPSA7     7               4.0000000000
      7105       223  AGLC      HO4            -0.4902385050       16.9462771707       38.6132003238  LPSA7     7               4.0000000000
      7106       223  AGLC      C6             -0.5754079900       17.5811486099       35.5245160098  LPSA7     7               4.0000000000
      7107       223  AGLC      H61            -0.4763980376       17.4803648076       34.4135318240  LPSA7     7               4.0000000000
      7108       223  AGLC      H62            -1.3079812230       16.8216939512       35.8722646349  LPSA7     7               4.0000000000
      7109       223  AGLC      O6             -1.0585744444       18.9490860510       35.6892983147  LPSA7     7               4.0000000000
      7110       223  AGLC      HO6            -1.5784318477       18.8307319680       36.4386090630  LPSA7     7               4.0000000000
      7111       224  AGLC      C1              3.3548448853       16.3456973259       39.9328324507  LPSA7     8               5.0000000000
      7112       224  AGLC      H1              2.8100031220       15.4494033715       39.5884769495  LPSA7     8               5.0000000000
      7113       224  AGLC      C5              5.6750551710       17.1828316701       40.2153373402  LPSA7     8               5.0000000000
      7114       224  AGLC      H5              5.3402642600       18.1574581561       39.8400606936  LPSA7     8               5.0000000000
      7115       224  AGLC      O5              4.7824421224       16.2019336776       39.6195505863  LPSA7     8               5.0000000000
      7116       224  AGLC      C2              3.2519044196       16.3146309956       41.4170311384  LPSA7     8               5.0000000000
      7117       224  AGLC      H2              3.6031300248       15.2846839145       41.6529594578  LPSA7     8               5.0000000000
      7118       224  AGLC      O2              1.9303122205       16.2872908507       41.9438754185  LPSA7     8               5.0000000000
      7119       224  AGLC      C3              4.0880387544       17.3153226925       42.1297388169  LPSA7     8               5.0000000000
      7120       224  AGLC      H3              3.6646434756       18.2539382779       41.6567950186  LPSA7     8               5.0000000000
      7121       224  AGLC      O3              3.8247993316       17.2677240493       43.5370978028  LPSA7     8               5.0000000000
      7122       224  AGLC      C4              5.4739510823       17.0646020088       41.7603093222  LPSA7     8               5.0000000000
      7123       224  AGLC      H4              5.7707979187       16.0707857200       42.0401368658  LPSA7     8               5.0000000000
      7124       224  AGLC      O4              6.3379505242       17.9801166527       42.3914819843  LPSA7     8               5.0000000000
      7125       224  AGLC      HO4             5.9342339478       18.8132269523       42.3800652601  LPSA7     8               5.0000000000
      7126       224  AGLC      C6              7.1454739258       17.1520539475       39.7357334439  LPSA7     8               5.0000000000
      7127       224  AGLC      H61             7.2608229004       17.0506603373       38.6468043611  LPSA7     8               5.0000000000
      7128       224  AGLC      H62             7.7343621745       18.0015888134       40.0276014644  LPSA7     8               5.0000000000
      7129       224  AGLC      O6              7.9092445423       16.1293916261       40.3040784562  LPSA7     8               5.0000000000
      7130       224  AGLC      HO6             8.2011020373       16.3425021705       41.2121845210  LPSA7     8               5.0000000000
      7131       225  AGAL      C1              1.0149017991       15.3529378635       41.4573847493  LPSA7     9               6.0000000000
      7132       225  AGAL      H1              1.0521248537       15.3225044259       40.3420235153  LPSA7     9               6.0000000000
      7133       225  AGAL      C5              0.9973311044       13.8179906975       43.2125447641  LPSA7     9               6.0000000000
      7134       225  AGAL      H5              1.5921602818       14.6607337509       43.7424973645  LPSA7     9               6.0000000000
      7135       225  AGAL      O5              1.1866111006       13.9547514550       41.8451689838  LPSA7     9               6.0000000000
      7136       225  AGAL      C2             -0.3685730927       15.8082463682       41.8393925249  LPSA7     9               6.0000000000
      7137       225  AGAL      H2             -1.0945837688       15.1317961159       41.4115621152  LPSA7     9               6.0000000000
      7138       225  AGAL      O2             -0.7454227228       17.0211978637       41.1608705954  LPSA7     9               6.0000000000
      7139       225  AGAL      C3             -0.6139187493       15.6736859416       43.3264191845  LPSA7     9               6.0000000000
      7140       225  AGAL      H3              0.0816111130       16.3935688889       43.9424563891  LPSA7     9               6.0000000000
      7141       225  AGAL      O3             -1.8473746156       16.1720178854       43.7491515633  LPSA7     9               6.0000000000
      7142       225  AGAL      HO3            -2.0488200008       16.9126780598       43.1585960960  LPSA7     9               6.0000000000
      7143       225  AGAL      C4             -0.4105822119       14.2481234768       43.6505755014  LPSA7     9               6.0000000000
      7144       225  AGAL      H4             -0.4623815882       14.0366388989       44.7734818408  LPSA7     9               6.0000000000
      7145       225  AGAL      O4             -1.3123590837       13.3706803723       43.0499075873  LPSA7     9               6.0000000000
      7146       225  AGAL      HO4            -1.4192669954       12.6263284686       43.6622427513  LPSA7     9               6.0000000000
      7147       225  AGAL      C6              1.6001192500       12.5577331218       43.8349081587  LPSA7     9               6.0000000000
      7148       225  AGAL      H61             2.6979458383       12.4437427210       43.6417203355  LPSA7     9               6.0000000000
      7149       225  AGAL      H62             1.5393020600       12.5120988286       44.9292747136  LPSA7     9               6.0000000000
      7150       225  AGAL      O6              0.9345093301       11.4082353536       43.4062227539  LPSA7     9               6.0000000000
      7151       225  AGAL      HO6             1.4727670378       11.0192868282       42.6923548993  LPSA7     9               6.0000000000
      7152       226  AGAL      C1             -1.3158288102       18.2125186706       41.7517281777  LPSA7     10              7.0000000000
      7153       226  AGAL      H1             -2.3803854862       17.9581267912       41.8429972083  LPSA7     10              7.0000000000
      7154       226  AGAL      C5              0.4750584294       19.1442095520       43.0613392294  LPSA7     10              7.0000000000
      7155       226  AGAL      H5              1.1174442509       18.2586780132       42.6233508762  LPSA7     10              7.0000000000
      7156       226  AGAL      O5             -0.9046642869       18.7305038429       43.0470213554  LPSA7     10              7.0000000000
      7157       226  AGAL      C2             -1.1165992370       19.3405022094       40.7227968417  LPSA7     10              7.0000000000
      7158       226  AGAL      H2             -1.8580728998       20.1707632293       41.0433947026  LPSA7     10              7.0000000000
      7159       226  AGAL      O2             -1.7793582970       19.1267214109       39.5532095562  LPSA7     10              7.0000000000
      7160       226  AGAL      HO2            -2.3413688751       19.8610827068       39.3379401176  LPSA7     10              7.0000000000
      7161       226  AGAL      C3              0.2884344846       19.8262986822       40.6928251787  LPSA7     10              7.0000000000
      7162       226  AGAL      H3              0.8585014237       18.9271935458       40.4679648945  LPSA7     10              7.0000000000
      7163       226  AGAL      O3              0.5502407475       20.8435661949       39.7732034444  LPSA7     10              7.0000000000
      7164       226  AGAL      HO3             1.0437363270       20.4435833861       39.0151094934  LPSA7     10              7.0000000000
      7165       226  AGAL      C4              0.6675531933       20.3051839152       42.0524071915  LPSA7     10              7.0000000000
      7166       226  AGAL      H4              1.7390534311       20.5778053208       42.1099272557  LPSA7     10              7.0000000000
      7167       226  AGAL      O4             -0.0604398146       21.4129077643       42.4965010455  LPSA7     10              7.0000000000
      7168       226  AGAL      HO4            -0.9404721788       21.0892989223       42.5675127347  LPSA7     10              7.0000000000
      7169       226  AGAL      C6              1.0848991424       19.4314042224       44.3959537205  LPSA7     10              7.0000000000
      7170       226  AGAL      H61             0.9244728200       18.6244940581       45.1044438806  LPSA7     10              7.0000000000
      7171       226  AGAL      H62             2.2714867504       19.4536186931       44.2564473849  LPSA7     10              7.0000000000
      7172       226  AGAL      O6              0.7426985783       20.6374037351       45.1112340130  LPSA7     10              7.0000000000
      7173       226  AGAL      HO6             0.2711800465       20.3783612246       45.9237589285  LPSA7     10              7.0000000000
      7174       227  BGLC      C1              4.5590732638       16.5358653430       44.5018065681  LPSA7     11              6.0000000000
      7175       227  BGLC      H1              5.4645404076       17.1180478608       44.5883763758  LPSA7     11              6.0000000000
      7176       227  BGLC      C5              5.5025889521       14.2998080449       45.1248117688  LPSA7     11              6.0000000000
      7177       227  BGLC      H5              6.5369135274       14.7178350928       45.3871201921  LPSA7     11              6.0000000000
      7178       227  BGLC      O5              4.7550265238       15.1265610040       44.0830650888  LPSA7     11              6.0000000000
      7179       227  BGLC      C2              3.7891033555       16.5190967606       45.7977571702  LPSA7     11              6.0000000000
      7180       227  BGLC      H2              2.7513338941       16.1055514000       45.7293388291  LPSA7     11              6.0000000000
      7181       227  BGLC      O2              3.5549906440       17.8892976477       46.0886391483  LPSA7     11              6.0000000000
      7182       227  BGLC      HO2             2.6442546068       18.0073871748       46.2788110113  LPSA7     11              6.0000000000
      7183       227  BGLC      C3              4.4313947228       15.7461185674       46.8736276645  LPSA7     11              6.0000000000
      7184       227  BGLC      H3              5.4059428726       16.3072906896       47.1984917368  LPSA7     11              6.0000000000
      7185       227  BGLC      O3              3.5700392539       15.7840297125       48.0056213318  LPSA7     11              6.0000000000
      7186       227  BGLC      C4              4.6682831204       14.3851824801       46.4390836423  LPSA7     11              6.0000000000
      7187       227  BGLC      H4              3.6397929690       13.9498022001       46.2001611147  LPSA7     11              6.0000000000
      7188       227  BGLC      O4              5.2021464769       13.5794162334       47.4766894645  LPSA7     11              6.0000000000
      7189       227  BGLC      HO4             4.5045541329       13.4254289464       48.1247908570  LPSA7     11              6.0000000000
      7190       227  BGLC      C6              5.8309928793       12.9198773484       44.5291127165  LPSA7     11              6.0000000000
      7191       227  BGLC      H61             6.0621993626       12.1457241339       45.2481190913  LPSA7     11              6.0000000000
      7192       227  BGLC      H62             4.9591098108       12.6293660399       43.8913252379  LPSA7     11              6.0000000000
      7193       227  BGLC      O6              6.9177920780       12.9178259784       43.5637942269  LPSA7     11              6.0000000000
      7194       227  BGLC      HO6             7.5828309076       12.4444005310       44.0054369298  LPSA7     11              6.0000000000
      7195       228  BGLCNA    C1              4.0243257396       16.1673493918       49.3238540420  LPSA7     12              7.0000000000
      7196       228  BGLCNA    H1              3.9522565517       17.3053262376       49.3874222992  LPSA7     12              7.0000000000
      7197       228  BGLCNA    C5              5.8490734743       16.2489435942       50.8763077070  LPSA7     12              7.0000000000
      7198       228  BGLCNA    H5              5.7783644611       17.4232982284       50.9814236466  LPSA7     12              7.0000000000
      7199       228  BGLCNA    O5              5.3880514552       15.7682075009       49.5875345322  LPSA7     12              7.0000000000
      7200       228  BGLCNA    C2              3.1306918219       15.5132466819       50.3245054808  LPSA7     12              7.0000000000
      7201       228  BGLCNA    H2              3.4240759826       14.3787553709       50.3375086743  LPSA7     12              7.0000000000
      7202       228  BGLCNA    N               1.7170894556       15.8231694331       50.0347611965  LPSA7     12              7.0000000000
      7203       228  BGLCNA    HN              1.6233865762       16.7625009486       49.9972643287  LPSA7     12              7.0000000000
      7204       228  BGLCNA    C               0.8398428355       14.8769166897       49.8903426450  LPSA7     12              7.0000000000
      7205       228  BGLCNA    O               1.1611842273       13.7132177956       50.0855928044  LPSA7     12              7.0000000000
      7206       228  BGLCNA    CT             -0.5618028497       15.2972869564       49.5677689528  LPSA7     12              7.0000000000
      7207       228  BGLCNA    HT1            -1.2641932190       15.0773896327       50.3918503408  LPSA7     12              7.0000000000
      7208       228  BGLCNA    HT2            -0.9955159303       14.6127826667       48.7104760971  LPSA7     12              7.0000000000
      7209       228  BGLCNA    HT3            -0.5056441121       16.3622214303       49.2316245990  LPSA7     12              7.0000000000
      7210       228  BGLCNA    C3              3.4804662832       15.9383830550       51.6995695120  LPSA7     12              7.0000000000
      7211       228  BGLCNA    H3              3.2811864382       17.0962781226       51.8605307917  LPSA7     12              7.0000000000
      7212       228  BGLCNA    O3              2.6179092012       15.3783746186       52.7272334264  LPSA7     12              7.0000000000
      7213       228  BGLCNA    C4              4.9105974819       15.5863796218       51.9591692987  LPSA7     12              7.0000000000
      7214       228  BGLCNA    H4              5.1417356283       14.4558970038       51.9037868612  LPSA7     12              7.0000000000
      7215       228  BGLCNA    O4              5.3191381962       15.9713970004       53.2294962294  LPSA7     12              7.0000000000
      7216       228  BGLCNA    HO4             5.4732155153       16.9596566967       53.2834945119  LPSA7     12              7.0000000000
      7217       228  BGLCNA    C6              7.3572440198       15.9360399595       50.9528560558  LPSA7     12              7.0000000000
      7218       228  BGLCNA    H61             7.7417497043       16.1865545921       51.9144325068  LPSA7     12              7.0000000000
      7219       228  BGLCNA    H62             7.3900310551       14.8592370076       50.8287962869  LPSA7     12              7.0000000000
      7220       228  BGLCNA    O6              8.0331253836       16.5045968069       49.8597561973  LPSA7     12              7.0000000000
      7221       228  BGLCNA    HO6             8.2773084091       17.3583036715       50.1903398796  LPSA7     12              7.0000000000
      7222       229  AGAL      C1              2.2341902470       16.2822386911       53.8132743488  LPSA7     13              8.0000000000
      7223       229  AGAL      H1              3.1425221987       16.7988546322       54.1959401301  LPSA7     13              8.0000000000
      7224       229  AGAL      C5             -0.1184500529       16.3576488277       53.2950732168  LPSA7     13              8.0000000000
      7225       229  AGAL      H5              0.1311574078       15.5916205200       52.5641412600  LPSA7     13              8.0000000000
      7226       229  AGAL      O5              1.0755129913       17.1315934766       53.4918445955  LPSA7     13              8.0000000000
      7227       229  AGAL      C2              1.7631207150       15.5516638747       55.1010141246  LPSA7     13              8.0000000000
      7228       229  AGAL      H2              1.3313838620       16.3035332670       55.7917211299  LPSA7     13              8.0000000000
      7229       229  AGAL      O2              2.8210353345       14.8977134587       55.7701983428  LPSA7     13              8.0000000000
      7230       229  AGAL      C3              0.4680984018       14.7285429998       54.8979691660  LPSA7     13              8.0000000000
      7231       229  AGAL      H3              0.6136265015       14.0697819672       54.0477453328  LPSA7     13              8.0000000000
      7232       229  AGAL      O3              0.2027533737       13.8338059098       55.9888739531  LPSA7     13              8.0000000000
      7233       229  AGAL      HO3            -0.1276296688       12.9945899541       55.6848713412  LPSA7     13              8.0000000000
      7234       229  AGAL      C4             -0.6100340318       15.5858394963       54.5514025965  LPSA7     13              8.0000000000
      7235       229  AGAL      H4             -1.5272471563       14.9788874948       54.1954731349  LPSA7     13              8.0000000000
      7236       229  AGAL      O4             -0.9777173625       16.4853910426       55.5743212917  LPSA7     13              8.0000000000
      7237       229  AGAL      HO4            -0.2590580045       16.9276413935       56.0499681296  LPSA7     13              8.0000000000
      7238       229  AGAL      C6             -1.2276455866       17.0527985692       52.5301443486  LPSA7     13              8.0000000000
      7239       229  AGAL      H61            -0.8142648187       17.5197905100       51.6253596531  LPSA7     13              8.0000000000
      7240       229  AGAL      H62            -2.0527646740       16.3152603586       52.3684678279  LPSA7     13              8.0000000000
      7241       229  AGAL      O6             -1.8097659433       18.0855841487       53.2985910507  LPSA7     13              8.0000000000
      7242       229  AGAL      HO6            -2.4293576649       17.6877769341       53.9299633642  LPSA7     13              8.0000000000
      7243       230  ARHM      C1              3.2671328420       15.3650754094       57.0117786358  LPSA7     14              9.0000000000
      7244       230  ARHM      H1              3.0437667916       16.4520553265       56.9981767125  LPSA7     14              9.0000000000
      7245       230  ARHM      C5              5.0479810741       13.8768170557       57.1930138837  LPSA7     14              9.0000000000
      7246       230  ARHM      H5              4.6913779915       13.4145487967       56.1976867078  LPSA7     14              9.0000000000
      7247       230  ARHM      O5              4.6673509250       15.2018235790       57.1718909996  LPSA7     14              9.0000000000
      7248       230  ARHM      C2              2.5139080276       14.6286574162       58.1413490634  LPSA7     14              9.0000000000
      7249       230  ARHM      H2              1.4695195409       14.7590987461       57.8875987320  LPSA7     14              9.0000000000
      7250       230  ARHM      O2              2.7912935321       15.0769566466       59.4330148990  LPSA7     14              9.0000000000
      7251       230  ARHM      C3              2.8858430400       13.1744637126       58.1095432995  LPSA7     14              9.0000000000
      7252       230  ARHM      H3              2.7765405798       12.8149317010       57.0440121713  LPSA7     14              9.0000000000
      7253       230  ARHM      O3              2.0560095513       12.3393579406       58.8567888868  LPSA7     14              9.0000000000
      7254       230  ARHM      HO3             2.3056616019       12.5136799246       59.8104957846  LPSA7     14              9.0000000000
      7255       230  ARHM      C4              4.3503273030       13.1012640828       58.3490442956  LPSA7     14              9.0000000000
      7256       230  ARHM      H4              4.7270666834       13.5660865931       59.2902338481  LPSA7     14              9.0000000000
      7257       230  ARHM      O4              4.7465395208       11.7053404246       58.4446785014  LPSA7     14              9.0000000000
      7258       230  ARHM      HO4             5.0565964440       11.4037232884       59.2969967688  LPSA7     14              9.0000000000
      7259       230  ARHM      C6              6.5815986916       13.7742807553       57.2492155848  LPSA7     14              9.0000000000
      7260       230  ARHM      H61             7.1351321682       14.4815663949       56.5358243550  LPSA7     14              9.0000000000
      7261       230  ARHM      H62             6.8482346456       13.9104385691       58.3170764683  LPSA7     14              9.0000000000
      7262       230  ARHM      H63             7.0722365470       12.8475780906       56.9421594120  LPSA7     14              9.0000000000
      7263       231  ARHM      C1              2.7124198273       16.3826033579       59.7267990175  LPSA7     15             10.0000000000
      7264       231  ARHM      H1              2.0085658027       16.9081355963       59.0458905905  LPSA7     15             10.0000000000
      7265       231  ARHM      C5              5.0001617662       16.6777333719       60.6468530148  LPSA7     15             10.0000000000
      7266       231  ARHM      H5              5.3699384474       15.6232441983       60.4457705401  LPSA7     15             10.0000000000
      7267       231  ARHM      O5              3.9873923137       17.0701364369       59.6688136410  LPSA7     15             10.0000000000
      7268       231  ARHM      C2              2.1615833971       16.5547864011       61.1407671534  LPSA7     15             10.0000000000
      7269       231  ARHM      H2              1.2050839377       15.9099394682       61.2133420761  LPSA7     15             10.0000000000
      7270       231  ARHM      O2              1.8863740921       17.9752688116       61.3234079317  LPSA7     15             10.0000000000
      7271       231  ARHM      C3              3.1685600725       16.0349672057       62.1677656617  LPSA7     15             10.0000000000
      7272       231  ARHM      H3              3.4141784775       14.9797292066       61.8628392879  LPSA7     15             10.0000000000
      7273       231  ARHM      O3              2.4238288581       15.9147887022       63.4092175029  LPSA7     15             10.0000000000
      7274       231  ARHM      C4              4.3882433981       16.8141885250       62.0487117432  LPSA7     15             10.0000000000
      7275       231  ARHM      H4              4.1107438653       17.9390886419       62.1496903561  LPSA7     15             10.0000000000
      7276       231  ARHM      O4              5.4519037116       16.5368253657       62.9635513464  LPSA7     15             10.0000000000
      7277       231  ARHM      HO4             6.0430666998       17.2745142428       62.9565205260  LPSA7     15             10.0000000000
      7278       231  ARHM      C6              6.2385516866       17.5206244722       60.4460959132  LPSA7     15             10.0000000000
      7279       231  ARHM      H61             7.1079593849       17.2349998086       61.0956562646  LPSA7     15             10.0000000000
      7280       231  ARHM      H62             6.4534578355       17.6061674665       59.3910198679  LPSA7     15             10.0000000000
      7281       231  ARHM      H63             6.1151019856       18.5616438289       60.8578185328  LPSA7     15             10.0000000000
      7282       232  BMANNA    C1              1.2601092728       18.4248432878       62.5145562334  LPSA7     16             11.0000000000
      7283       232  BMANNA    H1              2.0580061591       18.3441837728       63.3432051365  LPSA7     16             11.0000000000
      7284       232  BMANNA    C5             -0.3746471601       18.1679270190       64.1851548173  LPSA7     16             11.0000000000
      7285       232  BMANNA    H5              0.3822077552       18.1431527589       64.9800677769  LPSA7     16             11.0000000000
      7286       232  BMANNA    O5              0.1233262541       17.6693406861       62.9158851071  LPSA7     16             11.0000000000
      7287       232  BMANNA    C2              0.8819769072       19.9057345051       62.2781089586  LPSA7     16             11.0000000000
      7288       232  BMANNA    H2              1.8489488021       20.3963232090       61.9912908466  LPSA7     16             11.0000000000
      7289       232  BMANNA    N              -0.0903007243       20.2170179221       61.2264456342  LPSA7     16             11.0000000000
      7290       232  BMANNA    HN             -1.0008869248       20.2018666858       61.5688724990  LPSA7     16             11.0000000000
      7291       232  BMANNA    C               0.2055719852       20.4425610358       59.9704010620  LPSA7     16             11.0000000000
      7292       232  BMANNA    O               1.3970221641       20.4880551616       59.5582221915  LPSA7     16             11.0000000000
      7293       232  BMANNA    CT             -0.9643065963       20.6515036955       59.1331689300  LPSA7     16             11.0000000000
      7294       232  BMANNA    HT1            -1.1551272645       21.6703575948       58.8344492748  LPSA7     16             11.0000000000
      7295       232  BMANNA    HT2            -1.9129699792       20.2649695692       59.5043001239  LPSA7     16             11.0000000000
      7296       232  BMANNA    HT3            -0.8383597207       20.1430632605       58.1231520073  LPSA7     16             11.0000000000
      7297       232  BMANNA    C3              0.4044529386       20.4229585791       63.6119771117  LPSA7     16             11.0000000000
      7298       232  BMANNA    H3              1.2086497220       20.3020474723       64.3839812837  LPSA7     16             11.0000000000
      7299       232  BMANNA    O3              0.1195253533       21.7921945136       63.6122488842  LPSA7     16             11.0000000000
      7300       232  BMANNA    HO3             0.6041827888       22.2368723914       64.2950500102  LPSA7     16             11.0000000000
      7301       232  BMANNA    C4             -0.8198902708       19.6409390514       64.1045846713  LPSA7     16             11.0000000000
      7302       232  BMANNA    H4             -1.6784106163       19.7341137998       63.4124605202  LPSA7     16             11.0000000000
      7303       232  BMANNA    O4             -1.3675927526       20.0157293554       65.3816866120  LPSA7     16             11.0000000000
      7304       232  BMANNA    HO4            -2.2885886189       19.7644433382       65.4353184152  LPSA7     16             11.0000000000
      7305       232  BMANNA    C6             -1.5176064177       17.3098856874       64.7427751243  LPSA7     16             11.0000000000
      7306       232  BMANNA    H61            -1.4622418383       17.3792621344       65.8875394407  LPSA7     16             11.0000000000
      7307       232  BMANNA    H62            -2.4917803413       17.6989008333       64.4389269682  LPSA7     16             11.0000000000
      7308       232  BMANNA    O6             -1.4522130727       15.9199960435       64.3660927576  LPSA7     16             11.0000000000
      7309       232  BMANNA    HO6            -2.3112394206       15.8013919640       63.9036969990  LPSA7     16             11.0000000000
      7310       233  BGLCNA    C1              2.7328495348       14.8482730922       64.1715778089  LPSA7     17             11.0000000000
      7311       233  BGLCNA    H1              3.8177910239       14.5180019183       63.9082176002  LPSA7     17             11.0000000000
      7312       233  BGLCNA    C5              2.2159089458       12.4910879103       64.5563394407  LPSA7     17             11.0000000000
      7313       233  BGLCNA    H5              3.2738570290       12.1206084787       64.2825289487  LPSA7     17             11.0000000000
      7314       233  BGLCNA    O5              1.9611379833       13.6747563383       63.7849982893  LPSA7     17             11.0000000000
      7315       233  BGLCNA    C2              2.5025376311       15.2219523872       65.5899343931  LPSA7     17             11.0000000000
      7316       233  BGLCNA    H2              1.4240045302       15.5151953742       65.8249043900  LPSA7     17             11.0000000000
      7317       233  BGLCNA    N               3.1835405615       16.4173158345       65.8849826081  LPSA7     17             11.0000000000
      7318       233  BGLCNA    HN              4.0676747285       16.5996703809       65.4150135415  LPSA7     17             11.0000000000
      7319       233  BGLCNA    C               2.9356076170       17.3331370506       66.8043620798  LPSA7     17             11.0000000000
      7320       233  BGLCNA    O               1.9089677034       17.3181083491       67.4729873017  LPSA7     17             11.0000000000
      7321       233  BGLCNA    CT              3.9663818540       18.3837175779       66.9728872304  LPSA7     17             11.0000000000
      7322       233  BGLCNA    HT1             3.7997580239       19.3921849392       66.5529393721  LPSA7     17             11.0000000000
      7323       233  BGLCNA    HT2             4.9426846433       17.9358893380       66.7043805047  LPSA7     17             11.0000000000
      7324       233  BGLCNA    HT3             4.1339423570       18.6002913043       68.1408097225  LPSA7     17             11.0000000000
      7325       233  BGLCNA    C3              2.8872356621       14.0093417573       66.4076579941  LPSA7     17             11.0000000000
      7326       233  BGLCNA    H3              3.9527636560       13.8211141325       66.0441361901  LPSA7     17             11.0000000000
      7327       233  BGLCNA    O3              2.9349951123       14.4254810531       67.8205355914  LPSA7     17             11.0000000000
      7328       233  BGLCNA    C4              1.9551365579       12.8602008006       66.0496966154  LPSA7     17             11.0000000000
      7329       233  BGLCNA    H4              0.8551868674       13.1758465623       66.1123142204  LPSA7     17             11.0000000000
      7330       233  BGLCNA    O4              2.1011688975       11.7553429363       66.9186044206  LPSA7     17             11.0000000000
      7331       233  BGLCNA    HO4             1.5678211248       10.9950043139       66.7204061560  LPSA7     17             11.0000000000
      7332       233  BGLCNA    C6              1.2502917285       11.3717732228       64.1200051697  LPSA7     17             11.0000000000
      7333       233  BGLCNA    H61             1.7565016855       10.4261641797       64.1272946536  LPSA7     17             11.0000000000
      7334       233  BGLCNA    H62             0.3627842471       11.2970297204       64.8212395067  LPSA7     17             11.0000000000
      7335       233  BGLCNA    O6              0.7445676944       11.5701531279       62.7926115083  LPSA7     17             11.0000000000
      7336       233  BGLCNA    HO6             1.4755590263       11.6006820264       62.1856770532  LPSA7     17             11.0000000000
      7337       234  AGAL      C1              3.9697443872       13.7977276103       68.6198653987  LPSA7     18             12.0000000000
      7338       234  AGAL      H1              3.6437711415       12.7320683442       68.8082567594  LPSA7     18             12.0000000000
      7339       234  AGAL      C5              5.8030272849       15.1522717624       67.8636918791  LPSA7     18             12.0000000000
      7340       234  AGAL      H5              5.0463996921       15.7964273974       67.4068928888  LPSA7     18             12.0000000000
      7341       234  AGAL      O5              5.2288780830       13.8007775697       67.9834320655  LPSA7     18             12.0000000000
      7342       234  AGAL      C2              4.1743745572       14.5308650349       70.0000206359  LPSA7     18             12.0000000000
      7343       234  AGAL      H2              5.0081140813       13.9032894283       70.3908489884  LPSA7     18             12.0000000000
      7344       234  AGAL      O2              3.0869155243       14.3056597061       70.8342757016  LPSA7     18             12.0000000000
      7345       234  AGAL      C3              4.7178679471       15.9109236208       69.8682924558  LPSA7     18             12.0000000000
      7346       234  AGAL      H3              4.0630513226       16.4870322036       69.0958348126  LPSA7     18             12.0000000000
      7347       234  AGAL      O3              4.7075641020       16.6108772547       71.0758896640  LPSA7     18             12.0000000000
      7348       234  AGAL      HO3             4.3578254648       17.4971223757       70.9682873819  LPSA7     18             12.0000000000
      7349       234  AGAL      C4              6.0120587877       15.8499661864       69.1634745928  LPSA7     18             12.0000000000
      7350       234  AGAL      H4              6.4721388526       16.8323114934       68.9039691178  LPSA7     18             12.0000000000
      7351       234  AGAL      O4              7.0025420784       15.1641954054       69.9734134928  LPSA7     18             12.0000000000
      7352       234  AGAL      HO4             7.3038119076       15.7853951168       70.7236544006  LPSA7     18             12.0000000000
      7353       234  AGAL      C6              6.8119984660       15.1069768649       66.8042742825  LPSA7     18             12.0000000000
      7354       234  AGAL      H61             6.2901460876       14.8272085308       65.8877991861  LPSA7     18             12.0000000000
      7355       234  AGAL      H62             7.1605986310       16.1641723822       66.6499463921  LPSA7     18             12.0000000000
      7356       234  AGAL      O6              7.8163214897       14.2451964414       66.9803033045  LPSA7     18             12.0000000000
      7357       234  AGAL      HO6             7.7277117004       13.5961687614       67.6707071977  LPSA7     18             12.0000000000
      7358       235  ARHM      C1              3.5460605264       14.0202275043       72.1803514454  LPSA7     19             13.0000000000
      7359       235  ARHM      H1              4.5483201182       14.3730714633       72.3185909119  LPSA7     19             13.0000000000
      7360       235  ARHM      C5              2.5508109699       11.8690179500       72.2512180912  LPSA7     19             13.0000000000
      7361       235  ARHM      H5              2.1829091604       12.0763809200       71.2133247196  LPSA7     19             13.0000000000
      7362       235  ARHM      O5              3.7545731670       12.6204780220       72.4162684983  LPSA7     19             13.0000000000
      7363       235  ARHM      C2              2.5415746856       14.5935636666       73.1100514097  LPSA7     19             13.0000000000
      7364       235  ARHM      H2              2.2787200902       15.6061932795       72.9420985559  LPSA7     19             13.0000000000
      7365       235  ARHM      O2              2.9999708291       14.4857357367       74.4131644751  LPSA7     19             13.0000000000
      7366       235  ARHM      C3              1.2376632093       13.7458960854       72.9859276785  LPSA7     19             13.0000000000
      7367       235  ARHM      H3              0.9222095180       13.8003841519       71.9471750908  LPSA7     19             13.0000000000
      7368       235  ARHM      O3              0.2236256181       14.2704537483       73.7644258584  LPSA7     19             13.0000000000
      7369       235  ARHM      HO3             0.5894892905       14.4007583361       74.6464134549  LPSA7     19             13.0000000000
      7370       235  ARHM      C4              1.4537343628       12.3146457966       73.2443334127  LPSA7     19             13.0000000000
      7371       235  ARHM      H4              1.8377187371       12.2505715027       74.2703943704  LPSA7     19             13.0000000000
      7372       235  ARHM      O4              0.3154533136       11.5153623489       73.1708570575  LPSA7     19             13.0000000000
      7373       235  ARHM      HO4             0.0216833378       11.5525403264       72.2126258713  LPSA7     19             13.0000000000
      7374       235  ARHM      C6              2.8241047931       10.3550596181       72.3031700958  LPSA7     19             13.0000000000
      7375       235  ARHM      H61             3.5574488498       10.2564551468       71.5186681997  LPSA7     19             13.0000000000
      7376       235  ARHM      H62             3.2497872181        9.9665388657       73.2001761489  LPSA7     19             13.0000000000
      7377       235  ARHM      H63             1.9419559420        9.7456273979       72.0875448643  LPSA7     19             13.0000000000
      7378       236  ARHM      C1              3.9754317104       15.4334554030       74.6981797177  LPSA7     20             14.0000000000
      7379       236  ARHM      H1              4.0589589736       16.2349888467       73.8936196974  LPSA7     20             14.0000000000
      7380       236  ARHM      C5              5.4699736896       14.0823784483       75.9960310464  LPSA7     20             14.0000000000
      7381       236  ARHM      H5              4.7164256597       13.2755982626       75.8071112250  LPSA7     20             14.0000000000
      7382       236  ARHM      O5              5.3112467096       14.9595009269       74.8741575474  LPSA7     20             14.0000000000
      7383       236  ARHM      C2              3.5749500845       16.2203475276       75.9438944127  LPSA7     20             14.0000000000
      7384       236  ARHM      H2              2.4575543452       16.5262951207       75.7904987900  LPSA7     20             14.0000000000
      7385       236  ARHM      O2              4.4165312824       17.3645173916       76.2145535291  LPSA7     20             14.0000000000
      7386       236  ARHM      C3              3.7397202461       15.2989312526       77.0746584307  LPSA7     20             14.0000000000
      7387       236  ARHM      H3              3.0393774826       14.3908317583       76.9570890266  LPSA7     20             14.0000000000
      7388       236  ARHM      O3              3.2649207767       16.0134464544       78.2431898216  LPSA7     20             14.0000000000
      7389       236  ARHM      C4              5.1384687956       14.7989410689       77.2147849866  LPSA7     20             14.0000000000
      7390       236  ARHM      H4              5.8596814954       15.5867231542       77.2882629629  LPSA7     20             14.0000000000
      7391       236  ARHM      O4              5.2376602468       14.0196011271       78.4294019453  LPSA7     20             14.0000000000
      7392       236  ARHM      HO4             5.8969535982       13.4573082358       78.0714846557  LPSA7     20             14.0000000000
      7393       236  ARHM      C6              6.8149773244       13.4853688444       75.9818768401  LPSA7     20             14.0000000000
      7394       236  ARHM      H61             7.7224432595       14.1573744490       76.0487105533  LPSA7     20             14.0000000000
      7395       236  ARHM      H62             6.8894471365       12.7127350902       76.7492574554  LPSA7     20             14.0000000000
      7396       236  ARHM      H63             7.0751656232       12.9352717078       75.0059134709  LPSA7     20             14.0000000000
      7397       237  BMANNA    C1              3.9123690926       18.3988722595       75.4501725836  LPSA7     21             15.0000000000
      7398       237  BMANNA    H1              3.1578453835       18.0173658689       74.6495731600  LPSA7     21             15.0000000000
      7399       237  BMANNA    C5              4.3188229467       19.9097402417       73.6578092950  LPSA7     21             15.0000000000
      7400       237  BMANNA    H5              3.3891503406       19.5401877194       73.0422409194  LPSA7     21             15.0000000000
      7401       237  BMANNA    O5              4.9451527982       18.9215001879       74.5460975074  LPSA7     21             15.0000000000
      7402       237  BMANNA    C2              3.3656789868       19.4785762086       76.3268603500  LPSA7     21             15.0000000000
      7403       237  BMANNA    H2              2.5862506583       18.9374497242       76.8663433126  LPSA7     21             15.0000000000
      7404       237  BMANNA    N               4.3671149627       19.9874364853       77.2602735953  LPSA7     21             15.0000000000
      7405       237  BMANNA    HN              5.2051054578       20.2765256442       76.8630196157  LPSA7     21             15.0000000000
      7406       237  BMANNA    C               4.1246274832       20.3462481703       78.6142451918  LPSA7     21             15.0000000000
      7407       237  BMANNA    O               2.9695613549       20.4216658437       79.0340579138  LPSA7     21             15.0000000000
      7408       237  BMANNA    CT              5.3329599856       20.6924020158       79.5125915666  LPSA7     21             15.0000000000
      7409       237  BMANNA    HT1             5.6322242725       21.7458857829       79.3040814335  LPSA7     21             15.0000000000
      7410       237  BMANNA    HT2             6.0966207073       19.9198855299       79.3224353366  LPSA7     21             15.0000000000
      7411       237  BMANNA    HT3             5.0370904172       20.6340349494       80.6000991146  LPSA7     21             15.0000000000
      7412       237  BMANNA    C3              2.7487041830       20.5044747904       75.4428482744  LPSA7     21             15.0000000000
      7413       237  BMANNA    H3              1.9416584398       19.9307509353       75.0091666053  LPSA7     21             15.0000000000
      7414       237  BMANNA    O3              2.1673999630       21.5712861022       76.1769203835  LPSA7     21             15.0000000000
      7415       237  BMANNA    HO3             2.8344364470       21.9236513438       76.7354970047  LPSA7     21             15.0000000000
      7416       237  BMANNA    C4              3.7741848155       21.0571575675       74.4866217523  LPSA7     21             15.0000000000
      7417       237  BMANNA    H4              4.6576373181       21.6801062371       75.0002820064  LPSA7     21             15.0000000000
      7418       237  BMANNA    O4              3.2321644720       22.0078190992       73.6152290754  LPSA7     21             15.0000000000
      7419       237  BMANNA    HO4             3.6259527705       22.8948030560       73.7703874424  LPSA7     21             15.0000000000
      7420       237  BMANNA    C6              5.2262579500       20.3612671100       72.6348027846  LPSA7     21             15.0000000000
      7421       237  BMANNA    H61             4.7381254653       20.9750187113       71.8494922130  LPSA7     21             15.0000000000
      7422       237  BMANNA    H62             5.8980555421       21.1579377595       73.0558617198  LPSA7     21             15.0000000000
      7423       237  BMANNA    O6              6.0813122769       19.4164696596       72.0654385618  LPSA7     21             15.0000000000
      7424       237  BMANNA    HO6             6.5469992471       18.9808982277       72.7784055652  LPSA7     21             15.0000000000
      7425       238  BGLCNA    C1              2.5542154688       15.3456399347       79.2248726046  LPSA7     22             15.0000000000
      7426       238  BGLCNA    H1              2.7614722156       14.2366130292       79.2753119810  LPSA7     22             15.0000000000
      7427       238  BGLCNA    C5              0.4138001021       14.6981143741       80.1145289529  LPSA7     22             15.0000000000
      7428       238  BGLCNA    H5              0.8120823836       13.5978896754       80.0727605020  LPSA7     22             15.0000000000
      7429       238  BGLCNA    O5              1.1660229419       15.4228554990       79.0803056561  LPSA7     22             15.0000000000
      7430       238  BGLCNA    C2              2.9320565796       15.9326621387       80.5602818744  LPSA7     22             15.0000000000
      7431       238  BGLCNA    H2              2.5735885980       17.0181464018       80.4633107900  LPSA7     22             15.0000000000
      7432       238  BGLCNA    N               4.3706450143       15.8589714842       80.7025670875  LPSA7     22             15.0000000000
      7433       238  BGLCNA    HN              4.7831749577       15.0101361185       80.4501896382  LPSA7     22             15.0000000000
      7434       238  BGLCNA    C               5.1096000106       16.7509775864       81.3295640408  LPSA7     22             15.0000000000
      7435       238  BGLCNA    O               4.6002006888       17.7630205244       81.8448112003  LPSA7     22             15.0000000000
      7436       238  BGLCNA    CT              6.5689010782       16.4856349708       81.4359073222  LPSA7     22             15.0000000000
      7437       238  BGLCNA    HT1             6.9472040597       16.9552818606       80.5353412834  LPSA7     22             15.0000000000
      7438       238  BGLCNA    HT2             6.7195947829       15.3935215346       81.2752873926  LPSA7     22             15.0000000000
      7439       238  BGLCNA    HT3             7.0284722974       16.7392731823       82.3679651303  LPSA7     22             15.0000000000
      7440       238  BGLCNA    C3              2.1907247537       15.2477189428       81.6855161512  LPSA7     22             15.0000000000
      7441       238  BGLCNA    H3              2.4316316815       14.1558620675       81.6419517197  LPSA7     22             15.0000000000
      7442       238  BGLCNA    O3              2.7231236915       15.7903413835       82.8729300216  LPSA7     22             15.0000000000
      7443       238  BGLCNA    C4              0.6771908102       15.3464501984       81.4704242134  LPSA7     22             15.0000000000
      7444       238  BGLCNA    H4              0.4636370903       16.3813712469       81.4144045074  LPSA7     22             15.0000000000
      7445       238  BGLCNA    O4             -0.0671207749       14.7578510517       82.5140850489  LPSA7     22             15.0000000000
      7446       238  BGLCNA    HO4            -0.8320096563       15.3249585920       82.7130071916  LPSA7     22             15.0000000000
      7447       238  BGLCNA    C6             -1.0565294207       14.7768173188       79.7284495560  LPSA7     22             15.0000000000
      7448       238  BGLCNA    H61            -1.5938680421       14.5349719805       80.6924177192  LPSA7     22             15.0000000000
      7449       238  BGLCNA    H62            -1.3518181908       15.8145430349       79.4648784538  LPSA7     22             15.0000000000
      7450       238  BGLCNA    O6             -1.4676606769       13.8213993443       78.8100863794  LPSA7     22             15.0000000000
      7451       238  BGLCNA    HO6            -0.9400141893       13.9099522901       78.0328486455  LPSA7     22             15.0000000000
      7452       239  AGAL      C1              2.5863166158       15.1022112087       84.0628261254  LPSA7     23             16.0000000000
      7453       239  AGAL      H1              1.5583137003       15.1953613720       84.5106287163  LPSA7     23             16.0000000000
      7454       239  AGAL      C5              4.2777145617       13.4538589716       83.7583018441  LPSA7     23             16.0000000000
      7455       239  AGAL      H5              4.6095919719       14.0617996171       82.8366412438  LPSA7     23             16.0000000000
      7456       239  AGAL      O5              2.9126847337       13.7102103876       83.9976212264  LPSA7     23             16.0000000000
      7457       239  AGAL      C2              3.4492021260       15.7279510107       85.1427633740  LPSA7     23             16.0000000000
      7458       239  AGAL      H2              3.2605533006       15.1339920651       86.0076373284  LPSA7     23             16.0000000000
      7459       239  AGAL      O2              3.0653415204       17.0341186113       85.5000844886  LPSA7     23             16.0000000000
      7460       239  AGAL      C3              4.9078156055       15.5239109534       84.9194901020  LPSA7     23             16.0000000000
      7461       239  AGAL      H3              5.1009444996       15.8890276393       83.8641570193  LPSA7     23             16.0000000000
      7462       239  AGAL      O3              5.7591269541       16.2677260189       85.7108298168  LPSA7     23             16.0000000000
      7463       239  AGAL      HO3             5.3999979368       16.1609706169       86.6206525111  LPSA7     23             16.0000000000
      7464       239  AGAL      C4              5.1585555596       14.0458641468       84.8901212015  LPSA7     23             16.0000000000
      7465       239  AGAL      H4              6.2165814185       13.7939117635       84.6506069022  LPSA7     23             16.0000000000
      7466       239  AGAL      O4              4.9664285309       13.3517080656       86.1132943683  LPSA7     23             16.0000000000
      7467       239  AGAL      HO4             4.6476248728       12.5559262614       85.8278371007  LPSA7     23             16.0000000000
      7468       239  AGAL      C6              4.4941798542       12.0277419467       83.3278962909  LPSA7     23             16.0000000000
      7469       239  AGAL      H61             3.7672692568       11.7581081292       82.6074235255  LPSA7     23             16.0000000000
      7470       239  AGAL      H62             5.4207711460       11.8943557968       82.7620574208  LPSA7     23             16.0000000000
      7471       239  AGAL      O6              4.3301899371       11.1636937632       84.3845202183  LPSA7     23             16.0000000000
      7472       239  AGAL      HO6             4.4111372153       10.2452607028       84.1740981585  LPSA7     23             16.0000000000
      7473       240  ARHM      C1              1.9294416646       17.3552574159       86.2818185944  LPSA7     24             17.0000000000
      7474       240  ARHM      H1              1.3357202753       16.4657516110       86.3680542693  LPSA7     24             17.0000000000
      7475       240  ARHM      C5              1.6595263525       19.6467991304       85.6157638072  LPSA7     24             17.0000000000
      7476       240  ARHM      H5              2.5317621555       19.5358962064       85.0070975499  LPSA7     24             17.0000000000
      7477       240  ARHM      O5              0.9899732236       18.4145427420       85.8657410059  LPSA7     24             17.0000000000
      7478       240  ARHM      C2              2.5372364461       17.7312252445       87.5921581840  LPSA7     24             17.0000000000
      7479       240  ARHM      H2              3.3005983127       17.0403823551       87.8984046741  LPSA7     24             17.0000000000
      7480       240  ARHM      O2              1.5440576074       17.9703465627       88.6075763533  LPSA7     24             17.0000000000
      7481       240  ARHM      C3              3.2380311907       19.0865984895       87.4133527752  LPSA7     24             17.0000000000
      7482       240  ARHM      H3              4.0159738017       18.9081031143       86.6640279609  LPSA7     24             17.0000000000
      7483       240  ARHM      O3              4.0153258413       19.5169679499       88.5620392964  LPSA7     24             17.0000000000
      7484       240  ARHM      HO3             3.3855721327       19.9915457558       89.1463757531  LPSA7     24             17.0000000000
      7485       240  ARHM      C4              2.2692463456       20.1621104405       86.9402325015  LPSA7     24             17.0000000000
      7486       240  ARHM      H4              1.3969103918       20.2061793939       87.7071552895  LPSA7     24             17.0000000000
      7487       240  ARHM      O4              2.8258378031       21.4548477769       86.8379508285  LPSA7     24             17.0000000000
      7488       240  ARHM      HO4             2.2226465083       22.1566753084       87.0219124236  LPSA7     24             17.0000000000
      7489       240  ARHM      C6              0.7328587907       20.7255295751       84.9175891319  LPSA7     24             17.0000000000
      7490       240  ARHM      H61             1.3663651357       21.4333211361       84.3853494017  LPSA7     24             17.0000000000
      7491       240  ARHM      H62             0.1239120132       20.1833440021       84.2649634992  LPSA7     24             17.0000000000
      7492       240  ARHM      H63             0.0234466335       21.1890870611       85.6811466487  LPSA7     24             17.0000000000
      7493       241  ARHM      C1              1.0791816673       16.7432775409       89.1588742089  LPSA7     25             18.0000000000
      7494       241  ARHM      H1              1.2575634223       15.9530948508       88.4722246341  LPSA7     25             18.0000000000
      7495       241  ARHM      C5             -0.8799454758       17.6755121074       90.1670531641  LPSA7     25             18.0000000000
      7496       241  ARHM      H5             -0.6543435742       18.6697651044       89.8870230824  LPSA7     25             18.0000000000
      7497       241  ARHM      O5             -0.3597876887       16.7057124753       89.2315309535  LPSA7     25             18.0000000000
      7498       241  ARHM      C2              1.7288959372       16.5253569812       90.4685713243  LPSA7     25             18.0000000000
      7499       241  ARHM      H2              2.8512799800       16.6928285330       90.3413143991  LPSA7     25             18.0000000000
      7500       241  ARHM      O2              1.4604066219       15.1661715777       90.9328696740  LPSA7     25             18.0000000000
      7501       241  ARHM      C3              1.1022790065       17.5624124563       91.4562257518  LPSA7     25             18.0000000000
      7502       241  ARHM      H3              1.3713646228       18.5768436613       91.0689171631  LPSA7     25             18.0000000000
      7503       241  ARHM      O3              1.7558317995       17.3611435987       92.6920647463  LPSA7     25             18.0000000000
      7504       241  ARHM      C4             -0.3195434047       17.4699977270       91.5960769721  LPSA7     25             18.0000000000
      7505       241  ARHM      H4             -0.6616615688       16.3919298404       91.8876801091  LPSA7     25             18.0000000000
      7506       241  ARHM      O4             -0.7029313238       18.4244191656       92.5862492282  LPSA7     25             18.0000000000
      7507       241  ARHM      HO4            -1.4271472567       18.0053820357       93.0149361445  LPSA7     25             18.0000000000
      7508       241  ARHM      C6             -2.4072923976       17.6674784596       90.2083352735  LPSA7     25             18.0000000000
      7509       241  ARHM      H61            -2.8531402986       17.7144176081       89.1912344565  LPSA7     25             18.0000000000
      7510       241  ARHM      H62            -2.8371194784       16.7370321987       90.6686969550  LPSA7     25             18.0000000000
      7511       241  ARHM      H63            -2.8536935641       18.5380897946       90.8233913566  LPSA7     25             18.0000000000
      7512       242  BMANNA    C1              2.2543885372       14.1820867810       90.3138108879  LPSA7     26             19.0000000000
      7513       242  BMANNA    H1              3.1795984880       14.6232340306       89.8388342826  LPSA7     26             19.0000000000
      7514       242  BMANNA    C5              2.5210370242       12.5104934487       88.6312665858  LPSA7     26             19.0000000000
      7515       242  BMANNA    H5              3.3238713455       13.0918896984       88.1771240033  LPSA7     26             19.0000000000
      7516       242  BMANNA    O5              1.6174308693       13.4453454040       89.2346891933  LPSA7     26             19.0000000000
      7517       242  BMANNA    C2              2.6719887135       13.2558699318       91.3475147821  LPSA7     26             19.0000000000
      7518       242  BMANNA    H2              3.2180613944       13.9049187597       92.1081287357  LPSA7     26             19.0000000000
      7519       242  BMANNA    N               1.4643088023       12.6238472905       91.9238920796  LPSA7     26             19.0000000000
      7520       242  BMANNA    HN              0.8851281801       12.1749052865       91.3050515894  LPSA7     26             19.0000000000
      7521       242  BMANNA    C               1.1891873321       12.5515595724       93.1798471680  LPSA7     26             19.0000000000
      7522       242  BMANNA    O               1.8615015147       13.2008472269       94.0003587425  LPSA7     26             19.0000000000
      7523       242  BMANNA    CT              0.0558328656       11.6545388354       93.6758917343  LPSA7     26             19.0000000000
      7524       242  BMANNA    HT1            -0.5914520280       11.5023174339       92.8666282051  LPSA7     26             19.0000000000
      7525       242  BMANNA    HT2            -0.4820142652       11.8329968698       94.6620984389  LPSA7     26             19.0000000000
      7526       242  BMANNA    HT3             0.5271744072       10.6794442669       93.8484898219  LPSA7     26             19.0000000000
      7527       242  BMANNA    C3              3.6669268119       12.2818598202       90.7100883268  LPSA7     26             19.0000000000
      7528       242  BMANNA    H3              4.5371501656       12.8783786037       90.3384445889  LPSA7     26             19.0000000000
      7529       242  BMANNA    O3              4.1849389272       11.4252658830       91.7636866611  LPSA7     26             19.0000000000
      7530       242  BMANNA    HO3             4.7751646379       12.0079281588       92.2265744207  LPSA7     26             19.0000000000
      7531       242  BMANNA    C4              3.0151743104       11.5851656537       89.6481622736  LPSA7     26             19.0000000000
      7532       242  BMANNA    H4              2.1096256500       10.9614208136       89.9013799111  LPSA7     26             19.0000000000
      7533       242  BMANNA    O4              3.8856695216       10.6404464635       89.0416847738  LPSA7     26             19.0000000000
      7534       242  BMANNA    HO4             3.8641718351        9.8366217619       89.5591157304  LPSA7     26             19.0000000000
      7535       242  BMANNA    C6              1.7499217241       11.9683400204       87.3900617492  LPSA7     26             19.0000000000
      7536       242  BMANNA    H61             1.1270505158       12.7493438580       86.9191763972  LPSA7     26             19.0000000000
      7537       242  BMANNA    H62             2.4056939650       11.5888439562       86.6504270337  LPSA7     26             19.0000000000
      7538       242  BMANNA    O6              0.8844949598       10.8915846344       87.7329108337  LPSA7     26             19.0000000000
      7539       242  BMANNA    HO6             1.3703805625       10.2225692387       88.1688153196  LPSA7     26             19.0000000000
      7540       243  BGLCNA    C1              2.2489770961       18.3559983941       93.4616184899  LPSA7     27             19.0000000000
      7541       243  BGLCNA    H1              1.5920111689       19.2198722248       93.4392217979  LPSA7     27             19.0000000000
      7542       243  BGLCNA    C5              3.9671195166       19.9167089765       93.9656603721  LPSA7     27             19.0000000000
      7543       243  BGLCNA    H5              3.1671401415       20.7007578791       93.9564344452  LPSA7     27             19.0000000000
      7544       243  BGLCNA    O5              3.5242702933       18.8959931596       93.0607755266  LPSA7     27             19.0000000000
      7545       243  BGLCNA    C2              2.3158008956       17.7866956417       94.8806799918  LPSA7     27             19.0000000000
      7546       243  BGLCNA    H2              3.0852916490       16.9953649607       94.8757458582  LPSA7     27             19.0000000000
      7547       243  BGLCNA    N               1.0387291770       17.2054960335       95.2501113516  LPSA7     27             19.0000000000
      7548       243  BGLCNA    HN              0.1928820148       17.8118670993       95.0827132934  LPSA7     27             19.0000000000
      7549       243  BGLCNA    C               1.0988414682       16.0059942462       95.9523160909  LPSA7     27             19.0000000000
      7550       243  BGLCNA    O               2.1258636748       15.5290917166       96.5238801166  LPSA7     27             19.0000000000
      7551       243  BGLCNA    CT             -0.2654578828       15.2530640464       96.0293745529  LPSA7     27             19.0000000000
      7552       243  BGLCNA    HT1            -1.0261406396       15.7442777698       95.3635606282  LPSA7     27             19.0000000000
      7553       243  BGLCNA    HT2            -0.6453834206       15.1123063313       97.0167906789  LPSA7     27             19.0000000000
      7554       243  BGLCNA    HT3            -0.0528898840       14.1604047391       95.7039804309  LPSA7     27             19.0000000000
      7555       243  BGLCNA    C3              2.7726341188       18.8506118459       95.7540348103  LPSA7     27             19.0000000000
      7556       243  BGLCNA    H3              2.0854356956       19.7329028510       95.7401190096  LPSA7     27             19.0000000000
      7557       243  BGLCNA    O3              2.7618848230       18.2150570239       97.0775356047  LPSA7     27             19.0000000000
      7558       243  BGLCNA    C4              4.1512900241       19.4076391741       95.3486864533  LPSA7     27             19.0000000000
      7559       243  BGLCNA    H4              4.8893743043       18.5737241831       95.3090014479  LPSA7     27             19.0000000000
      7560       243  BGLCNA    O4              4.5794757639       20.3926201056       96.2156872787  LPSA7     27             19.0000000000
      7561       243  BGLCNA    HO4             4.0152117564       21.1125876574       96.0162444362  LPSA7     27             19.0000000000
      7562       243  BGLCNA    C6              5.2212349017       20.5639683966       93.2852949846  LPSA7     27             19.0000000000
      7563       243  BGLCNA    H61             5.4129153121       21.4775430183       93.8557506920  LPSA7     27             19.0000000000
      7564       243  BGLCNA    H62             6.1190180471       19.9289475615       93.4725180191  LPSA7     27             19.0000000000
      7565       243  BGLCNA    O6              4.9959044764       20.8121921094       91.9076175409  LPSA7     27             19.0000000000
      7566       243  BGLCNA    HO6             5.8183785894       21.1915364695       91.5273290588  LPSA7     27             19.0000000000
      7567       244  AGAL      C1              2.8051832000       19.0459538699       98.2622020222  LPSA7     28             20.0000000000
      7568       244  AGAL      H1              3.7605983074       19.4955094335       98.3007149491  LPSA7     28             20.0000000000
      7569       244  AGAL      C5              0.4707957074       19.6944955635       98.1710438288  LPSA7     28             20.0000000000
      7570       244  AGAL      H5              0.2848376250       18.7512998326       97.4646141937  LPSA7     28             20.0000000000
      7571       244  AGAL      O5              1.8905612765       20.1299325080       98.1147365872  LPSA7     28             20.0000000000
      7572       244  AGAL      C2              2.4976557540       18.3902574474       99.6197190629  LPSA7     28             20.0000000000
      7573       244  AGAL      H2              2.6008953995       19.2358109938      100.2965066153  LPSA7     28             20.0000000000
      7574       244  AGAL      O2              3.4116130333       17.4059752906      100.0788731798  LPSA7     28             20.0000000000
      7575       244  AGAL      C3              1.0769264057       17.9359274113       99.7396972452  LPSA7     28             20.0000000000
      7576       244  AGAL      H3              0.8647037374       17.2494060668       98.8607737785  LPSA7     28             20.0000000000
      7577       244  AGAL      O3              0.6752680016       17.1885053873      100.9043404272  LPSA7     28             20.0000000000
      7578       244  AGAL      HO3             0.4102263741       16.3132312872      100.5606486229  LPSA7     28             20.0000000000
      7579       244  AGAL      C4              0.1838632969       19.0887971224       99.5102226768  LPSA7     28             20.0000000000
      7580       244  AGAL      H4             -0.8159150932       18.7262801991       99.4798298294  LPSA7     28             20.0000000000
      7581       244  AGAL      O4              0.2910375589       20.0856001708      100.4757933835  LPSA7     28             20.0000000000
      7582       244  AGAL      HO4            -0.4417607460       19.9751657992      101.0376442747  LPSA7     28             20.0000000000
      7583       244  AGAL      C6             -0.5338276370       20.7188899183       97.6362902244  LPSA7     28             20.0000000000
      7584       244  AGAL      H61            -0.3352438535       20.8941785598       96.5809275898  LPSA7     28             20.0000000000
      7585       244  AGAL      H62            -1.6500556592       20.4686331758       97.7651048223  LPSA7     28             20.0000000000
      7586       244  AGAL      O6             -0.3950444393       21.9325397195       98.3456070822  LPSA7     28             20.0000000000
      7587       244  AGAL      HO6             0.2822298651       22.4766254888       97.9416813930  LPSA7     28             20.0000000000
      7588       245  ARHM      C1              3.6852337042       17.6374672315      101.4808913342  LPSA7     29             21.0000000000
      7589       245  ARHM      H1              2.8047081934       18.1412156627      101.9964955809  LPSA7     29             21.0000000000
      7590       245  ARHM      C5              5.9985528538       17.8645418903      101.1486206043  LPSA7     29             21.0000000000
      7591       245  ARHM      H5              5.7587917850       17.6246218320      100.0935446791  LPSA7     29             21.0000000000
      7592       245  ARHM      O5              4.8295377871       18.4175148082      101.6833506475  LPSA7     29             21.0000000000
      7593       245  ARHM      C2              3.8064110826       16.3377580968      102.1437305515  LPSA7     29             21.0000000000
      7594       245  ARHM      H2              2.9849319327       15.6931825961      101.9067628034  LPSA7     29             21.0000000000
      7595       245  ARHM      O2              3.8772525724       16.4624315734      103.5748524404  LPSA7     29             21.0000000000
      7596       245  ARHM      C3              5.0564759229       15.6824380308      101.6289418068  LPSA7     29             21.0000000000
      7597       245  ARHM      H3              4.9220531862       15.4541687494      100.4952263366  LPSA7     29             21.0000000000
      7598       245  ARHM      O3              5.1495448800       14.4053992462      102.1995749427  LPSA7     29             21.0000000000
      7599       245  ARHM      HO3             6.0245119628       14.2102820738      102.2092645043  LPSA7     29             21.0000000000
      7600       245  ARHM      C4              6.2688814830       16.4819880210      101.8247918557  LPSA7     29             21.0000000000
      7601       245  ARHM      H4              6.4991650410       16.6363932343      102.9338171738  LPSA7     29             21.0000000000
      7602       245  ARHM      O4              7.5165038374       15.9312525271      101.3452167393  LPSA7     29             21.0000000000
      7603       245  ARHM      HO4             7.4552367418       15.5083351818      100.4362974805  LPSA7     29             21.0000000000
      7604       245  ARHM      C6              7.0798194568       18.9575652080      101.2162231226  LPSA7     29             21.0000000000
      7605       245  ARHM      H61             6.5427737926       19.8704703467      100.7685423143  LPSA7     29             21.0000000000
      7606       245  ARHM      H62             7.3085068381       19.1717170868      102.3013153741  LPSA7     29             21.0000000000
      7607       245  ARHM      H63             7.9349897569       18.6450466978      100.6072571094  LPSA7     29             21.0000000000
      7608       246  ARHM      C1              2.7640584434       16.2974131318      104.3945976075  LPSA7     30             22.0000000000
      7609       246  ARHM      H1              2.3355160876       15.2879578814      104.2094096401  LPSA7     30             22.0000000000
      7610       246  ARHM      C5              2.2259491733       18.6680494385      104.5143062533  LPSA7     30             22.0000000000
      7611       246  ARHM      H5              3.1836622833       18.7240067218      103.8668162917  LPSA7     30             22.0000000000
      7612       246  ARHM      O5              1.7657463534       17.3224251224      104.2052433351  LPSA7     30             22.0000000000
      7613       246  ARHM      C2              3.2024386511       16.3453039218      105.8471183130  LPSA7     30             22.0000000000
      7614       246  ARHM      H2              3.9385100735       15.6316835430      106.0289718167  LPSA7     30             22.0000000000
      7615       246  ARHM      O2              2.0395086842       16.1643489682      106.5813641610  LPSA7     30             22.0000000000
      7616       246  ARHM      C3              3.6632020432       17.6784982983      106.2079894766  LPSA7     30             22.0000000000
      7617       246  ARHM      H3              4.4154565724       17.9718906858      105.5270001340  LPSA7     30             22.0000000000
      7618       246  ARHM      O3              4.2504424694       17.7561592234      107.5373891676  LPSA7     30             22.0000000000
      7619       246  ARHM      C4              2.5943923872       18.7505529519      105.9708288384  LPSA7     30             22.0000000000
      7620       246  ARHM      H4              1.6791541901       18.5754322453      106.5400372406  LPSA7     30             22.0000000000
      7621       246  ARHM      O4              2.9437773732       20.0213566716      106.2997755749  LPSA7     30             22.0000000000
      7622       246  ARHM      HO4             3.4907204119       20.5408463348      105.6964454668  LPSA7     30             22.0000000000
      7623       246  ARHM      C6              1.1938158461       19.6792056286      104.0930490251  LPSA7     30             22.0000000000
      7624       246  ARHM      H61             1.6628419406       20.6950996114      104.2143179997  LPSA7     30             22.0000000000
      7625       246  ARHM      H62             1.0554369246       19.6105798830      103.0019050467  LPSA7     30             22.0000000000
      7626       246  ARHM      H63             0.2074243284       19.5894933945      104.6493652223  LPSA7     30             22.0000000000
      7627       247  BMANNA    C1              1.7406626317       14.8363232362      106.9502319096  LPSA7     31             23.0000000000
      7628       247  BMANNA    H1              2.7039646124       14.3176204497      107.1550799008  LPSA7     31             23.0000000000
      7629       247  BMANNA    C5              0.8022752329       12.7178690865      106.2136717625  LPSA7     31             23.0000000000
      7630       247  BMANNA    H5              1.7716402000       12.3207781695      106.5467054000  LPSA7     31             23.0000000000
      7631       247  BMANNA    O5              1.0532566131       14.1129736342      105.8742289322  LPSA7     31             23.0000000000
      7632       247  BMANNA    C2              0.8678300972       14.8308754785      108.0830629221  LPSA7     31             23.0000000000
      7633       247  BMANNA    H2              1.4593293631       15.2809312970      108.9031915743  LPSA7     31             23.0000000000
      7634       247  BMANNA    N              -0.2435190995       15.6798796506      107.8252935315  LPSA7     31             23.0000000000
      7635       247  BMANNA    HN             -0.5053715708       15.8251647863      106.8111160773  LPSA7     31             23.0000000000
      7636       247  BMANNA    C              -0.9135346553       16.3202593592      108.7868858964  LPSA7     31             23.0000000000
      7637       247  BMANNA    O              -0.5666024639       16.2787968106      109.9536662434  LPSA7     31             23.0000000000
      7638       247  BMANNA    CT             -2.1369383632       17.1260509001      108.3237946568  LPSA7     31             23.0000000000
      7639       247  BMANNA    HT1            -2.6340495527       16.5650817480      107.5739831696  LPSA7     31             23.0000000000
      7640       247  BMANNA    HT2            -1.7749136616       18.0838853760      107.9347099034  LPSA7     31             23.0000000000
      7641       247  BMANNA    HT3            -2.7730923195       17.4100387588      109.1768357935  LPSA7     31             23.0000000000
      7642       247  BMANNA    C3              0.5875766966       13.4208387747      108.4884560283  LPSA7     31             23.0000000000
      7643       247  BMANNA    H3              1.5573441030       12.8323452458      108.6988550870  LPSA7     31             23.0000000000
      7644       247  BMANNA    O3             -0.0957710608       13.3538188896      109.7404994872  LPSA7     31             23.0000000000
      7645       247  BMANNA    HO3             0.1207121328       14.2268994820      110.0111610137  LPSA7     31             23.0000000000
      7646       247  BMANNA    C4             -0.1399363601       12.7089413751      107.4199857710  LPSA7     31             23.0000000000
      7647       247  BMANNA    H4             -1.1658426954       13.1911637401      107.0572414185  LPSA7     31             23.0000000000
      7648       247  BMANNA    O4             -0.4672616092       11.3965771789      107.8525671122  LPSA7     31             23.0000000000
      7649       247  BMANNA    HO4             0.3162550910       10.9103314350      108.1943429300  LPSA7     31             23.0000000000
      7650       247  BMANNA    C6              0.2048473454       11.9080619613      105.0512686782  LPSA7     31             23.0000000000
      7651       247  BMANNA    H61             0.2471006127       10.7822925585      105.3397811046  LPSA7     31             23.0000000000
      7652       247  BMANNA    H62            -0.8403215029       12.1416359523      104.8698551944  LPSA7     31             23.0000000000
      7653       247  BMANNA    O6              0.9319693662       12.1135332670      103.8241467834  LPSA7     31             23.0000000000
      7654       247  BMANNA    HO6             1.8404385695       11.6976923645      103.8134147631  LPSA7     31             23.0000000000
      7655       248  BGLCNA    C1              3.3752558723       17.8641272993      108.6103969990  LPSA7     32             23.0000000000
      7656       248  BGLCNA    H1              2.4201715565       17.2744381978      108.4325564695  LPSA7     32             23.0000000000
      7657       248  BGLCNA    C5              1.9576902275       19.3127845525      109.9277617404  LPSA7     32             23.0000000000
      7658       248  BGLCNA    H5              1.0863184173       18.6719881245      109.5374749077  LPSA7     32             23.0000000000
      7659       248  BGLCNA    O5              2.9875649770       19.1980529004      108.9423333575  LPSA7     32             23.0000000000
      7660       248  BGLCNA    C2              3.9534155932       17.2697668153      109.8194522937  LPSA7     32             23.0000000000
      7661       248  BGLCNA    H2              4.7227571827       17.9476115621      110.1044894257  LPSA7     32             23.0000000000
      7662       248  BGLCNA    N               4.4903336903       15.9705274452      109.5956973249  LPSA7     32             23.0000000000
      7663       248  BGLCNA    HN              3.9333538540       15.5012064411      108.8809076996  LPSA7     32             23.0000000000
      7664       248  BGLCNA    C               5.6161651475       15.4046233200      110.0864625708  LPSA7     32             23.0000000000
      7665       248  BGLCNA    O               6.3186602646       15.9612889155      110.9304085025  LPSA7     32             23.0000000000
      7666       248  BGLCNA    CT              5.9715094486       13.9876971148      109.5841031968  LPSA7     32             23.0000000000
      7667       248  BGLCNA    HT1             5.2954539243       13.9418002952      108.6281101354  LPSA7     32             23.0000000000
      7668       248  BGLCNA    HT2             5.6606246755       13.1740473432      110.1898124037  LPSA7     32             23.0000000000
      7669       248  BGLCNA    HT3             7.0502045079       13.8834363353      109.3122359934  LPSA7     32             23.0000000000
      7670       248  BGLCNA    C3              2.9059806477       17.2636640358      110.8930231790  LPSA7     32             23.0000000000
      7671       248  BGLCNA    H3              2.0661927928       16.7998304463      110.4606187373  LPSA7     32             23.0000000000
      7672       248  BGLCNA    O3              3.2622114905       16.5135185919      112.0657798240  LPSA7     32             23.0000000000
      7673       248  BGLCNA    C4              2.5452618732       18.6974133276      111.1707572500  LPSA7     32             23.0000000000
      7674       248  BGLCNA    H4              3.4785887382       19.2091373732      111.5318289610  LPSA7     32             23.0000000000
      7675       248  BGLCNA    O4              1.6049027363       18.8033608513      112.2070236435  LPSA7     32             23.0000000000
      7676       248  BGLCNA    HO4             2.0245945056       18.8945533507      113.0745323218  LPSA7     32             23.0000000000
      7677       248  BGLCNA    C6              1.4920610276       20.7507153144      110.0229508171  LPSA7     32             23.0000000000
      7678       248  BGLCNA    H61             0.5799997447       20.8527651547      110.7194343748  LPSA7     32             23.0000000000
      7679       248  BGLCNA    H62             2.3034477483       21.3755624425      110.5717638480  LPSA7     32             23.0000000000
      7680       248  BGLCNA    O6              1.0984082077       21.2739537490      108.7709294272  LPSA7     32             23.0000000000
      7681       248  BGLCNA    HO6             0.6539715364       20.5677560972      108.2360311317  LPSA7     32             23.0000000000
      7682       249  AGAL      C1              2.1650442670       15.7895381561      112.6842874521  LPSA7     33             24.0000000000
      7683       249  AGAL      H1              1.2853167449       16.4320059024      112.5979959475  LPSA7     33             24.0000000000
      7684       249  AGAL      C5              3.0482105442       13.6372158770      112.2149219831  LPSA7     33             24.0000000000
      7685       249  AGAL      H5              3.9104103615       14.2405922756      111.8792915250  LPSA7     33             24.0000000000
      7686       249  AGAL      O5              1.9256793770       14.4828394182      112.0726784748  LPSA7     33             24.0000000000
      7687       249  AGAL      C2              2.5404730284       15.5707924163      114.1482787662  LPSA7     33             24.0000000000
      7688       249  AGAL      H2              1.6943799630       14.9051526720      114.5751854976  LPSA7     33             24.0000000000
      7689       249  AGAL      O2              2.4058066139       16.7932001048      114.8486222260  LPSA7     33             24.0000000000
      7690       249  AGAL      C3              3.7213457322       14.6435369513      114.2945545625  LPSA7     33             24.0000000000
      7691       249  AGAL      H3              4.6281161663       15.0658672790      113.7405815065  LPSA7     33             24.0000000000
      7692       249  AGAL      O3              4.2141903239       14.5552462149      115.5672660328  LPSA7     33             24.0000000000
      7693       249  AGAL      HO3             3.6024521082       14.3423107759      116.2400186851  LPSA7     33             24.0000000000
      7694       249  AGAL      C4              3.4272421759       13.2987480697      113.6708488317  LPSA7     33             24.0000000000
      7695       249  AGAL      H4              4.3155799145       12.6555491056      113.6729875792  LPSA7     33             24.0000000000
      7696       249  AGAL      O4              2.3710222024       12.4937889962      114.2435538900  LPSA7     33             24.0000000000
      7697       249  AGAL      HO4             1.8715624401       12.9528241366      114.9085525172  LPSA7     33             24.0000000000
      7698       249  AGAL      C6              2.9748181384       12.4383613020      111.2992528405  LPSA7     33             24.0000000000
      7699       249  AGAL      H61             2.9668585812       12.8711369067      110.2783408757  LPSA7     33             24.0000000000
      7700       249  AGAL      H62             3.8173928953       11.7227907269      111.3458027743  LPSA7     33             24.0000000000
      7701       249  AGAL      O6              1.8721062040       11.5946247710      111.4129476537  LPSA7     33             24.0000000000
      7702       249  AGAL      HO6             1.1075416271       11.8665755001      110.8444757795  LPSA7     33             24.0000000000
      7703       250  ARHM      C1              1.6451130114       16.7207895251      116.0109133884  LPSA7     34             25.0000000000
      7704       250  ARHM      H1              1.9149453947       15.8545766597      116.6389743656  LPSA7     34             25.0000000000
      7705       250  ARHM      C5             -0.3826069491       17.6463531260      115.0727799907  LPSA7     34             25.0000000000
      7706       250  ARHM      H5              0.0977938740       17.6229166818      114.0209633333  LPSA7     34             25.0000000000
      7707       250  ARHM      O5              0.2146474262       16.5795329820      115.8926868953  LPSA7     34             25.0000000000
      7708       250  ARHM      C2              1.9846143144       17.9788370668      116.7601555753  LPSA7     34             25.0000000000
      7709       250  ARHM      H2              3.0801308761       18.2037291968      116.8710959342  LPSA7     34             25.0000000000
      7710       250  ARHM      O2              1.4447207472       18.0425880729      118.1592972339  LPSA7     34             25.0000000000
      7711       250  ARHM      C3              1.3959263287       19.1576986587      115.9988665506  LPSA7     34             25.0000000000
      7712       250  ARHM      H3              1.7898565880       19.2063753947      114.9724172480  LPSA7     34             25.0000000000
      7713       250  ARHM      O3              1.6175915991       20.4622034619      116.5878695042  LPSA7     34             25.0000000000
      7714       250  ARHM      HO3             1.7934235958       21.1521612397      115.9559434517  LPSA7     34             25.0000000000
      7715       250  ARHM      C4             -0.1378561663       19.0180580752      115.7987835878  LPSA7     34             25.0000000000
      7716       250  ARHM      H4             -0.6720045207       18.8559818351      116.7495315617  LPSA7     34             25.0000000000
      7717       250  ARHM      O4             -0.6997956202       20.0904319154      115.1362621200  LPSA7     34             25.0000000000
      7718       250  ARHM      HO4            -0.7970165197       20.8578971019      115.6953140327  LPSA7     34             25.0000000000
      7719       250  ARHM      C6             -1.9181263953       17.4096877925      114.8413279703  LPSA7     34             25.0000000000
      7720       250  ARHM      H61            -2.5323140261       17.4390616621      115.7172490283  LPSA7     34             25.0000000000
      7721       250  ARHM      H62            -2.3233030324       18.3370855942      114.3996926230  LPSA7     34             25.0000000000
      7722       250  ARHM      H63            -2.1955358503       16.5849549661      114.1590834060  LPSA7     34             25.0000000000
      7723       251  ARHM      C1              1.8469730253       17.0072630432      119.0795908573  LPSA7     35             26.0000000000
      7724       251  ARHM      H1              2.9710764331       16.7591340384      118.8787348947  LPSA7     35             26.0000000000
      7725       251  ARHM      C5             -0.3604364284       16.0058325550      119.2408916176  LPSA7     35             26.0000000000
      7726       251  ARHM      H5             -0.8062738477       16.8088833988      118.5254732223  LPSA7     35             26.0000000000
      7727       251  ARHM      O5              1.0622923420       15.7497131813      118.9290334222  LPSA7     35             26.0000000000
      7728       251  ARHM      C2              1.7249254915       17.5119922291      120.5365485050  LPSA7     35             26.0000000000
      7729       251  ARHM      H2              2.4043191104       18.3937137015      120.7134209997  LPSA7     35             26.0000000000
      7730       251  ARHM      O2              2.1370750179       16.5295248070      121.4126203716  LPSA7     35             26.0000000000
      7731       251  ARHM      C3              0.2538595662       17.8452845330      120.8720061906  LPSA7     35             26.0000000000
      7732       251  ARHM      H3             -0.0528021226       18.6573505455      120.1344793452  LPSA7     35             26.0000000000
      7733       251  ARHM      O3              0.1334362211       18.4257614294      122.1540075829  LPSA7     35             26.0000000000
      7734       251  ARHM      HO3             0.7958999963       18.0362746109      122.7288731339  LPSA7     35             26.0000000000
      7735       251  ARHM      C4             -0.5439415972       16.5849813404      120.6788917534  LPSA7     35             26.0000000000
      7736       251  ARHM      H4             -0.2135586845       15.7297822157      121.3307119103  LPSA7     35             26.0000000000
      7737       251  ARHM      O4             -1.9174949676       16.9243965160      120.9693790153  LPSA7     35             26.0000000000
      7738       251  ARHM      HO4            -2.2145419432       17.7694524018      120.5581709812  LPSA7     35             26.0000000000
      7739       251  ARHM      C6             -1.2105563789       14.7438872636      118.8642347863  LPSA7     35             26.0000000000
      7740       251  ARHM      H61            -1.1957881946       14.5619128653      117.7433556958  LPSA7     35             26.0000000000
      7741       251  ARHM      H62            -0.7112762984       13.9636862914      119.4176110492  LPSA7     35             26.0000000000
      7742       251  ARHM      H63            -2.2892140365       15.0067469099      119.0633705917  LPSA7     35             26.0000000000
      7743       252  BMANNA    C1              3.5059678355       16.2588324075      121.4471464502  LPSA7     36             27.0000000000
      7744       252  BMANNA    H1              4.1029997546       17.1343520036      121.0972061898  LPSA7     36             27.0000000000
      7745       252  BMANNA    C5              5.4884956023       15.0715223947      120.7299884793  LPSA7     36             27.0000000000
      7746       252  BMANNA    H5              5.8974201530       16.0439533047      120.4610684421  LPSA7     36             27.0000000000
      7747       252  BMANNA    O5              4.0287580667       15.1494943239      120.6641532654  LPSA7     36             27.0000000000
      7748       252  BMANNA    C2              3.9085444322       16.0070890452      122.8920138725  LPSA7     36             27.0000000000
      7749       252  BMANNA    H2              3.5922531650       16.8942577906      123.4719477421  LPSA7     36             27.0000000000
      7750       252  BMANNA    N               3.1996949051       14.8508359719      123.4395449790  LPSA7     36             27.0000000000
      7751       252  BMANNA    HN              3.0922614531       14.0270145210      122.8746519580  LPSA7     36             27.0000000000
      7752       252  BMANNA    C               2.9531242778       14.7516655244      124.7737151700  LPSA7     36             27.0000000000
      7753       252  BMANNA    O               3.1304905492       15.6346702345      125.6190347561  LPSA7     36             27.0000000000
      7754       252  BMANNA    CT              2.4630870497       13.4555966193      125.3570716528  LPSA7     36             27.0000000000
      7755       252  BMANNA    HT1             2.9659635537       12.6085760628      124.8802869227  LPSA7     36             27.0000000000
      7756       252  BMANNA    HT2             1.3683024175       13.2644216217      125.1731404614  LPSA7     36             27.0000000000
      7757       252  BMANNA    HT3             2.5319201060       13.3604016667      126.4547536948  LPSA7     36             27.0000000000
      7758       252  BMANNA    C3              5.4072646456       15.8720057534      122.9763638711  LPSA7     36             27.0000000000
      7759       252  BMANNA    H3              5.8959326644       16.7954376609      122.6403873786  LPSA7     36             27.0000000000
      7760       252  BMANNA    O3              5.8637842079       15.6856984311      124.3414054450  LPSA7     36             27.0000000000
      7761       252  BMANNA    HO3             6.4093292122       16.3686226978      124.7171830083  LPSA7     36             27.0000000000
      7762       252  BMANNA    C4              5.9088524739       14.7742806160      122.1146940524  LPSA7     36             27.0000000000
      7763       252  BMANNA    H4              5.5488423588       13.8192463956      122.4263894750  LPSA7     36             27.0000000000
      7764       252  BMANNA    O4              7.3246806414       14.6369529397      122.2172873890  LPSA7     36             27.0000000000
      7765       252  BMANNA    HO4             7.3653574603       14.5118405214      123.1985163392  LPSA7     36             27.0000000000
      7766       252  BMANNA    C6              5.9593291082       14.0818312784      119.7412642597  LPSA7     36             27.0000000000
      7767       252  BMANNA    H61             5.6952971070       14.3803994395      118.6946701192  LPSA7     36             27.0000000000
      7768       252  BMANNA    H62             7.0463640743       14.2033020301      119.7045442506  LPSA7     36             27.0000000000
      7769       252  BMANNA    O6              5.5654476126       12.7063189135      120.0914698020  LPSA7     36             27.0000000000
      7770       252  BMANNA    HO6             6.2758995710       12.3664065055      120.6476247167  LPSA7     36             27.0000000000
      7771       253  ECLIPA    HB6S          -12.1430425637       16.6795796041       20.4612168218  LPSA8     1               0.0000000000
      7772       253  ECLIPA    OB6           -13.7196433375       16.5971456432       21.7140249152  LPSA8     1               0.0000000000
      7773       253  ECLIPA    CB6           -12.8654162241       15.9477353550       20.7042159014  LPSA8     1               0.0000000000
      7774       253  ECLIPA    HB6R          -12.5101100209       14.9957673286       21.0541931349  LPSA8     1               0.0000000000
      7775       253  ECLIPA    CB5           -13.6734007734       15.5477804492       19.3988764877  LPSA8     1               0.0000000000
      7776       253  ECLIPA    OB5           -14.3247977852       16.8110856777       18.9716901872  LPSA8     1               0.0000000000
      7777       253  ECLIPA    HB5           -14.4587966019       14.8668840217       19.7771798410  LPSA8     1               0.0000000000
      7778       253  ECLIPA    CB1           -15.0998726670       16.5829578731       17.7717324898  LPSA8     1               0.0000000000
      7779       253  ECLIPA    HB1           -15.9059662976       15.8275978985       17.9003641080  LPSA8     1               0.0000000000
      7780       253  ECLIPA    OA6           -15.6640530125       17.7778668230       17.3217246577  LPSA8     1               0.0000000000
      7781       253  ECLIPA    CA6           -14.9841512115       19.0259254214       17.5745106853  LPSA8     1               0.0000000000
      7782       253  ECLIPA    HA6R          -13.9064279745       18.8108408574       17.7226451425  LPSA8     1               0.0000000000
      7783       253  ECLIPA    HA6S          -15.5275741773       19.5478200047       18.4598965841  LPSA8     1               0.0000000000
      7784       253  ECLIPA    CB4           -12.7571959377       14.9367301780       18.3206521937  LPSA8     1               0.0000000000
      7785       253  ECLIPA    HB4           -11.9660607508       15.6505331806       18.0085584641  LPSA8     1               0.0000000000
      7786       253  ECLIPA    OB4           -12.3853311325       13.6677094763       18.9017319965  LPSA8     1               0.0000000000
      7787       253  ECLIPA    PB            -10.8534895245       13.4080406063       19.3234616795  LPSA8     1               0.0000000000
      7788       253  ECLIPA    OPB4          -10.8734138316       12.4875358769       20.5579515876  LPSA8     1               0.0000000000
      7789       253  ECLIPA    OPB3          -10.3924646958       14.8467304778       19.6614545037  LPSA8     1               0.0000000000
      7790       253  ECLIPA    OPB2          -10.1251931700       12.8697048942       18.0829495795  LPSA8     1               0.0000000000
      7791       253  ECLIPA    CB3           -13.6280081634       14.7347889375       17.0955893951  LPSA8     1               0.0000000000
      7792       253  ECLIPA    OB3           -12.9512079275       14.2592510460       15.9186528231  LPSA8     1               0.0000000000
      7793       253  ECLIPA    HB3           -14.5709496558       14.1524008683       17.3284540628  LPSA8     1               0.0000000000
      7794       253  ECLIPA    C71           -12.9195490781       12.9883871705       15.6929469039  LPSA8     1               0.0000000000
      7795       253  ECLIPA    O71           -13.5294675938       12.1391231705       16.3832172580  LPSA8     1               0.0000000000
      7796       253  ECLIPA    C72           -12.1667146177       12.7667697914       14.3548430386  LPSA8     1               0.0000000000
      7797       253  ECLIPA    H72R          -12.6775603490       13.3323861034       13.5774555414  LPSA8     1               0.0000000000
      7798       253  ECLIPA    H72S          -12.0890500652       11.6174121669       14.1464415926  LPSA8     1               0.0000000000
      7799       253  ECLIPA    CB2           -14.2227551863       16.0925376565       16.6720734084  LPSA8     1               0.0000000000
      7800       253  ECLIPA    HB2           -13.3003537933       16.8178921177       16.5298168153  LPSA8     1               0.0000000000
      7801       253  ECLIPA    NB2           -15.0612523685       16.0008209120       15.4577284722  LPSA8     1               0.0000000000
      7802       253  ECLIPA    HNB2          -16.0152940614       15.7389100157       15.5965609326  LPSA8     1               0.0000000000
      7803       253  ECLIPA    CA4           -16.5103342119       19.8976594221       15.7929312798  LPSA8     1               0.0000000000
      7804       253  ECLIPA    HA4           -16.7881439600       18.8558771540       15.4903430209  LPSA8     1               0.0000000000
      7805       253  ECLIPA    OA4           -17.3675095389       20.3409829053       16.8012065728  LPSA8     1               0.0000000000
      7806       253  ECLIPA    HOA4          -17.2293443907       19.9058293535       17.5928838569  LPSA8     1               0.0000000000
      7807       253  ECLIPA    CA5           -15.1503870791       19.8922217747       16.3547806008  LPSA8     1               0.0000000000
      7808       253  ECLIPA    HA5           -14.6605073291       20.9261483093       16.5880746347  LPSA8     1               0.0000000000
      7809       253  ECLIPA    OA5           -14.2763573215       19.3252270069       15.3689671688  LPSA8     1               0.0000000000
      7810       253  ECLIPA    CA1           -14.3188867178       20.0828774376       14.1076640156  LPSA8     1               0.0000000000
      7811       253  ECLIPA    HA1           -13.8682582798       19.3224890129       13.4118188108  LPSA8     1               0.0000000000
      7812       253  ECLIPA    OA1           -13.5142755607       21.2454862433       14.1359876212  LPSA8     1               0.0000000000
      7813       253  ECLIPA    OPA2          -12.1529298299       22.0119552290       15.9734101064  LPSA8     1               0.0000000000
      7814       253  ECLIPA    OPA3          -11.5148193708       19.8243652652       14.8300177673  LPSA8     1               0.0000000000
      7815       253  ECLIPA    OPA4          -11.1861280662       21.9551701557       13.6615320840  LPSA8     1               0.0000000000
      7816       253  ECLIPA    PA            -12.0353531502       21.2234001860       14.6765383084  LPSA8     1               0.0000000000
      7817       253  ECLIPA    CA3           -16.6421188155       20.7244568410       14.5219348229  LPSA8     1               0.0000000000
      7818       253  ECLIPA    HA3           -16.4277124031       21.8437762052       14.7377032538  LPSA8     1               0.0000000000
      7819       253  ECLIPA    OA3           -18.0318720195       20.7231756944       14.2498111976  LPSA8     1               0.0000000000
      7820       253  ECLIPA    C31           -18.5010368997       19.6748488506       13.5006246295  LPSA8     1               0.0000000000
      7821       253  ECLIPA    O31           -18.3982408754       19.5437938721       12.2941239937  LPSA8     1               0.0000000000
      7822       253  ECLIPA    C32           -19.6224920857       18.9706641056       14.2780289507  LPSA8     1               0.0000000000
      7823       253  ECLIPA    H32R          -20.5664948244       19.0968473148       13.7149713840  LPSA8     1               0.0000000000
      7824       253  ECLIPA    H32S          -19.7105421675       19.3997967609       15.2729523512  LPSA8     1               0.0000000000
      7825       253  ECLIPA    CA2           -15.7011433416       20.1183104749       13.4984733916  LPSA8     1               0.0000000000
      7826       253  ECLIPA    HA2           -15.9672330130       19.0628379197       13.3982259915  LPSA8     1               0.0000000000
      7827       253  ECLIPA    NA2           -15.6965557796       20.8313197545       12.2035087571  LPSA8     1               0.0000000000
      7828       253  ECLIPA    HNA2          -16.3882386240       21.5023305810       12.0865030408  LPSA8     1               0.0000000000
      7829       253  ECLIPA    C73           -10.7360035950       13.2389947742       14.3319064372  LPSA8     1               0.0000000000
      7830       253  ECLIPA    H73R          -10.1847027769       12.9617173548       15.2227416964  LPSA8     1               0.0000000000
      7831       253  ECLIPA    O73           -10.7824377270       14.6859469021       14.2644256719  LPSA8     1               0.0000000000
      7832       253  ECLIPA    C81            -9.8948253426       15.5030507636       14.8555734565  LPSA8     1               0.0000000000
      7833       253  ECLIPA    O81            -9.0538303853       15.0065284809       15.6690894779  LPSA8     1               0.0000000000
      7834       253  ECLIPA    C82           -10.0276459127       16.9543000666       14.3536111794  LPSA8     1               0.0000000000
      7835       253  ECLIPA    H82R           -9.3268561092       17.6156090374       14.8531840528  LPSA8     1               0.0000000000
      7836       253  ECLIPA    H82S          -11.0515115466       17.3560792958       14.5323473422  LPSA8     1               0.0000000000
      7837       253  ECLIPA    C83            -9.7841221990       17.0076825027       12.8301722806  LPSA8     1               0.0000000000
      7838       253  ECLIPA    H83R          -10.7285416265       16.7133523254       12.2351841548  LPSA8     1               0.0000000000
      7839       253  ECLIPA    H83S           -9.0850905129       16.2042841600       12.5911296392  LPSA8     1               0.0000000000
      7840       253  ECLIPA    C84            -9.4212396358       18.4118696889       12.3050927261  LPSA8     1               0.0000000000
      7841       253  ECLIPA    H84R           -8.3796630940       18.6229260183       12.5767117503  LPSA8     1               0.0000000000
      7842       253  ECLIPA    H84S          -10.1629703585       19.0493491352       12.7369555497  LPSA8     1               0.0000000000
      7843       253  ECLIPA    C85            -9.5844678937       18.4936262132       10.7695484051  LPSA8     1               0.0000000000
      7844       253  ECLIPA    H85R          -10.5312507078       17.9833094373       10.5503608829  LPSA8     1               0.0000000000
      7845       253  ECLIPA    H85S           -8.7888861776       17.8887070946       10.2367999955  LPSA8     1               0.0000000000
      7846       253  ECLIPA    C86            -9.7375794173       19.9681016916       10.3034592726  LPSA8     1               0.0000000000
      7847       253  ECLIPA    H86R           -8.7521867765       20.4512130857        9.9932223571  LPSA8     1               0.0000000000
      7848       253  ECLIPA    H86S          -10.1386771995       20.5912925008       11.0807540114  LPSA8     1               0.0000000000
      7849       253  ECLIPA    C87           -10.7984195177       20.1232864757        9.1601018854  LPSA8     1               0.0000000000
      7850       253  ECLIPA    H87R          -10.8495315012       21.1474705274        8.8049419625  LPSA8     1               0.0000000000
      7851       253  ECLIPA    H87S          -11.8309071073       19.8963433952        9.5406723883  LPSA8     1               0.0000000000
      7852       253  ECLIPA    C88           -10.5600844246       19.1503347428        8.0318999685  LPSA8     1               0.0000000000
      7853       253  ECLIPA    H88R          -10.8709029849       18.1011454700        8.3479828359  LPSA8     1               0.0000000000
      7854       253  ECLIPA    H88S           -9.4514595344       18.9664155464        7.9254521495  LPSA8     1               0.0000000000
      7855       253  ECLIPA    C89           -11.3299136068       19.4765438401        6.7101000712  LPSA8     1               0.0000000000
      7856       253  ECLIPA    H89R          -12.1701318633       20.1850885811        6.8746682686  LPSA8     1               0.0000000000
      7857       253  ECLIPA    H89S          -11.7786918438       18.6272611362        6.2317001698  LPSA8     1               0.0000000000
      7858       253  ECLIPA    C810          -10.3225541986       20.0622516326        5.7047246593  LPSA8     1               0.0000000000
      7859       253  ECLIPA    H810R          -9.3877764097       19.5580957210        6.0108430704  LPSA8     1               0.0000000000
      7860       253  ECLIPA    H810S         -10.2480298201       21.1220303501        5.8554647029  LPSA8     1               0.0000000000
      7861       253  ECLIPA    C811          -10.6310991282       19.8141280852        4.2179945741  LPSA8     1               0.0000000000
      7862       253  ECLIPA    H811R         -10.1667245809       20.4412976768        3.5081125689  LPSA8     1               0.0000000000
      7863       253  ECLIPA    H811S         -11.7834913687       19.8425528556        4.1819101877  LPSA8     1               0.0000000000
      7864       253  ECLIPA    C812          -10.4183041861       18.3689853073        3.7413673409  LPSA8     1               0.0000000000
      7865       253  ECLIPA    H812R         -10.8454270794       18.3049624242        2.6403157337  LPSA8     1               0.0000000000
      7866       253  ECLIPA    H812S         -10.8127474369       17.6180184818        4.4144737196  LPSA8     1               0.0000000000
      7867       253  ECLIPA    C813           -8.9433496805       17.9312469376        3.6785234959  LPSA8     1               0.0000000000
      7868       253  ECLIPA    H813R          -8.4467452232       18.6040576805        2.9398073555  LPSA8     1               0.0000000000
      7869       253  ECLIPA    H813S          -8.3476634104       18.0248614823        4.6616087352  LPSA8     1               0.0000000000
      7870       253  ECLIPA    C814           -8.7480211874       16.5298155590        3.1377409857  LPSA8     1               0.0000000000
      7871       253  ECLIPA    H814R          -9.3525113966       16.2578240632        2.1719074593  LPSA8     1               0.0000000000
      7872       253  ECLIPA    H814S          -9.0162155210       15.8031753070        3.9166242729  LPSA8     1               0.0000000000
      7873       253  ECLIPA    H814T          -7.6765338432       16.3446947598        2.8964685373  LPSA8     1               0.0000000000
      7874       253  ECLIPA    C74            -9.8461310881       12.8376679737       13.1792855021  LPSA8     1               0.0000000000
      7875       253  ECLIPA    H74R           -9.6438877406       11.7842967778       12.9935747315  LPSA8     1               0.0000000000
      7876       253  ECLIPA    H74S           -8.8124258284       13.3476565872       13.3086690609  LPSA8     1               0.0000000000
      7877       253  ECLIPA    C75           -10.3540144674       13.4775226281       11.8151371119  LPSA8     1               0.0000000000
      7878       253  ECLIPA    H75R           -9.4105033078       13.7348933273       11.2107603889  LPSA8     1               0.0000000000
      7879       253  ECLIPA    H75S          -10.8990969575       14.4214089884       12.0082837783  LPSA8     1               0.0000000000
      7880       253  ECLIPA    C76           -11.2454669254       12.5683280380       10.9251453624  LPSA8     1               0.0000000000
      7881       253  ECLIPA    H76R          -12.2846651022       12.5656762799       11.3555905686  LPSA8     1               0.0000000000
      7882       253  ECLIPA    H76S          -10.9304099839       11.4442884138       10.9731137071  LPSA8     1               0.0000000000
      7883       253  ECLIPA    C77           -11.3524850727       12.9170767886        9.4191603634  LPSA8     1               0.0000000000
      7884       253  ECLIPA    H77R          -10.3613150153       12.8537715987        9.0408775908  LPSA8     1               0.0000000000
      7885       253  ECLIPA    H77S          -11.5828040827       13.9991971179        9.2852383479  LPSA8     1               0.0000000000
      7886       253  ECLIPA    C78           -12.4749708046       12.0537304551        8.8297405752  LPSA8     1               0.0000000000
      7887       253  ECLIPA    H78R          -12.3011007486       11.0289913881        9.1562620580  LPSA8     1               0.0000000000
      7888       253  ECLIPA    H78S          -13.4092079632       12.4482521635        9.3169442960  LPSA8     1               0.0000000000
      7889       253  ECLIPA    C79           -12.7404447105       12.3349855929        7.2570767761  LPSA8     1               0.0000000000
      7890       253  ECLIPA    H79R          -13.6018153192       13.0668932658        7.1763205913  LPSA8     1               0.0000000000
      7891       253  ECLIPA    H79S          -13.0514066915       11.3964067752        6.7882549413  LPSA8     1               0.0000000000
      7892       253  ECLIPA    C710          -11.5293734901       12.6643740549        6.3785096220  LPSA8     1               0.0000000000
      7893       253  ECLIPA    H710R         -11.0805046838       13.5717594798        6.8460783027  LPSA8     1               0.0000000000
      7894       253  ECLIPA    H710S         -10.8595471953       11.8967868015        6.4843026416  LPSA8     1               0.0000000000
      7895       253  ECLIPA    C711          -11.8751875207       12.9816416838        4.9384125046  LPSA8     1               0.0000000000
      7896       253  ECLIPA    H711R         -12.3164480016       12.0545070001        4.5670708729  LPSA8     1               0.0000000000
      7897       253  ECLIPA    H711S         -12.5794698401       13.8520738514        4.9306188492  LPSA8     1               0.0000000000
      7898       253  ECLIPA    C712          -10.5987279356       13.3717524890        4.2148670498  LPSA8     1               0.0000000000
      7899       253  ECLIPA    H712R          -9.9200317000       12.5173261096        4.3130666899  LPSA8     1               0.0000000000
      7900       253  ECLIPA    H712S         -10.1609094660       14.1581926649        4.8522839389  LPSA8     1               0.0000000000
      7901       253  ECLIPA    C713          -10.8886122998       13.8804222962        2.7357390519  LPSA8     1               0.0000000000
      7902       253  ECLIPA    H713R         -11.5284178151       14.7952190174        2.8800411466  LPSA8     1               0.0000000000
      7903       253  ECLIPA    H713S          -9.8604905988       14.1228181876        2.2750064041  LPSA8     1               0.0000000000
      7904       253  ECLIPA    C714          -11.4927750691       12.7458297286        1.8879763961  LPSA8     1               0.0000000000
      7905       253  ECLIPA    H714R         -10.7820432432       11.9167966265        1.7626189762  LPSA8     1               0.0000000000
      7906       253  ECLIPA    H714S         -12.5075628266       12.4797696655        2.2081901572  LPSA8     1               0.0000000000
      7907       253  ECLIPA    H714T         -11.5533055661       13.2169199935        0.9249202435  LPSA8     1               0.0000000000
      7908       253  ECLIPA    C51           -14.5001234857       16.0346487745       14.2380633031  LPSA8     1               0.0000000000
      7909       253  ECLIPA    O51           -13.3546750343       16.5223776533       14.1304636378  LPSA8     1               0.0000000000
      7910       253  ECLIPA    C52           -15.2501844274       15.3910194574       13.0157035712  LPSA8     1               0.0000000000
      7911       253  ECLIPA    H52R          -15.0807959747       14.3306774476       12.8950255930  LPSA8     1               0.0000000000
      7912       253  ECLIPA    H52S          -16.2784681863       15.5877012043       13.2222025935  LPSA8     1               0.0000000000
      7913       253  ECLIPA    C53           -14.8960487034       16.2648051301       11.7526064304  LPSA8     1               0.0000000000
      7914       253  ECLIPA    H53R          -14.6280594826       17.2846829637       12.0082431084  LPSA8     1               0.0000000000
      7915       253  ECLIPA    O53           -15.9950889940       16.0942748409       10.8431816314  LPSA8     1               0.0000000000
      7916       253  ECLIPA    C61           -16.7056321570       17.1589222299       10.5090573566  LPSA8     1               0.0000000000
      7917       253  ECLIPA    O61           -16.5066690749       18.2776846624       10.8659713306  LPSA8     1               0.0000000000
      7918       253  ECLIPA    C62           -17.8455909597       16.7294396898        9.5765835255  LPSA8     1               0.0000000000
      7919       253  ECLIPA    H62R          -18.6451340844       16.2982098635       10.2152837125  LPSA8     1               0.0000000000
      7920       253  ECLIPA    H62S          -17.4811235333       15.8230920431        9.0470049452  LPSA8     1               0.0000000000
      7921       253  ECLIPA    C63           -18.3273967490       17.8989901123        8.6803029234  LPSA8     1               0.0000000000
      7922       253  ECLIPA    H63R          -17.4246756408       18.3880241202        8.2798705976  LPSA8     1               0.0000000000
      7923       253  ECLIPA    H63S          -18.9040285326       18.6961677674        9.3252199642  LPSA8     1               0.0000000000
      7924       253  ECLIPA    C64           -19.1994066381       17.5812749980        7.5279067597  LPSA8     1               0.0000000000
      7925       253  ECLIPA    H64R          -19.5707249862       18.5087697269        6.9620099216  LPSA8     1               0.0000000000
      7926       253  ECLIPA    H64S          -20.0914819314       16.9997797842        7.9657393466  LPSA8     1               0.0000000000
      7927       253  ECLIPA    C65           -18.4484437239       16.6194435519        6.5414948800  LPSA8     1               0.0000000000
      7928       253  ECLIPA    H65R          -18.2595906438       15.7673302318        7.2423230371  LPSA8     1               0.0000000000
      7929       253  ECLIPA    H65S          -17.5172537026       17.1108282087        6.1828980290  LPSA8     1               0.0000000000
      7930       253  ECLIPA    C66           -19.2244396897       16.1659639659        5.2222643966  LPSA8     1               0.0000000000
      7931       253  ECLIPA    H66R          -20.1210523469       15.6377926891        5.5395647249  LPSA8     1               0.0000000000
      7932       253  ECLIPA    H66S          -18.4607480293       15.4411736779        4.8113963288  LPSA8     1               0.0000000000
      7933       253  ECLIPA    C67           -19.5358846538       17.1996150035        4.1696839457  LPSA8     1               0.0000000000
      7934       253  ECLIPA    H67R          -20.0285658297       18.0843138600        4.5058181646  LPSA8     1               0.0000000000
      7935       253  ECLIPA    H67S          -20.1522547548       16.7357230851        3.3478820057  LPSA8     1               0.0000000000
      7936       253  ECLIPA    C68           -18.3198331730       17.7928731977        3.5077075145  LPSA8     1               0.0000000000
      7937       253  ECLIPA    H68R          -17.5915464306       17.1081500091        3.0112508411  LPSA8     1               0.0000000000
      7938       253  ECLIPA    H68S          -17.8872698530       18.3649091197        4.3087918325  LPSA8     1               0.0000000000
      7939       253  ECLIPA    C69           -18.7440423346       18.6217971881        2.2963532923  LPSA8     1               0.0000000000
      7940       253  ECLIPA    H69R          -19.7660189839       19.0470045644        2.3203210098  LPSA8     1               0.0000000000
      7941       253  ECLIPA    H69S          -18.8294844797       17.9197626846        1.4693744207  LPSA8     1               0.0000000000
      7942       253  ECLIPA    C610          -17.7913344049       19.7037635815        1.9396251084  LPSA8     1               0.0000000000
      7943       253  ECLIPA    H610R         -16.7330727298       19.3419889941        2.0603347121  LPSA8     1               0.0000000000
      7944       253  ECLIPA    H610S         -17.8766918171       20.5532638727        2.6933643884  LPSA8     1               0.0000000000
      7945       253  ECLIPA    C611          -18.0658097181       20.3387606224        0.5312153135  LPSA8     1               0.0000000000
      7946       253  ECLIPA    H611R         -19.1001703932       20.7322598735        0.5735373188  LPSA8     1               0.0000000000
      7947       253  ECLIPA    H611S         -17.5474576678       21.2704410157        0.3609598123  LPSA8     1               0.0000000000
      7948       253  ECLIPA    C612          -17.7652085397       19.3457392661       -0.5788949292  LPSA8     1               0.0000000000
      7949       253  ECLIPA    H612R         -16.6525946103       19.1730720513       -0.6060949542  LPSA8     1               0.0000000000
      7950       253  ECLIPA    H612S         -18.1890008593       18.3693506743       -0.3132441764  LPSA8     1               0.0000000000
      7951       253  ECLIPA    H612T         -18.0918646316       19.7088291275       -1.5574606966  LPSA8     1               0.0000000000
      7952       253  ECLIPA    C54           -13.6483996668       15.5695890601       11.1776054589  LPSA8     1               0.0000000000
      7953       253  ECLIPA    H54R          -13.9327384305       14.5144934933       10.8869876633  LPSA8     1               0.0000000000
      7954       253  ECLIPA    H54S          -12.8788258539       15.4512437355       11.9574517429  LPSA8     1               0.0000000000
      7955       253  ECLIPA    C55           -12.9295041586       16.2013727390        9.9916770240  LPSA8     1               0.0000000000
      7956       253  ECLIPA    H55R          -11.9152821874       15.7903345882        9.7856946516  LPSA8     1               0.0000000000
      7957       253  ECLIPA    H55S          -12.7848425047       17.3119426693       10.2436295858  LPSA8     1               0.0000000000
      7958       253  ECLIPA    C56           -13.7199248011       15.8790265127        8.7515486822  LPSA8     1               0.0000000000
      7959       253  ECLIPA    H56R          -14.7665259419       16.3041504842        8.8382497819  LPSA8     1               0.0000000000
      7960       253  ECLIPA    H56S          -13.8142677331       14.8726298698        8.4741334449  LPSA8     1               0.0000000000
      7961       253  ECLIPA    C57           -13.3144866161       16.6511755062        7.4395707935  LPSA8     1               0.0000000000
      7962       253  ECLIPA    H57R          -12.2606263274       16.5298994857        7.1827428724  LPSA8     1               0.0000000000
      7963       253  ECLIPA    H57S          -13.4467678453       17.7509860871        7.5196553379  LPSA8     1               0.0000000000
      7964       253  ECLIPA    C58           -14.2517174550       16.2305007458        6.2350750625  LPSA8     1               0.0000000000
      7965       253  ECLIPA    H58R          -14.4027510788       15.1157970270        6.2095761879  LPSA8     1               0.0000000000
      7966       253  ECLIPA    H58S          -15.2900729771       16.5526291179        6.5224540661  LPSA8     1               0.0000000000
      7967       253  ECLIPA    C59           -13.6793926048       16.6956725026        4.8667186835  LPSA8     1               0.0000000000
      7968       253  ECLIPA    H59R          -12.6729870394       16.2900234623        4.6589989540  LPSA8     1               0.0000000000
      7969       253  ECLIPA    H59S          -13.6547018607       17.7819449751        5.0825555512  LPSA8     1               0.0000000000
      7970       253  ECLIPA    C510          -14.5023839181       16.1727596513        3.6752379292  LPSA8     1               0.0000000000
      7971       253  ECLIPA    H510R         -15.6366862687       16.2601578452        3.7937959224  LPSA8     1               0.0000000000
      7972       253  ECLIPA    H510S         -14.2886131320       15.0302894576        3.4613250382  LPSA8     1               0.0000000000
      7973       253  ECLIPA    C511          -14.1864546857       16.7987776099        2.3004848829  LPSA8     1               0.0000000000
      7974       253  ECLIPA    H511R         -14.7251237132       17.7652629823        2.2679211996  LPSA8     1               0.0000000000
      7975       253  ECLIPA    H511S         -13.0948898414       17.0654942922        2.1940961976  LPSA8     1               0.0000000000
      7976       253  ECLIPA    C512          -14.6447349624       16.0100794392        1.0189424135  LPSA8     1               0.0000000000
      7977       253  ECLIPA    H512R         -14.1647317571       16.4481272321        0.0815295424  LPSA8     1               0.0000000000
      7978       253  ECLIPA    H512S         -14.3508819216       14.9573024089        1.1129704346  LPSA8     1               0.0000000000
      7979       253  ECLIPA    C513          -16.1884849459       16.1677823249        0.6457389972  LPSA8     1               0.0000000000
      7980       253  ECLIPA    H513R         -16.4675503357       17.2574842202        0.5010832175  LPSA8     1               0.0000000000
      7981       253  ECLIPA    H513S         -16.7806667820       15.8265399103        1.4088770719  LPSA8     1               0.0000000000
      7982       253  ECLIPA    C514          -16.4937217871       15.4799739579       -0.6567184026  LPSA8     1               0.0000000000
      7983       253  ECLIPA    H514R         -16.1763974829       14.4378206355       -0.6273993866  LPSA8     1               0.0000000000
      7984       253  ECLIPA    H514S         -17.5847587914       15.4561752405       -0.7024724270  LPSA8     1               0.0000000000
      7985       253  ECLIPA    H514T         -15.9963957927       16.0199082783       -1.5427815912  LPSA8     1               0.0000000000
      7986       253  ECLIPA    C33           -19.4914564389       17.3942134348       14.4880792826  LPSA8     1               0.0000000000
      7987       253  ECLIPA    H33R          -20.4955083377       17.0248765557       14.8828993596  LPSA8     1               0.0000000000
      7988       253  ECLIPA    O33           -18.5161641076       17.0957950047       15.4699768821  LPSA8     1               0.0000000000
      7989       253  ECLIPA    HO33          -18.8616027806       17.3185949548       16.2926205744  LPSA8     1               0.0000000000
      7990       253  ECLIPA    C34           -19.1711687171       16.5512699482       13.2255459338  LPSA8     1               0.0000000000
      7991       253  ECLIPA    H34R          -18.2292903498       16.8810214496       12.8010908313  LPSA8     1               0.0000000000
      7992       253  ECLIPA    H34S          -19.9228118154       16.7900796129       12.3772221142  LPSA8     1               0.0000000000
      7993       253  ECLIPA    C35           -19.0931406601       15.0267319745       13.4256256262  LPSA8     1               0.0000000000
      7994       253  ECLIPA    H35R          -20.0851151471       14.6723191560       13.6963698038  LPSA8     1               0.0000000000
      7995       253  ECLIPA    H35S          -18.4200916970       14.8162933444       14.2668166019  LPSA8     1               0.0000000000
      7996       253  ECLIPA    C36           -18.7524517986       14.1737526852       12.1865608177  LPSA8     1               0.0000000000
      7997       253  ECLIPA    H36R          -18.0605736279       14.9191019212       11.7430812241  LPSA8     1               0.0000000000
      7998       253  ECLIPA    H36S          -19.6149700603       13.9608713086       11.4785220412  LPSA8     1               0.0000000000
      7999       253  ECLIPA    C37           -17.8868584879       12.9748847812       12.5255831563  LPSA8     1               0.0000000000
      8000       253  ECLIPA    H37R          -18.6712318153       12.1034332281       12.6765215637  LPSA8     1               0.0000000000
      8001       253  ECLIPA    H37S          -17.3983005249       13.0725458905       13.5128993321  LPSA8     1               0.0000000000
      8002       253  ECLIPA    C38           -16.8822789285       12.5171971337       11.4317274953  LPSA8     1               0.0000000000
      8003       253  ECLIPA    H38R          -15.9593380240       13.1201127925       11.4067421357  LPSA8     1               0.0000000000
      8004       253  ECLIPA    H38S          -16.5213518234       11.5141960345       11.7230999881  LPSA8     1               0.0000000000
      8005       253  ECLIPA    C39           -17.5021479004       12.5869808271       10.0213367345  LPSA8     1               0.0000000000
      8006       253  ECLIPA    H39R          -17.9007986782       13.6152224035        9.8128797222  LPSA8     1               0.0000000000
      8007       253  ECLIPA    H39S          -18.2648561912       11.7652749308        9.9697980947  LPSA8     1               0.0000000000
      8008       253  ECLIPA    C310          -16.5819734997       12.2122069390        8.8401719124  LPSA8     1               0.0000000000
      8009       253  ECLIPA    H310R         -16.3356236101       11.1076800816        9.0626900142  LPSA8     1               0.0000000000
      8010       253  ECLIPA    H310S         -15.6300836542       12.8170730075        8.8945759064  LPSA8     1               0.0000000000
      8011       253  ECLIPA    C311          -17.1322233005       12.6671901083        7.5676235846  LPSA8     1               0.0000000000
      8012       253  ECLIPA    H311R         -18.2433235139       12.5298432116        7.5507520616  LPSA8     1               0.0000000000
      8013       253  ECLIPA    H311S         -16.9358158919       13.7474371971        7.2851462164  LPSA8     1               0.0000000000
      8014       253  ECLIPA    C312          -16.5246529356       11.9741351017        6.3280121142  LPSA8     1               0.0000000000
      8015       253  ECLIPA    H312R         -15.4374833279       11.7602341127        6.4861373960  LPSA8     1               0.0000000000
      8016       253  ECLIPA    H312S         -17.0688811116       11.0074210894        6.1820758986  LPSA8     1               0.0000000000
      8017       253  ECLIPA    C313          -16.6824628945       12.7663443624        4.9895779706  LPSA8     1               0.0000000000
      8018       253  ECLIPA    H313R         -17.7037827038       12.6744772039        4.7825120466  LPSA8     1               0.0000000000
      8019       253  ECLIPA    H313S         -16.4468881553       13.8544481689        5.1572698764  LPSA8     1               0.0000000000
      8020       253  ECLIPA    C314          -15.9010704036       12.2849340221        3.8116661598  LPSA8     1               0.0000000000
      8021       253  ECLIPA    H314R         -16.1664886410       11.2121110427        3.6067793993  LPSA8     1               0.0000000000
      8022       253  ECLIPA    H314S         -16.0328326873       12.8495336258        2.8849361441  LPSA8     1               0.0000000000
      8023       253  ECLIPA    H314T         -14.7788100891       12.2788952595        4.0446347774  LPSA8     1               0.0000000000
      8024       253  ECLIPA    C11           -14.7593365500       20.7737273164       11.2900808200  LPSA8     1               0.0000000000
      8025       253  ECLIPA    O11           -13.8722607240       19.9426165499       11.1394597694  LPSA8     1               0.0000000000
      8026       253  ECLIPA    C12           -14.7547671557       21.9638538906       10.2853014675  LPSA8     1               0.0000000000
      8027       253  ECLIPA    H12R          -13.9004625878       22.6597616163       10.4852637814  LPSA8     1               0.0000000000
      8028       253  ECLIPA    H12S          -15.7207060511       22.4837661250       10.5222272274  LPSA8     1               0.0000000000
      8029       253  ECLIPA    C13           -14.7388902030       21.5825201246        8.8110583416  LPSA8     1               0.0000000000
      8030       253  ECLIPA    H13R          -13.9941806633       20.7297094511        8.5839874118  LPSA8     1               0.0000000000
      8031       253  ECLIPA    O13           -14.2506802532       22.7682766294        8.1311342176  LPSA8     1               0.0000000000
      8032       253  ECLIPA    HO13          -13.8687858713       22.5304315215        7.3064966676  LPSA8     1               0.0000000000
      8033       253  ECLIPA    C14           -16.1345786195       21.1239751064        8.4581579993  LPSA8     1               0.0000000000
      8034       253  ECLIPA    H14R          -16.9473736481       21.7573083593        8.9706443184  LPSA8     1               0.0000000000
      8035       253  ECLIPA    H14S          -16.2037313829       20.0486290811        8.7243868424  LPSA8     1               0.0000000000
      8036       253  ECLIPA    C15           -16.4536046275       21.1897344684        6.9526486677  LPSA8     1               0.0000000000
      8037       253  ECLIPA    H15R          -16.2258203501       22.1626366474        6.5500123177  LPSA8     1               0.0000000000
      8038       253  ECLIPA    H15S          -17.5158872546       20.9515106953        6.8782608049  LPSA8     1               0.0000000000
      8039       253  ECLIPA    C16           -15.5964801858       20.1695112018        6.1622847334  LPSA8     1               0.0000000000
      8040       253  ECLIPA    H16R          -16.0106934997       19.1016075949        6.2733383262  LPSA8     1               0.0000000000
      8041       253  ECLIPA    H16S          -14.6530959579       20.0326033215        6.7182496574  LPSA8     1               0.0000000000
      8042       253  ECLIPA    C17           -15.4664467012       20.5131249450        4.6801229578  LPSA8     1               0.0000000000
      8043       253  ECLIPA    H17R          -16.5343241321       20.7924124547        4.4246758429  LPSA8     1               0.0000000000
      8044       253  ECLIPA    H17S          -15.1926571930       19.6959644465        4.0046542873  LPSA8     1               0.0000000000
      8045       253  ECLIPA    C18           -14.5212947964       21.6608109377        4.4504458171  LPSA8     1               0.0000000000
      8046       253  ECLIPA    H18R          -14.9208895445       22.4050075880        5.0865821920  LPSA8     1               0.0000000000
      8047       253  ECLIPA    H18S          -13.4928876120       21.3315569895        4.7749867078  LPSA8     1               0.0000000000
      8048       253  ECLIPA    C19           -14.4926073087       22.1065482719        3.0097966450  LPSA8     1               0.0000000000
      8049       253  ECLIPA    H19R          -13.8987507324       23.0056765242        2.9245509529  LPSA8     1               0.0000000000
      8050       253  ECLIPA    H19S          -15.5476232663       22.2993606877        2.6238151240  LPSA8     1               0.0000000000
      8051       253  ECLIPA    C110          -13.7961256121       21.0610489389        2.1045801788  LPSA8     1               0.0000000000
      8052       253  ECLIPA    H110R         -12.8150263144       20.7224822207        2.4416701971  LPSA8     1               0.0000000000
      8053       253  ECLIPA    H110S         -14.5450945573       20.2405265642        2.1583327743  LPSA8     1               0.0000000000
      8054       253  ECLIPA    C111          -13.7310032798       21.5949854176        0.7563571155  LPSA8     1               0.0000000000
      8055       253  ECLIPA    H111R         -14.6643526163       22.1139488335        0.3999767799  LPSA8     1               0.0000000000
      8056       253  ECLIPA    H111S         -13.0115508815       22.3709745194        0.7977177860  LPSA8     1               0.0000000000
      8057       253  ECLIPA    C112          -13.2558523840       20.5786126107       -0.2937360943  LPSA8     1               0.0000000000
      8058       253  ECLIPA    H112R         -12.2956260741       20.2714732934        0.1973446929  LPSA8     1               0.0000000000
      8059       253  ECLIPA    H112S         -13.8142255626       19.6421740454       -0.2177998937  LPSA8     1               0.0000000000
      8060       253  ECLIPA    C113          -13.3877336731       21.0628910745       -1.7468031795  LPSA8     1               0.0000000000
      8061       253  ECLIPA    H113R         -14.4730156168       21.1622268960       -1.9802017524  LPSA8     1               0.0000000000
      8062       253  ECLIPA    H113S         -13.0082137624       22.0841243030       -1.8531093719  LPSA8     1               0.0000000000
      8063       253  ECLIPA    C114          -12.6455473037       20.3282169607       -2.8344928043  LPSA8     1               0.0000000000
      8064       253  ECLIPA    H114R         -11.5810095765       20.1167108098       -2.7829422503  LPSA8     1               0.0000000000
      8065       253  ECLIPA    H114S         -13.1201911993       19.3199602517       -2.9951089580  LPSA8     1               0.0000000000
      8066       253  ECLIPA    H114T         -12.6095128881       20.9649124488       -3.7399523103  LPSA8     1               0.0000000000
      8067       254  AKDO      C1            -14.8416961898       14.6752082484       22.4410509549  LPSA8     2               0.0000000000
      8068       254  AKDO      O11           -14.2758753033       13.5295280359       22.4913720772  LPSA8     2               0.0000000000
      8069       254  AKDO      O12           -16.0095415504       14.9934031812       22.0800765534  LPSA8     2               0.0000000000
      8070       254  AKDO      C2            -13.9649191254       15.8479348277       22.8913181237  LPSA8     2               0.0000000000
      8071       254  AKDO      C6            -11.8373125265       16.3414098510       23.8039205188  LPSA8     2               0.0000000000
      8072       254  AKDO      H6            -11.5895202994       16.9140081956       22.9487387861  LPSA8     2               0.0000000000
      8073       254  AKDO      O6            -12.8135666929       15.2890374793       23.4267274814  LPSA8     2               0.0000000000
      8074       254  AKDO      C3            -14.5836023126       16.6636123519       23.9587385105  LPSA8     2               0.0000000000
      8075       254  AKDO      H31           -14.9309090434       16.1223513809       24.7868435866  LPSA8     2               0.0000000000
      8076       254  AKDO      H32           -15.4697208233       17.2498524822       23.4151264596  LPSA8     2               0.0000000000
      8077       254  AKDO      C4            -13.6271129721       17.7741359862       24.3842593775  LPSA8     2               0.0000000000
      8078       254  AKDO      H4            -13.2850314585       18.3702922740       23.5563617270  LPSA8     2               0.0000000000
      8079       254  AKDO      O4            -14.2698896138       18.6107169921       25.3355834555  LPSA8     2               0.0000000000
      8080       254  AKDO      C5            -12.3683401228       17.2677496279       24.9292437177  LPSA8     2               0.0000000000
      8081       254  AKDO      H5            -11.6127646021       18.0930771231       25.0107888161  LPSA8     2               0.0000000000
      8082       254  AKDO      O5            -12.6722603082       16.5657112500       26.2083878813  LPSA8     2               0.0000000000
      8083       254  AKDO      C7            -10.4126957398       15.7355079216       24.1981149098  LPSA8     2               0.0000000000
      8084       254  AKDO      H7            -10.5422424799       15.1314718932       25.0939202098  LPSA8     2               0.0000000000
      8085       254  AKDO      O7             -9.4077735023       16.7728192104       24.3482682347  LPSA8     2               0.0000000000
      8086       254  AKDO      HO7            -9.1784925187       17.0235925977       23.4945166536  LPSA8     2               0.0000000000
      8087       254  AKDO      C8             -9.9783074934       14.8419445778       22.9864433882  LPSA8     2               0.0000000000
      8088       254  AKDO      H81           -10.7797002232       14.0680378486       22.9153150275  LPSA8     2               0.0000000000
      8089       254  AKDO      H82            -9.9033830485       15.5427633785       22.0745354517  LPSA8     2               0.0000000000
      8090       254  AKDO      O8             -8.6922590872       14.1882532193       23.3537996748  LPSA8     2               0.0000000000
      8091       254  AKDO      HO8            -8.6688891481       13.2970304047       22.9179804014  LPSA8     2               0.0000000000
      8092       255  AKDO      C1            -14.5419379103       20.3993788189       23.8027969005  LPSA8     3               1.0000000000
      8093       255  AKDO      O11           -15.0023349514       20.1542602582       22.6471489042  LPSA8     3               1.0000000000
      8094       255  AKDO      O12           -13.6305455104       21.2197446223       24.0656860145  LPSA8     3               1.0000000000
      8095       255  AKDO      C2            -15.1242756888       19.6892700561       25.0166033796  LPSA8     3               1.0000000000
      8096       255  AKDO      C6            -17.0098491501       18.4015841216       25.7688829792  LPSA8     3               1.0000000000
      8097       255  AKDO      H6            -16.3507125036       17.4978698175       25.9810553331  LPSA8     3               1.0000000000
      8098       255  AKDO      O6            -16.4602450327       19.1583673039       24.7076657818  LPSA8     3               1.0000000000
      8099       255  AKDO      C3            -15.2161573307       20.5289279889       26.3187707743  LPSA8     3               1.0000000000
      8100       255  AKDO      H31           -15.9243327501       21.4411561236       26.1504935106  LPSA8     3               1.0000000000
      8101       255  AKDO      H32           -14.2333315109       20.9365368558       26.5929217108  LPSA8     3               1.0000000000
      8102       255  AKDO      C4            -15.7851367535       19.6505557013       27.4036122013  LPSA8     3               1.0000000000
      8103       255  AKDO      H4            -15.2045720146       18.7229446409       27.4051754129  LPSA8     3               1.0000000000
      8104       255  AKDO      O4            -15.7559979702       20.1760009499       28.7388570077  LPSA8     3               1.0000000000
      8105       255  AKDO      HO4           -15.2875878190       19.6454948954       29.3717785514  LPSA8     3               1.0000000000
      8106       255  AKDO      C5            -17.0788162200       19.2130832291       27.0369167275  LPSA8     3               1.0000000000
      8107       255  AKDO      H5            -17.5299259464       18.6267934580       27.9236884022  LPSA8     3               1.0000000000
      8108       255  AKDO      O5            -17.9605048244       20.3360835988       26.8495261943  LPSA8     3               1.0000000000
      8109       255  AKDO      HO5           -17.6191928138       20.9024094449       26.1887877298  LPSA8     3               1.0000000000
      8110       255  AKDO      C7            -18.3717682893       17.9288807551       25.3258859863  LPSA8     3               1.0000000000
      8111       255  AKDO      H7            -19.0678617198       18.7966001961       25.1324849511  LPSA8     3               1.0000000000
      8112       255  AKDO      O7            -18.9226696687       17.0751278738       26.3661029982  LPSA8     3               1.0000000000
      8113       255  AKDO      HO7           -19.8673010522       16.9059353689       26.1647669547  LPSA8     3               1.0000000000
      8114       255  AKDO      C8            -18.1716003576       17.0610056358       24.1539635864  LPSA8     3               1.0000000000
      8115       255  AKDO      H81           -17.6876152191       17.6194739763       23.3419478721  LPSA8     3               1.0000000000
      8116       255  AKDO      H82           -17.5829060628       16.1406210511       24.2853144505  LPSA8     3               1.0000000000
      8117       255  AKDO      O8            -19.4195402280       16.6359822595       23.6541307456  LPSA8     3               1.0000000000
      8118       255  AKDO      HO8           -19.6625904842       17.4888005706       23.2473452835  LPSA8     3               1.0000000000
      8119       256  AHEP      C1            -11.7454279684       16.6417309732       27.2793229502  LPSA8     4               2.0000000000
      8120       256  AHEP      H1            -11.0639005785       15.8355779645       26.8517192453  LPSA8     4               2.0000000000
      8121       256  AHEP      C5            -11.6029565070       18.9450940417       28.0185271385  LPSA8     4               2.0000000000
      8122       256  AHEP      H5            -12.6666576708       18.9968308315       27.5619054335  LPSA8     4               2.0000000000
      8123       256  AHEP      O5            -10.9652281846       17.8341415524       27.3942805697  LPSA8     4               2.0000000000
      8124       256  AHEP      C2            -12.0633936056       16.1927481716       28.6827861277  LPSA8     4               2.0000000000
      8125       256  AHEP      H2            -12.7018376898       15.3044891130       28.7442425996  LPSA8     4               2.0000000000
      8126       256  AHEP      O2            -10.8913073302       15.8722973509       29.3407203943  LPSA8     4               2.0000000000
      8127       256  AHEP      HO2           -11.0215313898       15.0953333084       29.8507927467  LPSA8     4               2.0000000000
      8128       256  AHEP      C3            -12.7619210583       17.3086476091       29.4857672188  LPSA8     4               2.0000000000
      8129       256  AHEP      H3            -13.8115902632       17.5044221461       29.2269906369  LPSA8     4               2.0000000000
      8130       256  AHEP      O3            -12.8715800959       16.9407181274       30.7882097304  LPSA8     4               2.0000000000
      8131       256  AHEP      C4            -11.9092909706       18.5510492415       29.4546205599  LPSA8     4               2.0000000000
      8132       256  AHEP      H4            -10.9238441074       18.4760248045       29.9788637739  LPSA8     4               2.0000000000
      8133       256  AHEP      O4            -12.6288973005       19.6097037339       30.0145912217  LPSA8     4               2.0000000000
      8134       256  AHEP      P4            -12.2575282978       20.2609578788       31.4978499249  LPSA8     4               2.0000000000
      8135       256  AHEP      OP42          -13.5054735446       20.6995298675       32.1560374192  LPSA8     4               2.0000000000
      8136       256  AHEP      OP43          -11.4050215986       21.4075106581       31.0397938518  LPSA8     4               2.0000000000
      8137       256  AHEP      OP44          -11.3901872716       19.2488728402       32.3098937101  LPSA8     4               2.0000000000
      8138       256  AHEP      C6            -10.7978100660       20.2760402792       27.7982482844  LPSA8     4               2.0000000000
      8139       256  AHEP      H6            -11.5074614461       21.1111779711       28.0833143566  LPSA8     4               2.0000000000
      8140       256  AHEP      O6             -9.6965120669       20.2641962037       28.7103505027  LPSA8     4               2.0000000000
      8141       256  AHEP      HO6            -9.6262343255       21.1151334919       29.2203787365  LPSA8     4               2.0000000000
      8142       256  AHEP      C7            -10.3474805008       20.5070385412       26.3054198206  LPSA8     4               2.0000000000
      8143       256  AHEP      H71            -9.9187981666       21.5536490998       26.1576126064  LPSA8     4               2.0000000000
      8144       256  AHEP      H72           -11.1879312085       20.2437309429       25.6323487339  LPSA8     4               2.0000000000
      8145       256  AHEP      O7             -9.2671930623       19.6389177328       25.9755159574  LPSA8     4               2.0000000000
      8146       256  AHEP      HO7            -8.4539704089       20.0360430069       26.3256794122  LPSA8     4               2.0000000000
      8147       257  AHEP      C1            -14.1600353432       16.8275948059       31.4342177374  LPSA8     5               3.0000000000
      8148       257  AHEP      H1            -14.9084638758       17.5283207937       30.9794447437  LPSA8     5               3.0000000000
      8149       257  AHEP      C5            -13.8705845067       14.5124767692       31.9165413065  LPSA8     5               3.0000000000
      8150       257  AHEP      H5            -12.7867914542       14.6938301532       31.6031509785  LPSA8     5               3.0000000000
      8151       257  AHEP      O5            -14.6886767240       15.4954007306       31.3013865768  LPSA8     5               3.0000000000
      8152       257  AHEP      C2            -14.1371677107       17.1218782955       32.9718957084  LPSA8     5               3.0000000000
      8153       257  AHEP      H2            -13.6572474175       18.1461081682       33.0921707216  LPSA8     5               3.0000000000
      8154       257  AHEP      O2            -15.4610579684       17.1793533778       33.4691025827  LPSA8     5               3.0000000000
      8155       257  AHEP      HO2           -15.7085848994       18.0824641109       33.6403503244  LPSA8     5               3.0000000000
      8156       257  AHEP      C3            -13.2334314487       16.1057093278       33.7004304811  LPSA8     5               3.0000000000
      8157       257  AHEP      H3            -12.2019456959       16.1742875859       33.3375632548  LPSA8     5               3.0000000000
      8158       257  AHEP      O3            -13.1444672890       16.2492100298       35.1462238331  LPSA8     5               3.0000000000
      8159       257  AHEP      C4            -13.8185973366       14.7579328138       33.4524658705  LPSA8     5               3.0000000000
      8160       257  AHEP      H4            -14.8710672719       14.6779885970       33.8188816395  LPSA8     5               3.0000000000
      8161       257  AHEP      O4            -12.9527853389       13.7658881833       34.0881196202  LPSA8     5               3.0000000000
      8162       257  AHEP      P4            -13.4958866144       12.8580763124       35.2810123301  LPSA8     5               3.0000000000
      8163       257  AHEP      OP42          -12.2894905699       12.1263835560       35.8202965042  LPSA8     5               3.0000000000
      8164       257  AHEP      OP43          -14.5096763415       11.8934446826       34.6107506294  LPSA8     5               3.0000000000
      8165       257  AHEP      OP44          -14.2004155460       13.7790433681       36.2417033353  LPSA8     5               3.0000000000
      8166       257  AHEP      C6            -14.2643771980       13.0734510815       31.5493607386  LPSA8     5               3.0000000000
      8167       257  AHEP      H6            -13.5501117818       12.3366387164       31.9533288164  LPSA8     5               3.0000000000
      8168       257  AHEP      O6            -15.5668875240       12.7794658112       32.0428602265  LPSA8     5               3.0000000000
      8169       257  AHEP      HO6           -16.3272005323       13.1712418161       31.5367188277  LPSA8     5               3.0000000000
      8170       257  AHEP      C7            -14.0997019847       12.8607445326       30.0822725317  LPSA8     5               3.0000000000
      8171       257  AHEP      H71           -13.7952252698       11.8039878523       29.9169108581  LPSA8     5               3.0000000000
      8172       257  AHEP      H72           -13.3224684639       13.4963414289       29.6179339851  LPSA8     5               3.0000000000
      8173       257  AHEP      O7            -15.4122108479       12.9884673645       29.4957736452  LPSA8     5               3.0000000000
      8174       258  AHEP      C1            -15.6053992951       14.1787591192       28.7926622005  LPSA8     6               4.0000000000
      8175       258  AHEP      H1            -14.7759272090       14.9276922505       29.0422981953  LPSA8     6               4.0000000000
      8176       258  AHEP      C5            -16.5844411081       13.0626568879       26.9237617191  LPSA8     6               4.0000000000
      8177       258  AHEP      H5            -16.4814339108       12.1216522695       27.4818042043  LPSA8     6               4.0000000000
      8178       258  AHEP      O5            -15.5817121379       13.9963620326       27.3547530115  LPSA8     6               4.0000000000
      8179       258  AHEP      C2            -16.8994253955       14.8003082522       29.2397872647  LPSA8     6               4.0000000000
      8180       258  AHEP      H2            -16.8085627701       14.9889953810       30.3523091474  LPSA8     6               4.0000000000
      8181       258  AHEP      O2            -17.0808302501       16.0948743900       28.7267108980  LPSA8     6               4.0000000000
      8182       258  AHEP      HO2           -16.9584072227       16.6565470468       29.4669064354  LPSA8     6               4.0000000000
      8183       258  AHEP      C3            -18.0481114975       13.8377543802       28.8468391403  LPSA8     6               4.0000000000
      8184       258  AHEP      H3            -17.9064775798       12.9201029894       29.4311808254  LPSA8     6               4.0000000000
      8185       258  AHEP      O3            -19.4192645211       14.3478921327       29.2225362108  LPSA8     6               4.0000000000
      8186       258  AHEP      HO3           -19.7980921608       14.0057819437       29.9865592523  LPSA8     6               4.0000000000
      8187       258  AHEP      C4            -17.9556839970       13.6431660263       27.2761740859  LPSA8     6               4.0000000000
      8188       258  AHEP      H4            -18.2387263119       14.5684861678       26.7944950683  LPSA8     6               4.0000000000
      8189       258  AHEP      O4            -18.9615627184       12.7395539693       26.7938835778  LPSA8     6               4.0000000000
      8190       258  AHEP      HO4           -18.6288891131       11.8320414615       27.1589530594  LPSA8     6               4.0000000000
      8191       258  AHEP      C6            -16.4322533065       12.6478351935       25.4906533340  LPSA8     6               4.0000000000
      8192       258  AHEP      H6            -17.1804590515       11.8765542759       25.3442628137  LPSA8     6               4.0000000000
      8193       258  AHEP      O6            -16.8585531286       13.7119440661       24.6375675438  LPSA8     6               4.0000000000
      8194       258  AHEP      HO6           -16.1774690312       13.9390751999       23.9977784313  LPSA8     6               4.0000000000
      8195       258  AHEP      C7            -15.0993818802       12.0316224395       25.1799756221  LPSA8     6               4.0000000000
      8196       258  AHEP      H71           -15.1608364668       11.6087294551       24.1408078076  LPSA8     6               4.0000000000
      8197       258  AHEP      H72           -14.9556344251       11.2290191492       25.9252229174  LPSA8     6               4.0000000000
      8198       258  AHEP      O7            -14.0270745170       12.9241796254       25.2517430265  LPSA8     6               4.0000000000
      8199       258  AHEP      HO7           -13.7881539485       12.9352767973       26.2011285002  LPSA8     6               4.0000000000
      8200       259  AGLC      C1            -12.1511484349       17.1293063803       35.6520976122  LPSA8     7               4.0000000000
      8201       259  AGLC      H1            -11.1383725508       16.8402878110       35.2047739589  LPSA8     7               4.0000000000
      8202       259  AGLC      C5            -13.5692502788       18.9606259701       36.0987679218  LPSA8     7               4.0000000000
      8203       259  AGLC      H5            -14.4610781647       18.3751586101       35.8327124756  LPSA8     7               4.0000000000
      8204       259  AGLC      O5            -12.4471332383       18.4789899506       35.4366254460  LPSA8     7               4.0000000000
      8205       259  AGLC      C2            -11.9947773706       16.9835345101       37.1582745954  LPSA8     7               4.0000000000
      8206       259  AGLC      H2            -11.2300442814       17.7747816868       37.4887389927  LPSA8     7               4.0000000000
      8207       259  AGLC      O2            -11.3149462938       15.7606474886       37.5024056006  LPSA8     7               4.0000000000
      8208       259  AGLC      HO2           -12.0082598528       15.1198034460       37.6430208865  LPSA8     7               4.0000000000
      8209       259  AGLC      C3            -13.1040208511       17.4048305178       37.9903802326  LPSA8     7               4.0000000000
      8210       259  AGLC      H3            -13.9280379833       16.7646744795       37.6727250444  LPSA8     7               4.0000000000
      8211       259  AGLC      O3            -13.0051318349       17.1455595011       39.4204481292  LPSA8     7               4.0000000000
      8212       259  AGLC      C4            -13.3168056380       18.8363939826       37.5928595998  LPSA8     7               4.0000000000
      8213       259  AGLC      H4            -12.4382045714       19.4866215165       37.9560286200  LPSA8     7               4.0000000000
      8214       259  AGLC      O4            -14.5584460130       19.2163554884       38.2243117391  LPSA8     7               4.0000000000
      8215       259  AGLC      HO4           -14.5390363099       20.0644145022       38.6132003238  LPSA8     7               4.0000000000
      8216       259  AGLC      C6            -13.9630122187       20.3446141308       35.5245160098  LPSA8     7               4.0000000000
      8217       259  AGLC      H61           -14.0276121410       20.2189670237       34.4135318240  LPSA8     7               4.0000000000
      8218       259  AGLC      H62           -14.9140745026       20.8016868300       35.8722646349  LPSA8     7               4.0000000000
      8219       259  AGLC      O6            -12.8159569362       21.2328521868       35.6892983147  LPSA8     7               4.0000000000
      8220       259  AGLC      HO6           -13.0915508424       21.6892592504       36.4386090630  LPSA8     7               4.0000000000
      8221       260  AGLC      C1            -13.9019635454       16.2252087613       39.9328324507  LPSA8     8               5.0000000000
      8222       260  AGLC      H1            -14.9240010783       16.4610788123       39.5884769495  LPSA8     8               5.0000000000
      8223       260  AGLC      C5            -12.3786629067       14.2851765852       40.2153373402  LPSA8     8               5.0000000000
      8224       260  AGLC      H5            -11.5584416114       14.9090505852       39.8400606936  LPSA8     8               5.0000000000
      8225       260  AGLC      O5            -13.5902193849       14.8246669245       39.6195505863  LPSA8     8               5.0000000000
      8226       260  AGLC      C2            -13.9637801266       16.3131892514       41.4170311384  LPSA8     8               5.0000000000
      8227       260  AGLC      H2            -14.8313642519       15.6563420840       41.6529594578  LPSA8     8               5.0000000000
      8228       260  AGLC      O2            -14.4046917598       17.5593635393       41.9438754185  LPSA8     8               5.0000000000
      8229       260  AGLC      C3            -12.7511641336       15.8335363022       42.1297388169  LPSA8     8               5.0000000000
      8230       260  AGLC      H3            -11.9929526860       16.5302271806       41.6567950186  LPSA8     8               5.0000000000
      8231       260  AGLC      O3            -12.8790077160       16.0685185207       43.5370978028  LPSA8     8               5.0000000000
      8232       260  AGLC      C4            -12.5540563787       14.4389889295       41.7603093222  LPSA8     8               5.0000000000
      8233       260  AGLC      H4            -13.4044107351       13.8451149288       42.0401368658  LPSA8     8               5.0000000000
      8234       260  AGLC      O4            -11.4135608902       13.9061360988       42.3914819843  LPSA8     8               5.0000000000
      8235       260  AGLC      HO4           -10.7493405407       14.5510168418       42.3800652601  LPSA8     8               5.0000000000
      8236       260  AGLC      C6            -11.9462014619       12.8794541085       39.7357334439  LPSA8     8               5.0000000000
      8237       260  AGLC      H61           -12.0062502205       12.7381027848       38.6468043611  LPSA8     8               5.0000000000
      8238       260  AGLC      H62           -10.9547286501       12.5870835879       40.0276014644  LPSA8     8               5.0000000000
      8239       260  AGLC      O6            -12.6773381593       11.8332118287       40.3040784562  LPSA8     8               5.0000000000
      8240       260  AGLC      HO6           -12.3833671883       11.6230262685       41.2121845210  LPSA8     8               5.0000000000
      8241       261  AGAL      C1            -15.5792149682       18.1351125969       41.4573847493  LPSA8     9               6.0000000000
      8242       261  AGAL      H1            -15.5964220593       18.0902164285       40.3420235153  LPSA8     9               6.0000000000
      8243       261  AGAL      C5            -17.0420558706       17.6698513522       43.2125447641  LPSA8     9               6.0000000000
      8244       261  AGAL      H5            -16.0551660702       17.3697078427       43.7424973645  LPSA8     9               6.0000000000
      8245       261  AGAL      O5            -16.8527809638       17.5330835511       41.8451689838  LPSA8     9               6.0000000000
      8246       261  AGAL      C2            -15.5813157128       19.5915823692       41.8393925249  LPSA8     9               6.0000000000
      8247       261  AGAL      H2            -16.4515106542       20.0684861433       41.4115621152  LPSA8     9               6.0000000000
      8248       261  AGAL      O2            -14.5480272491       20.3302175463       41.1608705954  LPSA8     9               6.0000000000
      8249       261  AGAL      C3            -15.7861050813       19.7822714203       43.3264191845  LPSA8     9               6.0000000000
      8250       261  AGAL      H3            -14.8842442393       19.3479440451       43.9424563891  LPSA8     9               6.0000000000
      8251       261  AGAL      O3            -15.7002550667       21.1098172295       43.7491515633  LPSA8     9               6.0000000000
      8252       261  AGAL      HO3           -15.0603003923       21.5336282155       43.1585960960  LPSA8     9               6.0000000000
      8253       261  AGAL      C4            -17.0757323777       19.1416189992       43.6505755014  LPSA8     9               6.0000000000
      8254       261  AGAL      H4            -17.2927860555       19.1243968328       44.7734818408  LPSA8     9               6.0000000000
      8255       261  AGAL      O4            -18.1919429994       19.7222925530       43.0499075873  LPSA8     9               6.0000000000
      8256       261  AGAL      HO4           -18.9322196128       19.5900821382       43.6622427513  LPSA8     9               6.0000000000
      8257       261  AGAL      C6            -18.0493178467       16.7018503103       43.8349081587  LPSA8     9               6.0000000000
      8258       261  AGAL      H61           -17.8128476201       15.6237506574       43.6417203355  LPSA8     9               6.0000000000
      8259       261  AGAL      H62           -18.1117397965       16.7452636664       44.9292747136  LPSA8     9               6.0000000000
      8260       261  AGAL      O6            -19.3496733765       16.9728801623       43.4062227539  LPSA8     9               6.0000000000
      8261       261  AGAL      HO6           -19.5499501726       16.3397202139       42.6923548993  LPSA8     9               6.0000000000
      8262       262  AGAL      C1            -13.5960485390       21.2458293117       41.7517281777  LPSA8     10              7.0000000000
      8263       262  AGAL      H1            -14.1718256508       22.1766767011       41.8429972083  LPSA8     10              7.0000000000
      8264       262  AGAL      C5            -12.1491702196       19.8380409284       43.0613392294  LPSA8     10              7.0000000000
      8265       262  AGAL      H5            -12.7882233639       18.9501013311       42.6233508762  LPSA8     10              7.0000000000
      8266       262  AGAL      O5            -12.9751605441       21.0180948134       43.0470213554  LPSA8     10              7.0000000000
      8267       262  AGAL      C2            -12.4625535568       21.4108396499       40.7227968417  LPSA8     10              7.0000000000
      8268       262  AGAL      H2            -11.9070875145       22.3755023007       41.0433947026  LPSA8     10              7.0000000000
      8269       262  AGAL      O2            -12.8736167217       21.9729596334       39.5532095562  LPSA8     10              7.0000000000
      8270       262  AGAL      HO2           -12.3528528044       22.7371241087       39.3379401176  LPSA8     10              7.0000000000
      8271       262  AGAL      C3            -11.5601709773       20.2293898404       40.6928251787  LPSA8     10              7.0000000000
      8272       262  AGAL      H3            -12.2348180092       19.4058500759       40.4679648945  LPSA8     10              7.0000000000
      8273       262  AGAL      O3            -10.5121451948       20.3002253603       39.7732034444  LPSA8     10              7.0000000000
      8274       262  AGAL      HO3           -10.7369526971       19.7060993457       39.0151094934  LPSA8     10              7.0000000000
      8275       262  AGAL      C4            -10.9864673752       20.0198039663       42.0524071915  LPSA8     10              7.0000000000
      8276       262  AGAL      H4            -10.3912024719       19.0880878695       42.1099272557  LPSA8     10              7.0000000000
      8277       262  AGAL      O4            -10.1633372890       21.0587855863       42.4965010455  LPSA8     10              7.0000000000
      8278       262  AGAL      HO4           -10.7468939999       21.7927073872       42.5675127347  LPSA8     10              7.0000000000
      8279       262  AGAL      C6            -11.6850210881       19.3492137016       44.3959537205  LPSA8     10              7.0000000000
      8280       262  AGAL      H61           -12.5014960905       19.2481731722       45.1044438806  LPSA8     10              7.0000000000
      8281       262  AGAL      H62           -11.2913647212       18.2296073873       44.2564473849  LPSA8     10              7.0000000000
      8282       262  AGAL      O6            -10.6474539127       20.0527692483       45.1112340130  LPSA8     10              7.0000000000
      8283       262  AGAL      HO6           -11.0414440957       20.4191085497       45.9237589285  LPSA8     10              7.0000000000
      8284       263  BGLC      C1            -13.3433082781       15.1415879075       44.5018065681  LPSA8     11              6.0000000000
      8285       263  BGLC      H1            -12.5062680804       14.4647046532       44.5883763758  LPSA8     11              6.0000000000
      8286       263  BGLC      C5            -15.1700414684       13.5437080792       45.1248117688  LPSA8     11              6.0000000000
      8287       263  BGLC      H5            -14.4483965964       12.6929421782       45.3871201921  LPSA8     11              6.0000000000
      8288       263  BGLC      O5            -14.6198178357       14.5130501208       44.0830650888  LPSA8     11              6.0000000000
      8289       263  BGLC      C2            -13.6009843514       15.8673550095       45.7977571702  LPSA8     11              6.0000000000
      8290       263  BGLC      H2            -14.3194558043       16.7227987490       45.7293388291  LPSA8     11              6.0000000000
      8291       263  BGLC      O2            -12.3735820839       16.5198447845       46.0886391483  LPSA8     11              6.0000000000
      8292       263  BGLC      HO2           -12.5474177065       17.4216022033       46.2788110113  LPSA8     11              6.0000000000
      8293       263  BGLC      C3            -14.1332056911       15.0148446382       46.8736276645  LPSA8     11              6.0000000000
      8294       263  BGLC      H3            -13.2944232975       14.2657769889       47.1984917368  LPSA8     11              6.0000000000
      8295       263  BGLC      O3            -14.3676604987       15.8445442477       48.0056213318  LPSA8     11              6.0000000000
      8296       263  BGLC      C4            -15.3509401736       14.3626285109       46.4390836423  LPSA8     11              6.0000000000
      8297       263  BGLC      H4            -16.0872288204       15.2024064627       46.2001611147  LPSA8     11              6.0000000000
      8298       263  BGLC      O4            -15.9483357311       13.6027680793       47.4766894645  LPSA8     11              6.0000000000
      8299       263  BGLC      HO4           -16.3135661449       14.2167338014       48.1247908570  LPSA8     11              6.0000000000
      8300       263  BGLC      C6            -16.3770759065       12.7986404770       44.5291127165  LPSA8     11              6.0000000000
      8301       263  BGLC      H61           -17.0394854571       12.3360572686       45.2481190913  LPSA8     11              6.0000000000
      8302       263  BGLC      H62           -16.9266501249       13.5352170746       43.8913252379  LPSA8     11              6.0000000000
      8303       263  BGLC      O6            -16.0377898518       11.7661572184       43.5637942269  LPSA8     11              6.0000000000
      8304       263  BGLC      HO6           -16.2784647339       10.9861034380       44.0054369298  LPSA8     11              6.0000000000
      8305       264  BGLCNA    C1            -13.8610884366       15.5335861580       49.3238540420  LPSA8     12              7.0000000000
      8306       264  BGLCNA    H1            -12.8032880175       15.9593132334       49.3874222992  LPSA8     12              7.0000000000
      8307       264  BGLCNA    C5            -13.2106854090       13.8267358977       50.8763077070  LPSA8     12              7.0000000000
      8308       264  BGLCNA    H5            -12.1179197779       14.2625934971       50.9814236466  LPSA8     12              7.0000000000
      8309       264  BGLCNA    O5            -13.8118623095       14.1135020532       49.5875345322  LPSA8     12              7.0000000000
      8310       264  BGLCNA    C2            -14.7626963813       16.1766530658       50.3245054808  LPSA8     12              7.0000000000
      8311       264  BGLCNA    H2            -15.7476989595       15.5418974266       50.3375086743  LPSA8     12              7.0000000000
      8312       264  BGLCNA    N             -14.9122900801       17.6160784675       50.0347611965  LPSA8     12              7.0000000000
      8313       264  BGLCNA    HN            -14.0498819441       17.9999744594       49.9972643287  LPSA8     12              7.0000000000
      8314       264  BGLCNA    C             -16.0861285805       18.1518573974       49.8903426450  LPSA8     12              7.0000000000
      8315       264  BGLCNA    O             -17.0900836747       17.4813877300       50.0855928044  LPSA8     12              7.0000000000
      8316       264  BGLCNA    CT            -16.1271059910       19.6146091330       49.5677689528  LPSA8     12              7.0000000000
      8317       264  BGLCNA    HT1           -16.5564198208       20.2124357795       50.3918503408  LPSA8     12              7.0000000000
      8318       264  BGLCNA    HT2           -16.9131719462       19.8114681508       48.7104760971  LPSA8     12              7.0000000000
      8319       264  BGLCNA    HT3           -15.0983930912       19.8956589635       49.2316245990  LPSA8     12              7.0000000000
      8320       264  BGLCNA    C3            -14.2492370496       15.9780513939       51.6995695120  LPSA8     12              7.0000000000
      8321       264  BGLCNA    H3            -13.2124673415       16.5308099459       51.8605307917  LPSA8     12              7.0000000000
      8322       264  BGLCNA    O3            -15.0517516013       16.6211567995       52.7272334264  LPSA8     12              7.0000000000
      8323       264  BGLCNA    C4            -14.1344062598       14.5097205211       51.9591692987  LPSA8     12              7.0000000000
      8324       264  BGLCNA    H4            -15.1351468974       13.9353217323       51.9037868612  LPSA8     12              7.0000000000
      8325       264  BGLCNA    O4            -13.6405856292       14.2427278584       53.2294962294  LPSA8     12              7.0000000000
      8326       264  BGLCNA    HO4           -12.6539255026       14.4067365237       53.2834945119  LPSA8     12              7.0000000000
      8327       264  BGLCNA    C6            -13.0342292909       12.2965887423       50.9528560558  LPSA8     12              7.0000000000
      8328       264  BGLCNA    H61           -12.6756560579       12.0101844141       51.9144325068  LPSA8     12              7.0000000000
      8329       264  BGLCNA    H62           -14.0462832407       11.9273647054       50.8287962869  LPSA8     12              7.0000000000
      8330       264  BGLCNA    O6            -12.2822111492       11.8334027955       49.8597561973  LPSA8     12              7.0000000000
      8331       264  BGLCNA    HO6           -11.3950080151       11.8696154924       50.1903398796  LPSA8     12              7.0000000000
      8332       265  AGAL      C1            -14.3140766738       17.2692665115       53.8132743488  LPSA8     13              8.0000000000
      8333       265  AGAL      H1            -13.5383878216       16.5690767019       54.1959401301  LPSA8     13              8.0000000000
      8334       265  AGAL      C5            -14.9811630953       19.5266098120       53.2950732168  LPSA8     13              8.0000000000
      8335       265  AGAL      H5            -15.6300810732       19.0491072353       52.5641412600  LPSA8     13              8.0000000000
      8336       265  AGAL      O5            -13.8714762140       18.6360296101       53.4918445955  LPSA8     13              8.0000000000
      8337       265  AGAL      C2            -15.1556125390       17.4871276005       55.1010141246  LPSA8     13              8.0000000000
      8338       265  AGAL      H2            -14.5773225183       18.1331035640       55.7917211299  LPSA8     13              8.0000000000
      8339       265  AGAL      O2            -15.4443278316       16.2773846657       55.7701983428  LPSA8     13              8.0000000000
      8340       265  AGAL      C3            -16.3437194110       18.4582160760       54.8979691660  LPSA8     13              8.0000000000
      8341       265  AGAL      H3            -16.9234735616       18.1132093359       54.0477453328  LPSA8     13              8.0000000000
      8342       265  AGAL      O3            -17.2765223043       18.4292125195       55.9888739531  LPSA8     13              8.0000000000
      8343       265  AGAL      HO3           -18.1770324615       18.4793905194       55.6848713412  LPSA8     13              8.0000000000
      8344       265  AGAL      C4            -15.8682893585       19.7510010900       54.5514025965  LPSA8     13              8.0000000000
      8345       265  AGAL      H4            -16.7325344415       20.4312591911       54.1954731349  LPSA8     13              8.0000000000
      8346       265  AGAL      O4            -15.1296739983       20.3825320599       55.5743212917  LPSA8     13              8.0000000000
      8347       265  AGAL      HO4           -14.4841435114       19.8390736566       56.0499681296  LPSA8     13              8.0000000000
      8348       265  AGAL      C6            -14.6694331534       20.7979761393       52.5301443486  LPSA8     13              8.0000000000
      8349       265  AGAL      H61           -14.0962637770       20.5521265960       51.6253596531  LPSA8     13              8.0000000000
      8350       265  AGAL      H62           -15.6287449038       21.3497959344       52.3684678279  LPSA8     13              8.0000000000
      8351       265  AGAL      O6            -13.8716505090       21.6749328173       53.2985910507  LPSA8     13              8.0000000000
      8352       265  AGAL      HO6           -14.4438800737       22.1382877640       53.9299633642  LPSA8     13              8.0000000000
      8353       266  ARHM      C1            -14.8605347407       16.0005890620       57.0117786358  LPSA8     14              9.0000000000
      8354       266  ARHM      H1            -13.8986565624       16.5539497970       56.9981767125  LPSA8     14              9.0000000000
      8355       266  ARHM      C5            -15.7143795514       13.8425152930       57.1930138837  LPSA8     14              9.0000000000
      8356       266  ARHM      H5            -16.2652370430       14.0359415734       56.1976867078  LPSA8     14              9.0000000000
      8357       266  ARHM      O5            -14.5758897530       14.6199228927       57.1718909996  LPSA8     14              9.0000000000
      8358       266  ARHM      C2            -15.7962095284       16.4845020431       58.1413490634  LPSA8     14              9.0000000000
      8359       266  ARHM      H2            -16.0002822399       17.5170312583       57.8875987320  LPSA8     14              9.0000000000
      8360       266  ARHM      O2            -15.2834874138       16.3619012630       59.4330148990  LPSA8     14              9.0000000000
      8361       266  ARHM      C3            -17.0600835436       15.6747876153       58.1095432995  LPSA8     14              9.0000000000
      8362       266  ARHM      H3            -17.4357526587       15.6656765726       57.0440121713  LPSA8     14              9.0000000000
      8363       266  ARHM      O3            -18.1135090401       16.2004490964       58.8567888868  LPSA8     14              9.0000000000
      8364       266  ARHM      HO3           -17.8696167546       16.0181557790       59.8104957846  LPSA8     14              9.0000000000
      8365       266  ARHM      C4            -16.6697620212       14.2613798710       58.3490442956  LPSA8     14              9.0000000000
      8366       266  ARHM      H4            -16.1101570448       14.0496375814       59.2902338481  LPSA8     14              9.0000000000
      8367       266  ARHM      O4            -17.8706901716       13.4469116035       58.4446785014  LPSA8     14              9.0000000000
      8368       266  ARHM      HO4           -18.0597025563       13.0578325487       59.2969967688  LPSA8     14              9.0000000000
      8369       266  ARHM      C6            -15.3302046074       12.3542591653       57.2492155848  LPSA8     14              9.0000000000
      8370       266  ARHM      H61           -14.4848881075       12.0507920327       56.5358243550  LPSA8     14              9.0000000000
      8371       266  ARHM      H62           -15.1172138958       12.1438580270       58.3170764683  LPSA8     14              9.0000000000
      8372       266  ARHM      H63           -16.0559927238       11.5974666282       56.9421594120  LPSA8     14              9.0000000000
      8373       267  ARHM      C1            -14.0686327712       16.8467338046       59.7267990175  LPSA8     15             10.0000000000
      8374       267  ARHM      H1            -13.7906733788       17.6800003872       59.0458905905  LPSA8     15             10.0000000000
      8375       267  ARHM      C5            -13.0701214329       14.7673492775       60.6468530148  LPSA8     15             10.0000000000
      8376       267  ARHM      H5            -13.9551818686       14.0851834353       60.4457705401  LPSA8     15             10.0000000000
      8377       267  ARHM      O5            -13.0155521994       15.8521093100       59.6688136410  LPSA8     15             10.0000000000
      8378       267  ARHM      C2            -14.0781089810       17.4237762421       61.1407671534  LPSA8     15             10.0000000000
      8379       267  ARHM      H2            -14.9906677686       18.1294356796       61.2133420761  LPSA8     15             10.0000000000
      8380       267  ARHM      O2            -12.8158714806       18.1310717480       61.3234079317  LPSA8     15             10.0000000000
      8381       267  ARHM      C3            -14.2554696601       16.3045098707       62.1677656617  LPSA8     15             10.0000000000
      8382       267  ARHM      H3            -15.1802243225       15.7399884361       61.8628392879  LPSA8     15             10.0000000000
      8383       267  ARHM      O3            -14.6034017021       16.9738459212       63.4092175029  LPSA8     15             10.0000000000
      8384       267  ARHM      C4            -13.1326972873       15.3911668473       62.0487117432  LPSA8     15             10.0000000000
      8385       267  ARHM      H4            -12.1518134090       16.0078297058       62.1496903561  LPSA8     15             10.0000000000
      8386       267  ARHM      O4            -13.0620655113       14.2942098123       62.9635513464  LPSA8     15             10.0000000000
      8387       267  ARHM      HO4           -12.1760683517       13.9645621348       62.9565205260  LPSA8     15             10.0000000000
      8388       267  ARHM      C6            -11.8810255900       13.8562367277       60.4460959132  LPSA8     15             10.0000000000
      8389       267  ARHM      H61           -11.8792290503       12.9411148961       61.0956562646  LPSA8     15             10.0000000000
      8390       267  ARHM      H62           -11.7323322255       13.6790573270       59.3910198679  LPSA8     15             10.0000000000
      8391       267  ARHM      H63           -10.9314119426       14.3003032210       60.8578185328  LPSA8     15             10.0000000000
      8392       268  BMANNA    C1            -12.5856671324       18.8668236026       62.5145562334  LPSA8     16             11.0000000000
      8393       268  BMANNA    H1            -12.4117236397       18.0839512888       63.3432051365  LPSA8     16             11.0000000000
      8394       268  BMANNA    C5            -13.3428725419       20.3382428264       64.1851548173  LPSA8     16             11.0000000000
      8395       268  BMANNA    H5            -13.1287563181       19.6118838452       64.9800677769  LPSA8     16             11.0000000000
      8396       268  BMANNA    O5            -13.6598911816       19.7089058462       62.9158851071  LPSA8     16             11.0000000000
      8397       268  BMANNA    C2            -11.2983915591       19.6908044772       62.2781089586  LPSA8     16             11.0000000000
      8398       268  BMANNA    H2            -10.5290019375       18.9267681350       61.9912908466  LPSA8     16             11.0000000000
      8399       268  BMANNA    N             -11.3081260690       20.7116503998       61.2264456342  LPSA8     16             11.0000000000
      8400       268  BMANNA    HN            -11.6084173510       21.5714305661       61.5688724990  LPSA8     16             11.0000000000
      8401       268  BMANNA    C             -11.0010905518       20.5015562601       59.9704010620  LPSA8     16             11.0000000000
      8402       268  BMANNA    O             -10.5838050426       19.3846426341       59.5582221915  LPSA8     16             11.0000000000
      8403       268  BMANNA    CT            -11.1700332234       21.6778773491       59.1331689300  LPSA8     16             11.0000000000
      8404       268  BMANNA    HT1           -10.2626172797       22.1789483029       58.8344492748  LPSA8     16             11.0000000000
      8405       268  BMANNA    HT2           -11.8348818496       22.4572021523       59.5043001239  LPSA8     16             11.0000000000
      8406       268  BMANNA    HT3           -11.6132166925       21.3986593267       58.1231520073  LPSA8     16             11.0000000000
      8407       268  BMANNA    C3            -10.9572569731       20.3065780375       63.6119771117  LPSA8     16             11.0000000000
      8408       268  BMANNA    H3            -10.8195514827       19.5050862034       64.3839812837  LPSA8     16             11.0000000000
      8409       268  BMANNA    O3             -9.7467257363       21.0070099742       63.6122488842  LPSA8     16             11.0000000000
      8410       268  BMANNA    HO3            -9.1723625094       20.6864820841       64.2950500102  LPSA8     16             11.0000000000
      8411       268  BMANNA    C4            -12.0841491597       21.2234667090       64.1045846713  LPSA8     16             11.0000000000
      8412       268  BMANNA    H4            -12.2652449014       22.0678262590       63.4124605202  LPSA8     16             11.0000000000
      8413       268  BMANNA    O4            -11.9002800702       21.8611483995       65.3816866120  LPSA8     16             11.0000000000
      8414       268  BMANNA    HO4           -12.4280330994       22.6566701079       65.4353184152  LPSA8     16             11.0000000000
      8415       268  BMANNA    C6            -14.5163890996       21.1539938179       64.7427751243  LPSA8     16             11.0000000000
      8416       268  BMANNA    H61           -14.4331376627       21.1232119027       65.8875394407  LPSA8     16             11.0000000000
      8417       268  BMANNA    H62           -14.4529182153       22.2010463782       64.4389269682  LPSA8     16             11.0000000000
      8418       268  BMANNA    O6            -15.8154590328       20.6555092943       64.3660927576  LPSA8     16             11.0000000000
      8419       268  BMANNA    HO6           -16.1977827060       21.4338548493       63.9036969990  LPSA8     16             11.0000000000
      8420       269  BGLCNA    C1            -15.5189565875       16.3455875533       64.1715778089  LPSA8     17             11.0000000000
      8421       269  BGLCNA    H1            -15.4918753660       15.2118134619       63.9082176002  LPSA8     17             11.0000000000
      8422       269  BGLCNA    C5            -17.9192468564       16.0962761437       64.5563394407  LPSA8     17             11.0000000000
      8423       269  BGLCNA    H5            -17.9388159405       14.9755057805       64.2825289487  LPSA8     17             11.0000000000
      8424       269  BGLCNA    O5            -16.8754302862       16.7098119279       63.7849982893  LPSA8     17             11.0000000000
      8425       269  BGLCNA    C2            -15.2364878907       16.6815804459       65.5899343931  LPSA8     17             11.0000000000
      8426       269  BGLCNA    H2            -15.2967126549       17.7976440986       65.8249043900  LPSA8     17             11.0000000000
      8427       269  BGLCNA    N             -13.8877530302       16.4103369422       65.8849826081  LPSA8     17             11.0000000000
      8428       269  BGLCNA    HN            -13.4370194221       15.6281696837       65.4150135415  LPSA8     17             11.0000000000
      8429       269  BGLCNA    C             -13.0960914879       16.9332817265       66.8043620798  LPSA8     17             11.0000000000
      8430       269  BGLCNA    O             -13.4327050271       17.9032851797       67.4729873017  LPSA8     17             11.0000000000
      8431       269  BGLCNA    CT            -11.7749964487       16.2844960381       66.9728872304  LPSA8     17             11.0000000000
      8432       269  BGLCNA    HT1           -10.8698444564       16.7593326315       66.5529393721  LPSA8     17             11.0000000000
      8433       269  BGLCNA    HT2           -11.8936377945       15.2169561092       66.7043805047  LPSA8     17             11.0000000000
      8434       269  BGLCNA    HT3           -11.5167642544       16.1934090744       68.1408097225  LPSA8     17             11.0000000000
      8435       269  BGLCNA    C3            -16.2669884823       15.9356007910       66.4076579941  LPSA8     17             11.0000000000
      8436       269  BGLCNA    H3            -16.1111423894       14.8648573390       66.0441361901  LPSA8     17             11.0000000000
      8437       269  BGLCNA    O3            -15.8568980454       16.0209161597       67.8205355914  LPSA8     17             11.0000000000
      8438       269  BGLCNA    C4            -17.6506776349       16.4597553554       66.0496966154  LPSA8     17             11.0000000000
      8439       269  BGLCNA    H4            -17.6963569351       17.6031865820       66.1123142204  LPSA8     17             11.0000000000
      8440       269  BGLCNA    O4            -18.6538109349       15.9742041975       66.9186044206  LPSA8     17             11.0000000000
      8441       269  BGLCNA    HO4           -19.5431595833       16.2418488297       66.7204061560  LPSA8     17             11.0000000000
      8442       269  BGLCNA    C6            -19.2851421024       16.6616186569       64.1200051697  LPSA8     17             11.0000000000
      8443       269  BGLCNA    H61           -20.0239911560       15.8841052750       64.1272946536  LPSA8     17             11.0000000000
      8444       269  BGLCNA    H62           -19.6347657706       17.4807764019       64.8212395067  LPSA8     17             11.0000000000
      8445       269  BGLCNA    O6            -19.2555818302       17.2040553589       62.7926115083  LPSA8     17             11.0000000000
      8446       269  BGLCNA    HO6           -18.9970798179       16.5196161354       62.1856770532  LPSA8     17             11.0000000000
      8447       270  AGAL      C1            -16.1280146251       14.8413924223       68.6198653987  LPSA8     18             12.0000000000
      8448       270  AGAL      H1            -17.2421321407       14.8162848620       68.8082567594  LPSA8     18             12.0000000000
      8449       270  AGAL      C5            -14.2663555489       13.5261200067       67.8636918791  LPSA8     18             12.0000000000
      8450       270  AGAL      H5            -13.8923414780       14.4467367951       67.4068928888  LPSA8     18             12.0000000000
      8451       270  AGAL      O5            -15.7297755574       13.6468914339       67.9834320655  LPSA8     18             12.0000000000
      8452       270  AGAL      C2            -15.3677024912       14.8773013199       70.0000206359  LPSA8     18             12.0000000000
      8453       270  AGAL      H2            -15.7017633570       13.8886779973       70.3908489884  LPSA8     18             12.0000000000
      8454       270  AGAL      O2            -15.9229599241       15.8390568873       70.8342757016  LPSA8     18             12.0000000000
      8455       270  AGAL      C3            -13.8867879317       14.7946040841       69.8682924558  LPSA8     18             12.0000000000
      8456       270  AGAL      H3            -13.5454130841       15.5971930974       69.0958348126  LPSA8     18             12.0000000000
      8457       270  AGAL      O3            -13.2254665417       15.0241586049       71.0758896640  LPSA8     18             12.0000000000
      8458       270  AGAL      HO3           -12.4938504110       15.6344743971       70.9682873819  LPSA8     18             12.0000000000
      8459       270  AGAL      C4            -13.5383121114       13.5467217405       69.1634745928  LPSA8     18             12.0000000000
      8460       270  AGAL      H4            -12.4611884047       13.4183453837       68.9039691178  LPSA8     18             12.0000000000
      8461       270  AGAL      O4            -13.8784107136       12.3910091232       69.9734134928  LPSA8     18             12.0000000000
      8462       270  AGAL      HO4           -13.1940325793       12.3000192301       70.7236544006  LPSA8     18             12.0000000000
      8463       270  AGAL      C6            -13.9925626477       12.5539513385       66.8042742825  LPSA8     18             12.0000000000
      8464       270  AGAL      H61           -14.4220343811       12.9615715732       65.8877991861  LPSA8     18             12.0000000000
      8465       270  AGAL      H62           -12.8793764544       12.5549187837       66.6499463921  LPSA8     18             12.0000000000
      8466       270  AGAL      O6            -14.4954245832       11.3298352869       66.9803033045  LPSA8     18             12.0000000000
      8467       270  AGAL      HO6           -15.1394523186       11.2101820370       67.6707071977  LPSA8     18             12.0000000000
      8468       271  ARHM      C1            -16.0497951156       15.3135109721       72.1803514454  LPSA8     19             13.0000000000
      8469       271  ARHM      H1            -15.4001047653       14.4727222961       72.3185909119  LPSA8     19             13.0000000000
      8470       271  ARHM      C5            -18.4047057152       15.5829925011       72.2512180912  LPSA8     19             13.0000000000
      8471       271  ARHM      H5            -18.3233431744       15.9973972304       71.2133247196  LPSA8     19             13.0000000000
      8472       271  ARHM      O5            -17.3132896110       14.6760489776       72.4162684983  LPSA8     19             13.0000000000
      8473       271  ARHM      C2            -15.8208417786       16.4472157524       73.1100514097  LPSA8     19             13.0000000000
      8474       271  ARHM      H2            -14.9419525995       17.0147235341       72.9420985559  LPSA8     19             13.0000000000
      8475       271  ARHM      O2            -15.7792893702       15.9781450923       74.4131644751  LPSA8     19             13.0000000000
      8476       271  ARHM      C3            -17.0350450398       17.4190366755       72.9859276785  LPSA8     19             13.0000000000
      8477       271  ARHM      H3            -17.0823587520       17.7356458880       71.9471750908  LPSA8     19             13.0000000000
      8478       271  ARHM      O3            -16.8554025095       18.5464946745       73.7644258584  LPSA8     19             13.0000000000
      8479       271  ARHM      HO3           -16.6168134607       18.2400460194       74.6464134549  LPSA8     19             13.0000000000
      8480       271  ARHM      C4            -18.3260741035       16.7645077694       73.2443334127  LPSA8     19             13.0000000000
      8481       271  ARHM      H4            -18.2663445442       16.3798236202       74.2703943704  LPSA8     19             13.0000000000
      8482       271  ARHM      O4            -19.4423353297       17.5942659580       73.1708570575  LPSA8     19             13.0000000000
      8483       271  ARHM      HO4           -19.4992754878       17.8848529830       72.2126258713  LPSA8     19             13.0000000000
      8484       271  ARHM      C6            -19.7562934322       14.8481659994       72.3031700958  LPSA8     19             13.0000000000
      8485       271  ARHM      H61           -19.6196557351       14.1209476780       71.5186681997  LPSA8     19             13.0000000000
      8486       271  ARHM      H62           -19.9915105244       14.3220226524       73.2001761489  LPSA8     19             13.0000000000
      8487       271  ARHM      H63           -20.6118838122       15.4943543065       72.0875448643  LPSA8     19             13.0000000000
      8488       272  ARHM      C1            -14.5732207735       15.3495792351       74.6981797177  LPSA8     20             14.0000000000
      8489       272  ARHM      H1            -13.7859953880       15.5219418111       73.8936196974  LPSA8     20             14.0000000000
      8490       272  ARHM      C5            -15.3867160857       13.5064053306       75.9960310464  LPSA8     20             14.0000000000
      8491       272  ARHM      H5            -16.3892962948       13.9685328302       75.8071112250  LPSA8     20             14.0000000000
      8492       272  ARHM      O5            -14.6037873371       13.9325046983       74.8741575474  LPSA8     20             14.0000000000
      8493       272  ARHM      C2            -13.9518656095       15.9768770181       75.9438944127  LPSA8     20             14.0000000000
      8494       272  ARHM      H2            -14.0122303546       17.1338270022       75.7904987900  LPSA8     20             14.0000000000
      8495       272  ARHM      O2            -12.6013170103       15.5371019942       76.2145535291  LPSA8     20             14.0000000000
      8496       272  ARHM      C3            -14.7749507522       15.5311326903       77.0746584307  LPSA8     20             14.0000000000
      8497       272  ARHM      H3            -15.8570210843       15.9109332623       76.9570890266  LPSA8     20             14.0000000000
      8498       272  ARHM      O3            -14.2456467194       16.2062650851       78.2431898216  LPSA8     20             14.0000000000
      8499       272  ARHM      C4            -14.8104764799       14.0461324846       77.2147849866  LPSA8     20             14.0000000000
      8500       272  ARHM      H4            -13.8360862880       13.6087400678       77.2882629629  LPSA8     20             14.0000000000
      8501       272  ARHM      O4            -15.5192605994       13.7072597049       78.4294019453  LPSA8     20             14.0000000000
      8502       272  ARHM      HO4           -15.8461128179       12.9047582119       78.0714846557  LPSA8     20             14.0000000000
      8503       272  ARHM      C6            -15.5312297602       12.0419699299       75.9818768401  LPSA8     20             14.0000000000
      8504       272  ARHM      H61           -14.6082812971       11.3913916561       76.0487105533  LPSA8     20             14.0000000000
      8505       272  ARHM      H62           -16.2414089387       11.7286742143       76.7492574554  LPSA8     20             14.0000000000
      8506       272  ARHM      H63           -15.9718141482       11.6222197572       75.0059134709  LPSA8     20             14.0000000000
      8507       273  BMANNA    C1            -11.7775670980       16.3405356182       75.4501725836  LPSA8     21             15.0000000000
      8508       273  BMANNA    H1            -12.3766861845       16.9371171078       74.6495731600  LPSA8     21             15.0000000000
      8509       273  BMANNA    C5            -10.2154859781       16.4290193452       73.6578092950  LPSA8     21             15.0000000000
      8510       273  BMANNA    H5            -10.8582490370       17.1956456370       73.0422409194  LPSA8     21             15.0000000000
      8511       273  BMANNA    O5            -10.9570948720       15.5240752942       74.5460975074  LPSA8     21             15.0000000000
      8512       273  BMANNA    C2            -10.9241143659       17.1985852225       76.3268603500  LPSA8     21             15.0000000000
      8513       273  BMANNA    H2            -11.6826010341       17.7686943047       76.8663433126  LPSA8     21             15.0000000000
      8514       273  BMANNA    N             -10.1265561278       16.4075645831       77.2602735953  LPSA8     21             15.0000000000
      8515       273  BMANNA    HN             -9.5889737451       15.7027200659       76.8630196157  LPSA8     21             15.0000000000
      8516       273  BMANNA    C              -9.8620260705       16.7504491874       78.6142451918  LPSA8     21             15.0000000000
      8517       273  BMANNA    O             -10.1530904762       17.8707826636       79.0340579138  LPSA8     21             15.0000000000
      8518       273  BMANNA    CT             -9.1539846488       15.7119082559       79.5125915666  LPSA8     21             15.0000000000
      8519       273  BMANNA    HT1            -8.0598130010       15.7585512198       79.3040814335  LPSA8     21             15.0000000000
      8520       273  BMANNA    HT2            -9.6476600274       14.7443112119       79.3224353366  LPSA8     21             15.0000000000
      8521       273  BMANNA    HT3            -9.3022973167       15.9744894214       80.6000991146  LPSA8     21             15.0000000000
      8522       273  BMANNA    C3            -10.1438140543       18.1064713566       75.4428482744  LPSA8     21             15.0000000000
      8523       273  BMANNA    H3            -10.9419209541       18.6925662890       75.0091666053  LPSA8     21             15.0000000000
      8524       273  BMANNA    O3             -9.3134701264       18.9933365846       76.1769203835  LPSA8     21             15.0000000000
      8525       273  BMANNA    HO3            -8.7694877820       18.4706682925       76.7354970047  LPSA8     21             15.0000000000
      8526       273  BMANNA    C4             -9.2970998919       17.3063814198       74.4866217523  LPSA8     21             15.0000000000
      8527       273  BMANNA    H4             -8.4282672757       16.6631992883       75.0002820064  LPSA8     21             15.0000000000
      8528       273  BMANNA    O4             -8.5646976175       18.1194806199       73.6152290754  LPSA8     21             15.0000000000
      8529       273  BMANNA    HO4            -7.5989271032       18.0241020203       73.7703874424  LPSA8     21             15.0000000000
      8530       273  BMANNA    C6             -9.5018762329       15.7092444292       72.6348027846  LPSA8     21             15.0000000000
      8531       273  BMANNA    H61            -9.0724264360       16.3653977822       71.8494922130  LPSA8     21             15.0000000000
      8532       273  BMANNA    H62            -8.5345623534       15.3215590064       73.0558617198  LPSA8     21             15.0000000000
      8533       273  BMANNA    O6            -10.1304244293       14.6007827523       72.0654385618  LPSA8     21             15.0000000000
      8534       273  BMANNA    HO6           -10.3977521778       14.0218849191       72.7784055652  LPSA8     21             15.0000000000
      8535       274  BGLCNA    C1            -15.1028294602       16.6713514548       79.2248726046  LPSA8     22             15.0000000000
      8536       274  BGLCNA    H1            -16.0906977046       16.1263630442       79.2753119810  LPSA8     22             15.0000000000
      8537       274  BGLCNA    C5            -16.3896578482       18.5002144878       80.1145289529  LPSA8     22             15.0000000000
      8538       274  BGLCNA    H5            -17.3091907377       17.7766245290       80.0727605020  LPSA8     22             15.0000000000
      8539       274  BGLCNA    O5            -15.4653840235       18.0135865027       79.0803056561  LPSA8     22             15.0000000000
      8540       274  BGLCNA    C2            -14.4268585736       16.4969314630       80.5602818744  LPSA8     22             15.0000000000
      8541       274  BGLCNA    H2            -13.5088197766       17.1780923445       80.4633107900  LPSA8     22             15.0000000000
      8542       274  BGLCNA    N             -14.0451340280       15.1079558087       80.7025670875  LPSA8     22             15.0000000000
      8543       274  BGLCNA    HN            -14.7215169935       14.4497700323       80.4501896382  LPSA8     22             15.0000000000
      8544       274  BGLCNA    C             -12.9662197507       14.6864426354       81.3295640408  LPSA8     22             15.0000000000
      8545       274  BGLCNA    O             -12.1652977987       15.4878430373       81.8448112003  LPSA8     22             15.0000000000
      8546       274  BGLCNA    CT            -12.7599518602       13.2176268311       81.4359073222  LPSA8     22             15.0000000000
      8547       274  BGLCNA    HT1           -12.1952755356       13.0059147734       80.5353412834  LPSA8     22             15.0000000000
      8548       274  BGLCNA    HT2           -13.7495216474       12.7316515371       81.2752873926  LPSA8     22             15.0000000000
      8549       274  BGLCNA    HT3           -12.3748439001       12.8609338161       82.3679651303  LPSA8     22             15.0000000000
      8550       274  BGLCNA    C3            -15.3099275070       16.9857149699       81.6855161512  LPSA8     22             15.0000000000
      8551       274  BGLCNA    H3            -16.2709285206       16.4141691398       81.6419517197  LPSA8     22             15.0000000000
      8552       274  BGLCNA    O3            -14.6275829296       16.6506125680       82.8729300216  LPSA8     22             15.0000000000
      8553       274  BGLCNA    C4            -15.6914091920       18.4537083564       81.4704242134  LPSA8     22             15.0000000000
      8554       274  BGLCNA    H4            -14.7758763571       18.9814075095       81.4144045074  LPSA8     22             15.0000000000
      8555       274  BGLCNA    O4            -16.4839418334       18.9755710810       82.5140850489  LPSA8     22             15.0000000000
      8556       274  BGLCNA    HO4           -16.1856733759       19.8798397857       82.7130071916  LPSA8     22             15.0000000000
      8557       274  BGLCNA    C6            -16.7765896586       19.9208998271       79.7284495560  LPSA8     22             15.0000000000
      8558       274  BGLCNA    H61           -17.1749185602       20.3551302358       80.6924177192  LPSA8     22             15.0000000000
      8559       274  BGLCNA    H62           -15.8840571963       20.5270812549       79.4648784538  LPSA8     22             15.0000000000
      8560       274  BGLCNA    O6            -17.8127787943       20.0112573988       78.8100863794  LPSA8     22             15.0000000000
      8561       274  BGLCNA    HO6           -17.5630333453       19.5380981753       78.0328486455  LPSA8     22             15.0000000000
      8562       275  AGAL      C1            -15.3238687302       16.5644418229       84.0628261254  LPSA8     23             16.0000000000
      8563       275  AGAL      H1            -15.5582020249       17.5697053975       84.5106287163  LPSA8     23             16.0000000000
      8564       275  AGAL      C5            -16.3577970290       14.4410284430       83.7583018441  LPSA8     23             16.0000000000
      8565       275  AGAL      H5            -15.6763972607       14.3168157238       82.8366412438  LPSA8     23             16.0000000000
      8566       275  AGAL      O5            -16.5430021043       15.8175172951       83.9976212264  LPSA8     23             16.0000000000
      8567       275  AGAL      C2            -14.4588437639       15.9416629607       85.1427633740  LPSA8     23             16.0000000000
      8568       275  AGAL      H2            -15.0819979211       15.9342802233       86.0076373284  LPSA8     23             16.0000000000
      8569       275  AGAL      O2            -13.3392544936       16.7162225977       85.5000844886  LPSA8     23             16.0000000000
      8570       275  AGAL      C3            -14.1945893082       14.4927477767       84.9194901020  LPSA8     23             16.0000000000
      8571       275  AGAL      H3            -13.7872980786       14.4240250126       83.8641570193  LPSA8     23             16.0000000000
      8572       275  AGAL      O3            -13.2210942694       13.9180310870       85.7108298168  LPSA8     23             16.0000000000
      8573       275  AGAL      HO3           -13.4352104777       14.2254796459       86.6206525111  LPSA8     23             16.0000000000
      8574       275  AGAL      C4            -15.5191630391       13.7906100991       84.8901212015  LPSA8     23             16.0000000000
      8575       275  AGAL      H4            -15.4261746325       12.7069810677       84.6506069022  LPSA8     23             16.0000000000
      8576       275  AGAL      O4            -16.2385393957       13.7550697300       86.1132943683  LPSA8     23             16.0000000000
      8577       275  AGAL      HO4           -17.0941761901       13.8078913952       85.8278371007  LPSA8     23             16.0000000000
      8578       275  AGAL      C6            -17.6438286689       13.7877370741       83.3278962909  LPSA8     23             16.0000000000
      8579       275  AGAL      H61           -18.1280626627       14.3932276614       82.6074235255  LPSA8     23             16.0000000000
      8580       275  AGAL      H62           -17.4795378707       12.8661233694       82.7620574208  LPSA8     23             16.0000000000
      8581       275  AGAL      O6            -18.5156710886       13.6721397062       84.3845202183  LPSA8     23             16.0000000000
      8582       275  AGAL      HO6           -19.3622426250       13.3069159638       84.1740981585  LPSA8     23             16.0000000000
      8583       276  ARHM      C1            -13.3910061857       17.8955106781       86.2818185944  LPSA8     24             17.0000000000
      8584       276  ARHM      H1            -14.4219460958       18.1799198318       86.3680542693  LPSA8     24             17.0000000000
      8585       276  ARHM      C5            -11.3000971166       18.8712754910       85.6157638072  LPSA8     24             17.0000000000
      8586       276  ARHM      H5            -11.1315266417       18.0083277813       85.0070975499  LPSA8     24             17.0000000000
      8587       276  ARHM      O5            -12.6802642084       19.1200645542       85.8657410059  LPSA8     24             17.0000000000
      8588       276  ARHM      C2            -12.8432155856       17.4364989538       87.5921581840  LPSA8     24             17.0000000000
      8589       276  ARHM      H2            -13.2594414807       16.4948295630       87.8984046741  LPSA8     24             17.0000000000
      8590       276  ARHM      O2            -12.9280254877       18.4545316109       88.6075763533  LPSA8     24             17.0000000000
      8591       276  ARHM      C3            -11.3363484679       17.1967044648       87.4133527752  LPSA8     24             17.0000000000
      8592       276  ARHM      H3            -11.2615584744       16.4020587815       86.6640279609  LPSA8     24             17.0000000000
      8593       276  ARHM      O3            -10.6836877135       16.5938456206       88.5620392964  LPSA8     24             17.0000000000
      8594       276  ARHM      HO3           -10.4308399107       17.3407604858       89.1463757531  LPSA8     24             17.0000000000
      8595       276  ARHM      C4            -10.6194052324       18.4541870411       86.9402325015  LPSA8     24             17.0000000000
      8596       276  ARHM      H4            -10.8514612928       19.2962452777       87.7071552895  LPSA8     24             17.0000000000
      8597       276  ARHM      O4             -9.2172835020       18.3316369502       86.8379508285  LPSA8     24             17.0000000000
      8598       276  ARHM      HO4            -8.7403380383       19.1246846453       87.0219124236  LPSA8     24             17.0000000000
      8599       276  ARHM      C6            -10.5668741454       20.0897812221       84.9175891319  LPSA8     24             17.0000000000
      8600       276  ARHM      H61            -9.6959673928       19.7105443423       84.3853494017  LPSA8     24             17.0000000000
      8601       276  ARHM      H62           -11.2728384718       20.4976975656       84.2649634992  LPSA8     24             17.0000000000
      8602       276  ARHM      H63           -10.3495005532       20.9088659999       85.6811466487  LPSA8     24             17.0000000000
      8603       277  ARHM      C1            -14.2390029079       18.5106228544       89.1588742089  LPSA8     25             18.0000000000
      8604       277  ARHM      H1            -14.9332172459       18.0931600571       88.4722246341  LPSA8     25             18.0000000000
      8605       277  ARHM      C5            -13.9690395474       20.6633792813       90.1670531641  LPSA8     25             18.0000000000
      8606       277  ARHM      H5            -12.9542318850       20.7613621805       89.8870230824  LPSA8     25             18.0000000000
      8607       277  ARHM      O5            -14.7264765129       19.8650280471       89.2315309535  LPSA8     25             18.0000000000
      8608       277  ARHM      C2            -14.2419055362       17.8253421983       90.4685713243  LPSA8     25             18.0000000000
      8609       277  ARHM      H2            -13.7304964817       16.8123005214       90.3413143991  LPSA8     25             18.0000000000
      8610       277  ARHM      O2            -15.6166565824       17.6534962369       90.9328696740  LPSA8     25             18.0000000000
      8611       277  ARHM      C3            -13.4540399807       18.7458858979       91.4562257518  LPSA8     25             18.0000000000
      8612       277  ARHM      H3            -12.4064214977       18.8089196400       91.0689171631  LPSA8     25             18.0000000000
      8613       277  ARHM      O3            -13.4399277714       18.0621891436       92.6920647463  LPSA8     25             18.0000000000
      8614       277  ARHM      C4            -13.9882056667       20.0667895549       91.5960769721  LPSA8     25             18.0000000000
      8615       277  ARHM      H4            -15.1191734806       20.0531143916       91.8876801091  LPSA8     25             18.0000000000
      8616       277  ARHM      O4            -13.2024261482       20.7304589963       92.5862492282  LPSA8     25             18.0000000000
      8617       277  ARHM      HO4           -13.8276619753       21.2864814726       93.0149361445  LPSA8     25             18.0000000000
      8618       277  ARHM      C6            -14.4562239810       22.1109650255       90.2083352735  LPSA8     25             18.0000000000
      8619       277  ARHM      H61           -14.5516460891       22.5490041285       89.1912344565  LPSA8     25             18.0000000000
      8620       277  ARHM      H62           -15.4745743595       22.2269135934       90.6686969550  LPSA8     25             18.0000000000
      8621       277  ARHM      H63           -13.7698011702       22.8081463670       90.8233913566  LPSA8     25             18.0000000000
      8622       278  BMANNA    C1            -16.3016808849       16.5906830483       90.3138108879  LPSA8     26             19.0000000000
      8623       278  BMANNA    H1            -15.5923448697       15.8507730765       89.8388342826  LPSA8     26             19.0000000000
      8624       278  BMANNA    C5            -17.8050184197       15.8126715185       88.6312665858  LPSA8     26             19.0000000000
      8625       278  BMANNA    H5            -17.0009494266       15.2329840159       88.1771240033  LPSA8     26             19.0000000000
      8626       278  BMANNA    O5            -17.2011570934       16.9641070400       89.2346891933  LPSA8     26             19.0000000000
      8627       278  BMANNA    C2            -17.0499401560       15.9033871716       91.3475147821  LPSA8     26             19.0000000000
      8628       278  BMANNA    H2            -16.2622579442       15.5887183187       92.1081287357  LPSA8     26             19.0000000000
      8629       278  BMANNA    N             -18.0291889312       16.8515513047       91.9238920796  LPSA8     26             19.0000000000
      8630       278  BMANNA    HN            -18.6372790765       17.2604834400       91.3050515894  LPSA8     26             19.0000000000
      8631       278  BMANNA    C             -18.1842037789       17.0900628025       93.1798471680  LPSA8     26             19.0000000000
      8632       278  BMANNA    O             -17.3566574564       16.6556115365       94.0003587425  LPSA8     26             19.0000000000
      8633       278  BMANNA    CT            -19.3917128156       17.8844559517       93.6758917343  LPSA8     26             19.0000000000
      8634       278  BMANNA    HT1           -19.7394710905       18.4512127523       92.8666282051  LPSA8     26             19.0000000000
      8635       278  BMANNA    HT2           -19.3911529780       18.4511361903       94.6620984389  LPSA8     26             19.0000000000
      8636       278  BMANNA    HT3           -20.1695042957       17.1307897924       93.8484898219  LPSA8     26             19.0000000000
      8637       278  BMANNA    C3            -17.6623029459       14.6529435180       90.7100883268  LPSA8     26             19.0000000000
      8638       278  BMANNA    H3            -16.8227173359       14.0140230629       90.3384445889  LPSA8     26             19.0000000000
      8639       278  BMANNA    O3            -18.3129327894       13.8921738213       91.7636866611  LPSA8     26             19.0000000000
      8640       278  BMANNA    HO3           -17.5744167379       13.5147407028       92.2265744207  LPSA8     26             19.0000000000
      8641       278  BMANNA    C4            -18.5284024416       15.0529882010       89.6481622736  LPSA8     26             19.0000000000
      8642       278  BMANNA    H4            -19.4049287267       15.7168990937       89.9013799111  LPSA8     26             19.0000000000
      8643       278  BMANNA    O4            -19.1520281998       13.9298910661       89.0416847738  LPSA8     26             19.0000000000
      8644       278  BMANNA    HO4           -19.9219528995       13.6979163728       89.5591157304  LPSA8     26             19.0000000000
      8645       278  BMANNA    C6            -18.5618699704       16.3745655265       87.3900617492  LPSA8     26             19.0000000000
      8646       278  BMANNA    H61           -18.0159312975       17.2111577221       86.9191763972  LPSA8     26             19.0000000000
      8647       278  BMANNA    H62           -18.7162750572       15.6328017069       86.6504270337  LPSA8     26             19.0000000000
      8648       278  BMANNA    O6            -19.8559003200       16.8581470607       87.7329108337  LPSA8     26             19.0000000000
      8649       278  BMANNA    HO6           -20.3385246678       16.1867752134       88.1688153196  LPSA8     26             19.0000000000
      8650       279  BGLCNA    C1            -12.3405453523       17.9063474164       93.4616184899  LPSA8     27             19.0000000000
      8651       279  BGLCNA    H1            -11.7266325418       18.8013296990       93.4392217979  LPSA8     27             19.0000000000
      8652       279  BGLCNA    C5            -10.3192976522       16.7651249867       93.9656603721  LPSA8     27             19.0000000000
      8653       279  BGLCNA    H5             -9.8260764042       17.7708249831       93.9564344452  LPSA8     27             19.0000000000
      8654       279  BGLCNA    O5            -11.4274413038       16.8650942857       93.0607755266  LPSA8     27             19.0000000000
      8655       279  BGLCNA    C2            -12.8600767873       17.6641530069       94.8806799918  LPSA8     27             19.0000000000
      8656       279  BGLCNA    H2            -13.3697844009       16.6851134699       94.8757458582  LPSA8     27             19.0000000000
      8657       279  BGLCNA    N             -13.8128603479       18.6941572038       95.2501113516  LPSA8     27             19.0000000000
      8658       279  BGLCNA    HN            -13.5027332591       19.6876180637       95.0827132934  LPSA8     27             19.0000000000
      8659       279  BGLCNA    C             -14.9328285902       18.2604647304       95.9523160909  LPSA8     27             19.0000000000
      8660       279  BGLCNA    O             -15.0631490181       17.1356415346       96.5238801166  LPSA8     27             19.0000000000
      8661       279  BGLCNA    CT            -16.0760460024       19.3193653646       96.0293745529  LPSA8     27             19.0000000000
      8662       279  BGLCNA    HT1           -15.8485127291       20.1958114771       95.3635606282  LPSA8     27             19.0000000000
      8663       279  BGLCNA    HT2           -16.3289747087       19.6358826914       97.0167906789  LPSA8     27             19.0000000000
      8664       279  BGLCNA    HT3           -17.0467067379       18.7744734005       95.7039804309  LPSA8     27             19.0000000000
      8665       279  BGLCNA    C3            -11.7065267132       17.5644709629       95.7540348103  LPSA8     27             19.0000000000
      8666       279  BGLCNA    H3            -11.0846205072       18.4939395001       95.7401190096  LPSA8     27             19.0000000000
      8667       279  BGLCNA    O3            -12.3133162487       17.3751248811       97.0775356047  LPSA8     27             19.0000000000
      8668       279  BGLCNA    C4            -10.7447975800       16.4304301242       95.3486864533  LPSA8     27             19.0000000000
      8669       279  BGLCNA    H4            -11.3047970099       15.4678381777       95.3090014479  LPSA8     27             19.0000000000
      8670       279  BGLCNA    O4             -9.6751857279       16.3331627135       96.2156872787  LPSA8     27             19.0000000000
      8671       279  BGLCNA    HO4            -9.1687951881       17.0949473070       96.0162444362  LPSA8     27             19.0000000000
      8672       279  BGLCNA    C6             -9.3110028001       15.7776576975       93.2852949846  LPSA8     27             19.0000000000
      8673       279  BGLCNA    H61            -8.3834442481       15.8825152279       93.8557506920  LPSA8     27             19.0000000000
      8674       279  BGLCNA    H62            -9.6320239411       14.7258918185       93.4725180191  LPSA8     27             19.0000000000
      8675       279  BGLCNA    O6             -9.1460812414       16.0695304293       91.9076175409  LPSA8     27             19.0000000000
      8676       279  BGLCNA    HO6            -8.5276797529       15.4077559897       91.5273290588  LPSA8     27             19.0000000000
      8677       280  AGAL      C1            -11.5108434675       17.5949014804       98.2622020222  LPSA8     28             20.0000000000
      8678       280  AGAL      H1            -10.7840405231       16.8289538894       98.3007149491  LPSA8     28             20.0000000000
      8679       280  AGAL      C5            -11.6280508840       20.0148671239       98.1710438288  LPSA8     28             20.0000000000
      8680       280  AGAL      H5            -12.5819358906       19.8952761978       97.4646141937  LPSA8     28             20.0000000000
      8681       280  AGAL      O5            -10.7688556122       18.8036185578       98.1147365872  LPSA8     28             20.0000000000
      8682       280  AGAL      C2            -12.2299385647       17.6810012468       99.6197190629  LPSA8     28             20.0000000000
      8683       280  AGAL      H2            -11.3947298948       17.8484697575      100.2965066153  LPSA8     28             20.0000000000
      8684       280  AGAL      O2            -12.8774803296       16.5042179468      100.0788731798  LPSA8     28             20.0000000000
      8685       280  AGAL      C3            -13.1073741019       18.8872327921       99.7396972452  LPSA8     28             20.0000000000
      8686       280  AGAL      H3            -13.8258114523       18.8731689731       98.8607737785  LPSA8     28             20.0000000000
      8687       280  AGAL      O3            -13.9431114660       19.0339032182      100.9043404272  LPSA8     28             20.0000000000
      8688       280  AGAL      HO3           -14.8573403617       19.0107226024      100.5606486229  LPSA8     28             20.0000000000
      8689       280  AGAL      C4            -12.2932099868       20.0971117450       99.5102226768  LPSA8     28             20.0000000000
      8690       280  AGAL      H4            -12.9513050855       20.9325075734       99.4798298294  LPSA8     28             20.0000000000
      8691       280  AGAL      O4            -11.3131651925       20.3083339994      100.4757933835  LPSA8     28             20.0000000000
      8692       280  AGAL      HO4           -11.6480991685       20.9694000610      101.0376442747  LPSA8     28             20.0000000000
      8693       280  AGAL      C6            -10.9708927875       21.2903259019       97.6362902244  LPSA8     28             20.0000000000
      8694       280  AGAL      H61           -10.7421171657       21.1568218130       96.5809275898  LPSA8     28             20.0000000000
      8695       280  AGAL      H62           -11.5589676703       22.2715299412       97.7651048223  LPSA8     28             20.0000000000
      8696       280  AGAL      O6             -9.7750427119       21.5396233397       98.3456070822  LPSA8     28             20.0000000000
      8697       280  AGAL      HO6            -9.0458207765       21.0674314543       97.9416813930  LPSA8     28             20.0000000000
      8698       281  ARHM      C1            -12.5717835253       16.3171183633      101.4808913342  LPSA8     29             21.0000000000
      8699       281  ARHM      H1            -12.3699777114       17.3112823692      101.9964955809  LPSA8     29             21.0000000000
      8700       281  ARHM      C5            -11.6298552019       14.1920820291      101.1486206043  LPSA8     29             21.0000000000
      8701       281  ARHM      H5            -11.9329226565       14.3443880450      100.0935446791  LPSA8     29             21.0000000000
      8702       281  ARHM      O5            -11.4718942869       15.4756020419      101.6833506475  LPSA8     29             21.0000000000
      8703       281  ARHM      C2            -13.7677183320       15.7939857510      102.1437305515  LPSA8     29             21.0000000000
      8704       281  ARHM      H2            -14.6376256783       16.3715381543      101.9067628034  LPSA8     29             21.0000000000
      8705       281  ARHM      O2            -13.6271068195       15.7658717866      103.5748524404  LPSA8     29             21.0000000000
      8706       281  ARHM      C3            -13.9974026007       14.4013796938      101.6289418068  LPSA8     29             21.0000000000
      8707       281  ARHM      H3            -14.2563342890       14.4573325108      100.4952263366  LPSA8     29             21.0000000000
      8708       281  ARHM      O3            -15.1806390036       13.9120520909      102.1995749427  LPSA8     29             21.0000000000
      8709       281  ARHM      HO3           -15.0911664479       13.0200695973      102.2092645043  LPSA8     29             21.0000000000
      8710       281  ARHM      C4            -12.8576146649       13.5013292004      101.8247918557  LPSA8     29             21.0000000000
      8711       281  ARHM      H4            -12.6387132759       13.3311714240      102.9338171738  LPSA8     29             21.0000000000
      8712       281  ARHM      O4            -12.9887701533       12.1438796207      101.3452167393  LPSA8     29             21.0000000000
      8713       281  ARHM      HO4           -13.4095370064       12.0692606334      100.4362974805  LPSA8     29             21.0000000000
      8714       281  ARHM      C6            -10.2526101124       13.5086836072      101.2162231226  LPSA8     29             21.0000000000
      8715       281  ARHM      H61            -9.5544929176       14.3052049314      100.7685423143  LPSA8     29             21.0000000000
      8716       281  ARHM      H62            -9.9774846477       13.3588005721      102.3013153741  LPSA8     29             21.0000000000
      8717       281  ARHM      H63           -10.2808176472       12.5986350390      100.6072571094  LPSA8     29             21.0000000000
      8718       282  ARHM      C1            -14.1333013657       16.7709585172      104.3945976075  LPSA8     30             22.0000000000
      8719       282  ARHM      H1            -15.2262618274       16.8608800524      104.2094096401  LPSA8     30             22.0000000000
      8720       282  ARHM      C5            -12.0515052171       18.0261887275      104.5143062533  LPSA8     30             22.0000000000
      8721       282  ARHM      H5            -11.6976745448       17.1344771855      103.8668162917  LPSA8     30             22.0000000000
      8722       282  ARHM      O5            -13.4735752572       18.0406191301      104.2052433351  LPSA8     30             22.0000000000
      8723       282  ARHM      C2            -13.9501896307       16.3697842076      105.8471183130  LPSA8     30             22.0000000000
      8724       282  ARHM      H2            -14.3966098106       15.4468734823      106.0289718167  LPSA8     30             22.0000000000
      8725       282  ARHM      O2            -14.4871308509       17.4170878547      106.5813641610  LPSA8     30             22.0000000000
      8726       282  ARHM      C3            -12.5397449325       16.3509188234      106.2079894766  LPSA8     30             22.0000000000
      8727       282  ARHM      H3            -12.0249963538       15.7288256870      105.5270001340  LPSA8     30             22.0000000000
      8728       282  ARHM      O3            -12.2816293581       15.8177594779      107.5373891676  LPSA8     30             22.0000000000
      8729       282  ARHM      C4            -11.8574899908       17.7022823775      105.9708288384  LPSA8     30             22.0000000000
      8730       282  ARHM      H4            -12.3111216352       18.5162520025      106.5400372406  LPSA8     30             22.0000000000
      8731       282  ARHM      O4            -10.5412514602       17.7695734869      106.2997755749  LPSA8     30             22.0000000000
      8732       282  ARHM      HO4            -9.8763032600       17.4133992477      105.6964454668  LPSA8     30             22.0000000000
      8733       282  ARHM      C6            -11.4155534204       19.3236097687      104.0930490251  LPSA8     30             22.0000000000
      8734       282  ARHM      H61           -10.3037687347       19.1972734157      104.2143179997  LPSA8     30             22.0000000000
      8735       282  ARHM      H62           -11.5241569986       19.4334436510      103.0019050467  LPSA8     30             22.0000000000
      8736       282  ARHM      H63           -11.8104364962       20.2319510413      104.6493652223  LPSA8     30             22.0000000000
      8737       283  BMANNA    C1            -15.8418294088       17.2838470009      106.9502319096  LPSA8     31             23.0000000000
      8738       283  BMANNA    H1            -16.0318431361       16.2063972016      107.1550799008  LPSA8     31             23.0000000000
      8739       283  BMANNA    C5            -18.1477874574       17.5096264789      106.2136717625  LPSA8     31             23.0000000000
      8740       283  BMANNA    H5            -18.2204356348       16.4646040494      106.5467054000  LPSA8     31             23.0000000000
      8741       283  BMANNA    O5            -16.7444308668       17.7093728980      105.8742289322  LPSA8     31             23.0000000000
      8742       283  BMANNA    C2            -16.1210540098       18.1108294273      108.0830629221  LPSA8     31             23.0000000000
      8743       283  BMANNA    H2            -15.5080385631       17.6905513249      108.9031915743  LPSA8     31             23.0000000000
      8744       283  BMANNA    N             -15.6639263481       19.4325477870      107.8252935315  LPSA8     31             23.0000000000
      8745       283  BMANNA    HN            -15.6082049142       19.7267749257      106.8111160773  LPSA8     31             23.0000000000
      8746       283  BMANNA    C             -15.2663027678       20.2697469894      108.7868858964  LPSA8     31             23.0000000000
      8747       283  BMANNA    O             -15.1967386121       19.9273409196      109.9536662434  LPSA8     31             23.0000000000
      8748       283  BMANNA    CT            -14.8853853752       21.6842852815      108.3237946568  LPSA8     31             23.0000000000
      8749       283  BMANNA    HT1           -15.5740691981       21.9801239474      107.5739831696  LPSA8     31             23.0000000000
      8750       283  BMANNA    HT2           -13.8623204392       21.6413096531      107.9347099034  LPSA8     31             23.0000000000
      8751       283  BMANNA    HT3           -14.8154988341       22.3774352158      109.1768357935  LPSA8     31             23.0000000000
      8752       283  BMANNA    C3            -17.5477784709       17.9341863216      108.4884560283  LPSA8     31             23.0000000000
      8753       283  BMANNA    H3            -17.8020235674       16.8286851290      108.6988550870  LPSA8     31             23.0000000000
      8754       283  BMANNA    O3            -17.8259669503       18.5619338763      109.7404994872  LPSA8     31             23.0000000000
      8755       283  BMANNA    HO3           -16.9290670337       18.6305285810      110.0111610137  LPSA8     31             23.0000000000
      8756       283  BMANNA    C4            -18.4520996959       18.4013867894      107.4199857710  LPSA8     31             23.0000000000
      8757       283  BMANNA    H4            -18.3163780978       19.5268208683      107.0572414185  LPSA8     31             23.0000000000
      8758       283  BMANNA    O4            -19.8008706410       18.3001023395      107.8525671122  LPSA8     31             23.0000000000
      8759       283  BMANNA    HO4           -20.0165177569       17.4035368570      108.1943429300  LPSA8     31             23.0000000000
      8760       283  BMANNA    C6            -19.1042228616       17.8225785172      105.0512686782  LPSA8     31             23.0000000000
      8761       283  BMANNA    H61           -20.1597947906       17.4289924533      105.3397811046  LPSA8     31             23.0000000000
      8762       283  BMANNA    H62           -19.2106234054       18.8882302686      104.8698551944  LPSA8     31             23.0000000000
      8763       283  BMANNA    O6            -18.6808402634       17.1967414249      103.8241467834  LPSA8     31             23.0000000000
      8764       283  BMANNA    HO6           -18.7904103077       16.2036480985      103.8134147631  LPSA8     31             23.0000000000
      8765       284  BGLCNA    C1            -12.4539127559       16.6825872735      108.6103969990  LPSA8     32             23.0000000000
      8766       284  BGLCNA    H1            -13.3136587464       17.4042216120      108.4325564695  LPSA8     32             23.0000000000
      8767       284  BGLCNA    C5            -11.5236027712       18.4833158836      109.9277617404  LPSA8     32             23.0000000000
      8768       284  BGLCNA    H5            -12.4055874738       19.1094244030      109.5374749077  LPSA8     32             23.0000000000
      8769       284  BGLCNA    O5            -11.3091718585       17.4694989695      108.9423333575  LPSA8     32             23.0000000000
      8770       284  BGLCNA    C2            -12.8366852640       15.9470478423      109.8194522937  LPSA8     32             23.0000000000
      8771       284  BGLCNA    H2            -11.9515612895       15.4294422668      110.1044894257  LPSA8     32             23.0000000000
      8772       284  BGLCNA    N             -13.9016396103       15.0293462438      109.5956973249  LPSA8     32             23.0000000000
      8773       284  BGLCNA    HN            -14.5221075661       15.4108016917      108.8809076996  LPSA8     32             23.0000000000
      8774       284  BGLCNA    C             -14.0854366030       13.7827658755      110.0864625708  LPSA8     32             23.0000000000
      8775       284  BGLCNA    O             -13.3363521683       13.2905784270      110.9304085025  LPSA8     32             23.0000000000
      8776       284  BGLCNA    CT            -15.3191369163       13.0005044230      109.5841031968  LPSA8     32             23.0000000000
      8777       284  BGLCNA    HT1           -15.5749809166       13.6279607461      108.6281101354  LPSA8     32             23.0000000000
      8778       284  BGLCNA    HT2           -16.1892517103       13.0401974733      110.1898124037  LPSA8     32             23.0000000000
      8779       284  BGLCNA    HT3           -15.0794360265       11.9436237180      109.3122359934  LPSA8     32             23.0000000000
      8780       284  BGLCNA    C3            -13.1713535031       16.9395972763      110.8930231790  LPSA8     32             23.0000000000
      8781       284  BGLCNA    H3            -13.8754077307       17.5912819273      110.4606187373  LPSA8     32             23.0000000000
      8782       284  BGLCNA    O3            -13.7717141663       16.3658502288      112.0657798240  LPSA8     32             23.0000000000
      8783       284  BGLCNA    C4            -11.9233683353       17.7322435322      111.1707572500  LPSA8     32             23.0000000000
      8784       284  BGLCNA    H4            -11.1444760790       17.0067868562      111.5318289610  LPSA8     32             23.0000000000
      8785       284  BGLCNA    O4            -12.1180330073       18.6583136428      112.2070236435  LPSA8     32             23.0000000000
      8786       284  BGLCNA    HO4           -11.8996771580       18.2884785765      113.0745323218  LPSA8     32             23.0000000000
      8787       284  BGLCNA    C6            -10.3045874137       19.3768800871      110.0229508171  LPSA8     32             23.0000000000
      8788       284  BGLCNA    H61           -10.4940676885       20.2748595853      110.7194343748  LPSA8     32             23.0000000000
      8789       284  BGLCNA    H62            -9.4565795906       18.8027154103      110.5717638480  LPSA8     32             23.0000000000
      8790       284  BGLCNA    O6             -9.9314087169       19.9149123002      108.7709294272  LPSA8     32             23.0000000000
      8791       284  BGLCNA    HO6           -10.7414379867       20.1151413195      108.2360311317  LPSA8     32             23.0000000000
      8792       285  AGAL      C1            -14.8035715582       17.1802174129      112.6842874521  LPSA8     33             24.0000000000
      8793       285  AGAL      H1            -14.4698109879       18.2171789358      112.5979959475  LPSA8     33             24.0000000000
      8794       285  AGAL      C5            -16.5697527897       15.6659262507      112.2149219831  LPSA8     33             24.0000000000
      8795       285  AGAL      H5            -15.7261755914       15.0367767344      111.8792915250  LPSA8     33             24.0000000000
      8796       285  AGAL      O5            -16.1193457184       16.9971996505      112.0726784748  LPSA8     33             24.0000000000
      8797       285  AGAL      C2            -14.8933779201       16.7550924067      114.1482787662  LPSA8     33             24.0000000000
      8798       285  AGAL      H2            -15.7910125677       17.3494002260      114.5751854976  LPSA8     33             24.0000000000
      8799       285  AGAL      O2            -13.7750706768       17.2667607655      114.8486222260  LPSA8     33             24.0000000000
      8800       285  AGAL      C3            -15.4029706431       15.3427970068      114.2945545625  LPSA8     33             24.0000000000
      8801       285  AGAL      H3            -14.7172896152       14.6144859099      113.7405815065  LPSA8     33             24.0000000000
      8802       285  AGAL      O3            -15.3320529090       14.8471542718      115.5672660328  LPSA8     33             24.0000000000
      8803       285  AGAL      HO3           -15.7262939178       15.3610989894      116.2400186851  LPSA8     33             24.0000000000
      8804       285  AGAL      C4            -16.7720955779       15.1997901865      113.6708488317  LPSA8     33             24.0000000000
      8805       285  AGAL      H4            -17.1038469483       14.1544242823      113.6729875792  LPSA8     33             24.0000000000
      8806       285  AGAL      O4            -17.8679798380       15.9498551375      114.2435538900  LPSA8     33             24.0000000000
      8807       285  AGAL      HO4           -17.5889789496       16.5681849997      114.9085525172  LPSA8     33             24.0000000000
      8808       285  AGAL      C6            -17.7310244125       15.3591902807      111.2992528405  LPSA8     33             24.0000000000
      8809       285  AGAL      H61           -17.3226336520       15.5026303916      110.2783408757  LPSA8     33             24.0000000000
      8810       285  AGAL      H62           -18.1458562028       14.3345498293      111.3458027743  LPSA8     33             24.0000000000
      8811       285  AGAL      O6            -18.8783226990       16.1412207057      111.4129476537  LPSA8     33             24.0000000000
      8812       285  AGAL      HO6           -18.8601829859       16.9525080421      110.8444757795  LPSA8     33             24.0000000000
      8813       286  ARHM      C1            -14.0826623225       17.9662501710      116.0109133884  LPSA8     34             25.0000000000
      8814       286  ARHM      H1            -14.8203482402       17.4380894661      116.6389743656  LPSA8     34             25.0000000000
      8815       286  ARHM      C5            -13.8405693758       20.1820360864      115.0727799907  LPSA8     34             25.0000000000
      8816       286  ARHM      H5            -13.7119841665       19.7185708107      114.0209633333  LPSA8     34             25.0000000000
      8817       286  ARHM      O5            -14.6659136525       19.2800245381      115.8926868953  LPSA8     34             25.0000000000
      8818       286  ARHM      C2            -12.7816381662       18.0389199498      116.7601555753  LPSA8     34             25.0000000000
      8819       286  ARHM      H2            -12.2241481870       17.0694159889      116.8710959342  LPSA8     34             25.0000000000
      8820       286  ARHM      O2            -12.8906271008       18.5715273726      118.1592972339  LPSA8     34             25.0000000000
      8821       286  ARHM      C3            -11.8472287602       18.9679771382      115.9988665506  LPSA8     34             25.0000000000
      8822       286  ARHM      H3            -11.6773272390       18.6092516904      114.9724172480  LPSA8     34             25.0000000000
      8823       286  ARHM      O3            -10.5390949204       19.1671105882      116.5878695042  LPSA8     34             25.0000000000
      8824       286  ARHM      HO3            -9.8288208780       19.2168037554      115.9559434517  LPSA8     34             25.0000000000
      8825       286  ARHM      C4            -12.4613853389       20.3803510020      115.7987835878  LPSA8     34             25.0000000000
      8826       286  ARHM      H4            -12.7829774279       20.8365984135      116.7495315617  LPSA8     34             25.0000000000
      8827       286  ARHM      O4            -11.6196800250       21.2505772758      115.1362621200  LPSA8     34             25.0000000000
      8828       286  ARHM      HO4           -10.9215514333       21.5838507149      115.6953140327  LPSA8     34             25.0000000000
      8829       286  ARHM      C6            -14.5473894785       21.5655951896      114.8413279703  LPSA8     34             25.0000000000
      8830       286  ARHM      H61           -14.7123439614       22.1579458362      115.7172490283  LPSA8     34             25.0000000000
      8831       286  ARHM      H62           -13.7941082281       22.2414665882      114.3996926230  LPSA8     34             25.0000000000
      8832       286  ARHM      H63           -15.4175162562       21.5700259246      114.1590834060  LPSA8     34             25.0000000000
      8833       287  ARHM      C1            -13.7472958318       17.8645454084      119.0795908573  LPSA8     35             26.0000000000
      8834       287  ARHM      H1            -13.6299303395       16.7193808720      118.8787348947  LPSA8     35             26.0000000000
      8835       287  ARHM      C5            -15.3911668143       19.6458953774      119.2408916176  LPSA8     35             26.0000000000
      8836       287  ARHM      H5            -14.7687109181       20.3213288084      118.5254732223  LPSA8     35             26.0000000000
      8837       287  ARHM      O5            -15.1876250919       18.2146983068      118.9290334222  LPSA8     35             26.0000000000
      8838       287  ARHM      C2            -13.3064116148       18.1388960213      120.5365485050  LPSA8     35             26.0000000000
      8839       287  ARHM      H2            -12.2559629753       17.7707030015      120.7134209997  LPSA8     35             26.0000000000
      8840       287  ARHM      O2            -14.1097882340       17.4391135728      121.4126203716  LPSA8     35             26.0000000000
      8841       287  ARHM      C3            -13.4518600051       19.6402166008      120.8720061906  LPSA8     35             26.0000000000
      8842       287  ARHM      H3            -12.7771463858       20.1863430805      120.1344793452  LPSA8     35             26.0000000000
      8843       287  ARHM      O3            -12.9385487173       19.9368084603      122.1540075829  LPSA8     35             26.0000000000
      8844       287  ARHM      HO3           -13.1003383096       19.1855545996      122.7288731339  LPSA8     35             26.0000000000
      8845       287  ARHM      C4            -14.8989229326       20.0019619774      120.6788917534  LPSA8     35             26.0000000000
      8846       287  ARHM      H4            -15.6071403988       19.4197709156      121.3307119103  LPSA8     35             26.0000000000
      8847       287  ARHM      O4            -15.0079410537       21.4126237271      120.9693790153  LPSA8     35             26.0000000000
      8848       287  ARHM      HO4           -14.2988870452       21.9599798898      120.5581709812  LPSA8     35             26.0000000000
      8849       287  ARHM      C6            -16.8562158743       20.0567981647      118.8642347863  LPSA8     35             26.0000000000
      8850       287  ARHM      H61           -17.0243508068       19.9856404147      117.7433556958  LPSA8     35             26.0000000000
      8851       287  ARHM      H62           -17.4401974793       19.3377991098      119.4176110492  LPSA8     35             26.0000000000
      8852       287  ARHM      H63           -16.9453265853       21.1634403006      119.0633705917  LPSA8     35             26.0000000000
      8853       288  BMANNA    C1            -13.9369860077       16.0544542964      121.4471464502  LPSA8     36             27.0000000000
      8854       288  BMANNA    H1            -12.9182855744       15.7625106322      121.0972061898  LPSA8     36             27.0000000000
      8855       288  BMANNA    C5            -14.4417781716       13.7993919284      120.7299884793  LPSA8     36             27.0000000000
      8856       288  BMANNA    H5            -13.3901293162       13.7164711966      120.4610684421  LPSA8     36             27.0000000000
      8857       288  BMANNA    O5            -14.8260783528       15.2097913984      120.6641532654  LPSA8     36             27.0000000000
      8858       288  BMANNA    C2            -14.0495973951       15.5931937279      122.8920138725  LPSA8     36             27.0000000000
      8859       288  BMANNA    H2            -13.3066025284       16.1720436018      123.4719477421  LPSA8     36             27.0000000000
      8860       288  BMANNA    N             -15.3699430012       15.9031555029      123.4395449790  LPSA8     36             27.0000000000
      8861       288  BMANNA    HN            -16.1858353528       15.7464921685      122.8746519580  LPSA8     36             27.0000000000
      8862       288  BMANNA    C             -15.5415166979       16.1061193384      124.7737151700  LPSA8     36             27.0000000000
      8863       288  BMANNA    O             -14.6474764799       16.2149687800      125.6190347561  LPSA8     36             27.0000000000
      8864       288  BMANNA    CT            -16.9259047918       16.1644348363      125.3570716528  LPSA8     36             27.0000000000
      8865       288  BMANNA    HT1           -17.5721976716       15.4210411890      124.8802869227  LPSA8     36             27.0000000000
      8866       288  BMANNA    HT2           -17.4511529209       17.1438304017      125.1731404614  LPSA8     36             27.0000000000
      8867       288  BMANNA    HT3           -16.9946734505       16.0691933527      126.4547536948  LPSA8     36             27.0000000000
      8868       288  BMANNA    C3            -13.7072806255       14.1278511048      122.9763638711  LPSA8     36             27.0000000000
      8869       288  BMANNA    H3            -12.6771149774       13.9538348477      122.6403873786  LPSA8     36             27.0000000000
      8870       288  BMANNA    O3            -13.7408280735       13.6359211323      124.3414054450  LPSA8     36             27.0000000000
      8871       288  BMANNA    HO3           -12.9211492025       13.3323894961      124.7171830083  LPSA8     36             27.0000000000
      8872       288  BMANNA    C4            -14.5920044373       13.3069646306      122.1146940524  LPSA8     36             27.0000000000
      8873       288  BMANNA    H4            -15.6117781874       13.3489067767      122.4263894750  LPSA8     36             27.0000000000
      8874       288  BMANNA    O4            -14.2778450330       11.9196174645      122.2172873890  LPSA8     36             27.0000000000
      8875       288  BMANNA    HO4           -14.3838587226       11.8417148429      123.1985163392  LPSA8     36             27.0000000000
      8876       288  BMANNA    C6            -15.2335875575       13.0416250826      119.7412642597  LPSA8     36             27.0000000000
      8877       288  BMANNA    H61           -15.0330190343       13.3860494023      118.6946701192  LPSA8     36             27.0000000000
      8878       288  BMANNA    H62           -14.7769519359       12.0477015090      119.7045442506  LPSA8     36             27.0000000000
      8879       288  BMANNA    O6            -16.6632105931       12.9837038040      120.0914698020  LPSA8     36             27.0000000000
      8880       288  BMANNA    HO6           -16.7628654293       12.2024539438      120.6476247167  LPSA8     36             27.0000000000
      8881       289  ECLIPA    HB6S          -18.5731065835      -12.0251028062       20.4612168218  LPSA9     1               0.0000000000
      8882       289  ECLIPA    OB6           -17.4884565666      -13.1722731068       21.7140249152  LPSA9     1               0.0000000000
      8883       289  ECLIPA    CB6           -17.5475912991      -12.1008531298       20.7042159014  LPSA9     1               0.0000000000
      8884       289  ECLIPA    HB6R          -17.0529486112      -11.2132641300       21.0541931349  LPSA9     1               0.0000000000
      8885       289  ECLIPA    CB5           -16.7193248439      -12.4569116050       19.3988764877  LPSA9     1               0.0000000000
      8886       289  ECLIPA    OB5           -17.2591428646      -13.7717707882       18.9716901872  LPSA9     1               0.0000000000
      8887       289  ECLIPA    HB5           -15.6917590326      -12.6136759369       19.7771798410  LPSA9     1               0.0000000000
      8888       289  ECLIPA    CB1           -16.5830551993      -14.2141380975       17.7717324898  LPSA9     1               0.0000000000
      8889       289  ECLIPA    HB1           -15.4853692201      -14.3384004152       17.9003641080  LPSA9     1               0.0000000000
      8890       289  ECLIPA    OA6           -17.1273182341      -15.4182496413       17.3217246577  LPSA9     1               0.0000000000
      8891       289  ECLIPA    CA6           -18.5184086112      -15.7094270556       17.5745106853  LPSA9     1               0.0000000000
      8892       289  ECLIPA    HA6R          -19.0531467402      -14.7493208747       17.7226451425  LPSA9     1               0.0000000000
      8893       289  ECLIPA    HA6S          -18.5636172377      -16.4615165821       18.4598965841  LPSA9     1               0.0000000000
      8894       289  ECLIPA    CB4           -16.8478421103      -11.3631579549       18.3206521937  LPSA9     1               0.0000000000
      8895       289  ECLIPA    HB4           -17.9041866359      -11.2233514685       18.0085584641  LPSA9     1               0.0000000000
      8896       289  ECLIPA    OB4           -16.1224925712      -10.2574613325       18.9017319965  LPSA9     1               0.0000000000
      8897       289  ECLIPA    PB            -16.9176165687       -8.9226413212       19.3234616795  LPSA9     1               0.0000000000
      8898       289  ECLIPA    OPB4          -16.2037274670       -8.3411877243       20.5579515876  LPSA9     1               0.0000000000
      8899       289  ECLIPA    OPB3          -18.3120095353       -9.5040539921       19.6614545037  LPSA9     1               0.0000000000
      8900       289  ECLIPA    OPB2          -16.9797137278       -8.0191122061       18.0829495795  LPSA9     1               0.0000000000
      8901       289  ECLIPA    CB3           -16.1296435517      -11.8954032249       17.0955893951  LPSA9     1               0.0000000000
      8902       289  ECLIPA    OB3           -16.2061847191      -11.0717914868       15.9186528231  LPSA9     1               0.0000000000
      8903       289  ECLIPA    HB3           -15.0749796080      -12.2359887310       17.3284540628  LPSA9     1               0.0000000000
      8904       289  ECLIPA    C71           -15.2589267033      -10.2239710316       15.6929469039  LPSA9     1               0.0000000000
      8905       289  ECLIPA    O71           -14.2168828326      -10.1379796991       16.3832172580  LPSA9     1               0.0000000000
      8906       289  ECLIPA    C72           -15.5781129859       -9.5070372101       14.3548430386  LPSA9     1               0.0000000000
      8907       289  ECLIPA    H72R          -15.6777311929      -10.2626570790       13.5774555414  LPSA9     1               0.0000000000
      8908       289  ECLIPA    H72S          -14.7532020532       -8.7029372880       14.1464415926  LPSA9     1               0.0000000000
      8909       289  ECLIPA    CB2           -16.7780991522      -13.2283364338       16.6720734084  LPSA9     1               0.0000000000
      8910       289  ECLIPA    HB2           -17.9283205903      -12.9960562842       16.5298168153  LPSA9     1               0.0000000000
      8911       289  ECLIPA    NB2           -16.1647828715      -13.8074155524       15.4577284722  LPSA9     1               0.0000000000
      8912       289  ECLIPA    HNB2          -15.3469714432      -14.3641716363       15.5965609326  LPSA9     1               0.0000000000
      8913       289  ECLIPA    CA4           -18.1930470168      -17.4366486834       15.7929312798  LPSA9     1               0.0000000000
      8914       289  ECLIPA    HA4           -17.2196549053      -16.9729716972       15.4903430209  LPSA9     1               0.0000000000
      8915       289  ECLIPA    OA4           -17.9750638789      -18.3767383619       16.8012065728  LPSA9     1               0.0000000000
      8916       289  ECLIPA    HOA4          -17.7332412478      -17.9894787114       17.5928838569  LPSA9     1               0.0000000000
      8917       289  ECLIPA    CA5           -19.0703574697      -16.3975085865       16.3547806008  LPSA9     1               0.0000000000
      8918       289  ECLIPA    HA5           -20.1752207617      -16.6946000782       16.5880746347  LPSA9     1               0.0000000000
      8919       289  ECLIPA    OA5           -19.2050876933      -15.3644263774       15.3689671688  LPSA9     1               0.0000000000
      8920       289  ECLIPA    CA1           -19.7544818990      -15.8878850018       14.1076640156  LPSA9     1               0.0000000000
      8921       289  ECLIPA    HA1           -19.4675125381      -15.0518795405       13.4118188108  LPSA9     1               0.0000000000
      8922       289  ECLIPA    OA1           -21.1613317689      -16.0287103994       14.1359876212  LPSA9     1               0.0000000000
      8923       289  ECLIPA    OPA2          -22.6273646722      -15.4888174183       15.9734101064  LPSA9     1               0.0000000000
      8924       289  ECLIPA    OPA3          -21.3750812990      -13.5849998952       14.8300177673  LPSA9     1               0.0000000000
      8925       289  ECLIPA    OPA4          -23.2107558392      -14.7157812346       13.6615320840  LPSA9     1               0.0000000000
      8926       289  ECLIPA    PA            -22.1030782245      -14.8881785481       14.6765383084  LPSA9     1               0.0000000000
      8927       289  ECLIPA    CA3           -18.7372465998      -18.0728938936       14.5219348229  LPSA9     1               0.0000000000
      8928       289  ECLIPA    HA3           -19.7285891744      -18.6351090203       14.7377032538  LPSA9     1               0.0000000000
      8929       289  ECLIPA    OA3           -17.8355008676      -19.1303768691       14.2498111976  LPSA9     1               0.0000000000
      8930       289  ECLIPA    C31           -16.7330979379      -18.8081771843       13.5006246295  LPSA9     1               0.0000000000
      8931       289  ECLIPA    O31           -16.6999253962      -18.6449533734       12.2941239937  LPSA9     1               0.0000000000
      8932       289  ECLIPA    C32           -15.4699805439      -19.2057603059       14.2780289507  LPSA9     1               0.0000000000
      8933       289  ECLIPA    H32R          -14.9542140848      -20.0064152457       13.7149713840  LPSA9     1               0.0000000000
      8934       289  ECLIPA    H32S          -15.7397003293      -19.5509542950       15.2729523512  LPSA9     1               0.0000000000
      8935       289  ECLIPA    CA2           -18.8855533649      -16.9634555838       13.4984733916  LPSA9     1               0.0000000000
      8936       289  ECLIPA    HA2           -17.9093323204      -16.4819802466       13.3982259915  LPSA9     1               0.0000000000
      8937       289  ECLIPA    NA2           -19.4314917211      -17.4220998794       12.2035087571  LPSA9     1               0.0000000000
      8938       289  ECLIPA    HNA2          -19.4941593049      -18.3837409042       12.0865030408  LPSA9     1               0.0000000000
      8939       289  ECLIPA    C73           -16.8650348257       -8.7236071601       14.3319064372  LPSA9     1               0.0000000000
      8940       289  ECLIPA    H73R          -17.0112110752       -8.1240674505       15.2227416964  LPSA9     1               0.0000000000
      8941       289  ECLIPA    O73           -17.9368094931       -9.6968109677       14.2644256719  LPSA9     1               0.0000000000
      8942       289  ECLIPA    C81           -19.1343506390       -9.5504905343       14.8555734565  LPSA9     1               0.0000000000
      8943       289  ECLIPA    O81           -19.3013349425       -8.5882415344       15.6690894779  LPSA9     1               0.0000000000
      8944       289  ECLIPA    C82           -20.1534061873      -10.5922638461       14.3536111794  LPSA9     1               0.0000000000
      8945       289  ECLIPA    H82R          -21.1112184292      -10.4872323614       14.8531840528  LPSA9     1               0.0000000000
      8946       289  ECLIPA    H82S          -19.7957461008      -11.6323631911       14.5323473422  LPSA9     1               0.0000000000
      8947       289  ECLIPA    C83           -20.3518977109      -10.4414175709       12.8301722806  LPSA9     1               0.0000000000
      8948       289  ECLIPA    H83R          -19.5156353023      -10.9698335930       12.2351841548  LPSA9     1               0.0000000000
      8949       289  ECLIPA    H83S          -20.1931786420       -9.3883731974       12.5911296392  LPSA9     1               0.0000000000
      8950       289  ECLIPA    C84           -21.6564054568      -11.0752037724       12.3050927261  LPSA9     1               0.0000000000
      8951       289  ECLIPA    H84R          -22.4922263486      -10.4188274296       12.5767117503  LPSA9     1               0.0000000000
      8952       289  ECLIPA    H84S          -21.6610999123      -12.0532234407       12.7369555497  LPSA9     1               0.0000000000
      8953       289  ECLIPA    C85           -21.6128674267      -11.2524945882       10.7695484051  LPSA9     1               0.0000000000
      8954       289  ECLIPA    H85R          -20.6105968603      -11.6427183967       10.5503608829  LPSA9     1               0.0000000000
      8955       289  ECLIPA    H85S          -21.6678716251      -10.2545707708       10.2367999955  LPSA9     1               0.0000000000
      8956       289  ECLIPA    C86           -22.6364583751      -12.3247737708       10.3034592726  LPSA9     1               0.0000000000
      8957       289  ECLIPA    H86R          -23.6430367275      -11.8875149275        9.9932223571  LPSA9     1               0.0000000000
      8958       289  ECLIPA    H86S          -22.8510534948      -13.0341362663       11.0807540114  LPSA9     1               0.0000000000
      8959       289  ECLIPA    C87           -22.0670486859      -13.2331991347        9.1601018854  LPSA9     1               0.0000000000
      8960       289  ECLIPA    H87R          -22.8138485538      -13.9359475703        8.8049419625  LPSA9     1               0.0000000000
      8961       289  ECLIPA    H87S          -21.2250208616      -13.8723571180        9.5406723883  LPSA9     1               0.0000000000
      8962       289  ECLIPA    C88           -21.4806117011      -12.4210843927        8.0318999685  LPSA9     1               0.0000000000
      8963       289  ECLIPA    H88R          -20.4801843695      -11.9777431453        8.3479828359  LPSA9     1               0.0000000000
      8964       289  ECLIPA    H88S          -22.0591115646      -11.4576461093        7.9254521495  LPSA9     1               0.0000000000
      8965       289  ECLIPA    C89           -21.2300580893      -13.2187511356        6.7101000712  LPSA9     1               0.0000000000
      8966       289  ECLIPA    H89R          -21.2250347922      -14.3178312668        6.8746682686  LPSA9     1               0.0000000000
      8967       289  ECLIPA    H89S          -20.2924432309      -13.0100374693        6.2317001698  LPSA9     1               0.0000000000
      8968       289  ECLIPA    C810          -22.3290025869      -12.8312623140        5.7047246593  LPSA9     1               0.0000000000
      8969       289  ECLIPA    H810R         -22.5509592417      -11.7926488436        6.0108430704  LPSA9     1               0.0000000000
      8970       289  ECLIPA    H810S         -23.1843395613      -13.4614079109        5.8554647029  LPSA9     1               0.0000000000
      8971       289  ECLIPA    C811          -21.9400698495      -12.9054013338        4.2179945741  LPSA9     1               0.0000000000
      8972       289  ECLIPA    H811R         -22.7186517362      -12.9582753598        3.5081125689  LPSA9     1               0.0000000000
      8973       289  ECLIPA    H811S         -21.2147913004      -13.8013850778        4.1819101877  LPSA9     1               0.0000000000
      8974       289  ECLIPA    C812          -20.9774999722      -11.8066845517        3.7413673409  LPSA9     1               0.0000000000
      8975       289  ECLIPA    H812R         -20.6519056059      -12.0904471360        2.6403157337  LPSA9     1               0.0000000000
      8976       289  ECLIPA    H812S         -20.1499710906      -11.6203177056        4.4144737196  LPSA9     1               0.0000000000
      8977       289  ECLIPA    C813          -21.6001505185      -10.3997687863        3.6785234959  LPSA9     1               0.0000000000
      8978       289  ECLIPA    H813R         -22.4343785297      -10.4576817225        2.9398073555  LPSA9     1               0.0000000000
      8979       289  ECLIPA    H813S         -22.0575338268      -10.0068230844        4.6616087352  LPSA9     1               0.0000000000
      8980       289  ECLIPA    C814          -20.6595464851       -9.3426845033        3.1377409857  LPSA9     1               0.0000000000
      8981       289  ECLIPA    H814R         -20.0606207549       -9.6267192838        2.1719074593  LPSA9     1               0.0000000000
      8982       289  ECLIPA    H814S         -19.9323709542       -9.0759449234        3.9166242729  LPSA9     1               0.0000000000
      8983       289  ECLIPA    H814T         -21.2130605712       -8.4067480761        2.8964685373  LPSA9     1               0.0000000000
      8984       289  ECLIPA    C74           -17.1361916440       -7.7858383937       13.1792855021  LPSA9     1               0.0000000000
      8985       289  ECLIPA    H74R          -16.4651213896       -6.9490839724       12.9935747315  LPSA9     1               0.0000000000
      8986       289  ECLIPA    H74S          -18.1945511931       -7.3292094254       13.3086690609  LPSA9     1               0.0000000000
      8987       289  ECLIPA    C75           -17.2942632706       -8.5873200632       11.8151371119  LPSA9     1               0.0000000000
      8988       289  ECLIPA    H75R          -18.1017919085       -8.0356403699       11.2107603889  LPSA9     1               0.0000000000
      8989       289  ECLIPA    H75S          -17.6597479583       -9.6141877886       12.0082837783  LPSA9     1               0.0000000000
      8990       289  ECLIPA    C76           -16.0241050074       -8.6768760470       10.9251453624  LPSA9     1               0.0000000000
      8991       289  ECLIPA    H76R          -15.3485281791       -9.4665188975       11.3555905686  LPSA9     1               0.0000000000
      8992       289  ECLIPA    H76S          -15.3723401763       -7.7084089293       10.9731137071  LPSA9     1               0.0000000000
      8993       289  ECLIPA    C77           -16.2203173341       -8.9844135208        9.4191603634  LPSA9     1               0.0000000000
      8994       289  ECLIPA    H77R          -16.8145376931       -8.1885945750        9.0408775908  LPSA9     1               0.0000000000
      8995       289  ECLIPA    H77S          -16.8950831177       -9.8611816718        9.2852383479  LPSA9     1               0.0000000000
      8996       289  ECLIPA    C78           -14.8353285757       -9.2796206500        8.8297405752  LPSA9     1               0.0000000000
      8997       289  ECLIPA    H78R          -14.1676718418       -8.4830307697        9.1562620580  LPSA9     1               0.0000000000
      8998       289  ECLIPA    H78S          -14.5302346004      -10.2467628904        9.3169442960  LPSA9     1               0.0000000000
      8999       289  ECLIPA    C79           -14.8774404444       -9.6640779789        7.2570767761  LPSA9     1               0.0000000000
      9000       289  ECLIPA    H79R          -14.8764983726      -10.7944085853        7.1763205913  LPSA9     1               0.0000000000
      9001       289  ECLIPA    H79S          -13.9611513124       -9.2925382407        6.7882549413  LPSA9     1               0.0000000000
      9002       289  ECLIPA    C710          -15.9132308113       -8.9553265587        6.3785096220  LPSA9     1               0.0000000000
      9003       289  ECLIPA    H710R         -16.8951502752       -9.2016306001        6.8460783027  LPSA9     1               0.0000000000
      9004       289  ECLIPA    H710S         -15.7628527989       -7.9477334313        6.4843026416  LPSA9     1               0.0000000000
      9005       289  ECLIPA    C711          -15.9306940706       -9.4243053712        4.9384125046  LPSA9     1               0.0000000000
      9006       289  ECLIPA    H711R         -14.9386666593       -9.1594069962        4.5670708729  LPSA9     1               0.0000000000
      9007       289  ECLIPA    H711S         -16.1370569788      -10.5247962135        4.9306188492  LPSA9     1               0.0000000000
      9008       289  ECLIPA    C712          -17.0551067566       -8.7051172010        4.2148670498  LPSA9     1               0.0000000000
      9009       289  ECLIPA    H712R         -16.8443487943       -7.6344846312        4.3130666899  LPSA9     1               0.0000000000
      9010       289  ECLIPA    H712S         -17.9377627076       -8.8814454023        4.8522839389  LPSA9     1               0.0000000000
      9011       289  ECLIPA    C713          -17.2545758949       -9.2555624573        2.7357390519  LPSA9     1               0.0000000000
      9012       289  ECLIPA    H713R         -17.5365136447      -10.3357083937        2.8800411466  LPSA9     1               0.0000000000
      9013       289  ECLIPA    H713S         -18.1055414600       -8.6297449063        2.2750064041  LPSA9     1               0.0000000000
      9014       289  ECLIPA    C714          -15.9989815697       -8.9802520199        1.8879763961  LPSA9     1               0.0000000000
      9015       289  ECLIPA    H714R         -15.8283247901       -7.9016826544        1.7626189762  LPSA9     1               0.0000000000
      9016       289  ECLIPA    H714S         -15.1386378712       -9.5805776568        2.2081901572  LPSA9     1               0.0000000000
      9017       289  ECLIPA    H714T         -16.3184894167       -9.3316843953        0.9249202435  LPSA9     1               0.0000000000
      9018       289  ECLIPA    C51           -16.5542395106      -13.4020348996       14.2380633031  LPSA9     1               0.0000000000
      9019       289  ECLIPA    O51           -17.6680744880      -12.8458845087       14.1304636378  LPSA9     1               0.0000000000
      9020       289  ECLIPA    C52           -15.5779553877      -13.5560460211       13.0157035712  LPSA9     1               0.0000000000
      9021       289  ECLIPA    H52R          -14.8802818394      -12.7397928463       12.8950255930  LPSA9     1               0.0000000000
      9022       289  ECLIPA    H52S          -15.0612475520      -14.4665756531       13.2222025935  LPSA9     1               0.0000000000
      9023       289  ECLIPA    C53           -16.4728868914      -13.8527126973       11.7526064304  LPSA9     1               0.0000000000
      9024       289  ECLIPA    H53R          -17.4232333333      -14.3096707459       12.0082431084  LPSA9     1               0.0000000000
      9025       289  ECLIPA    O53           -15.6306818597      -14.5791153574       10.8431816314  LPSA9     1               0.0000000000
      9026       289  ECLIPA    C61           -15.9808839622      -15.8102547228       10.5090573566  LPSA9     1               0.0000000000
      9027       289  ECLIPA    O61           -16.9617928145      -16.3838691506       10.8659713306  LPSA9     1               0.0000000000
      9028       289  ECLIPA    C62           -14.9149623764      -16.3999771127        9.5765835255  LPSA9     1               0.0000000000
      9029       289  ECLIPA    H62R          -14.0683510218      -16.7293364687       10.2152837125  LPSA9     1               0.0000000000
      9030       289  ECLIPA    H62S          -14.4609979995      -15.5349806351        9.0470049452  LPSA9     1               0.0000000000
      9031       289  ECLIPA    C63           -15.4933057580      -17.5249233080        8.6803029234  LPSA9     1               0.0000000000
      9032       289  ECLIPA    H63R          -16.4508106021      -17.1544585545        8.2798705976  LPSA9     1               0.0000000000
      9033       289  ECLIPA    H63S          -15.7266213367      -18.4807267754        9.3252199642  LPSA9     1               0.0000000000
      9034       289  ECLIPA    C64           -14.6861677709      -17.9830416444        7.5279067597  LPSA9     1               0.0000000000
      9035       289  ECLIPA    H64R          -15.1517954659      -18.8669616845        6.9620099216  LPSA9     1               0.0000000000
      9036       289  ECLIPA    H64S          -13.6651527319      -18.2854706490        7.9657393466  LPSA9     1               0.0000000000
      9037       289  ECLIPA    C65           -14.4404593217      -16.7877624355        6.5414948800  LPSA9     1               0.0000000000
      9038       289  ECLIPA    H65R          -13.9139703813      -16.0916503815        7.2423230371  LPSA9     1               0.0000000000
      9039       289  ECLIPA    H65S          -15.4182063710      -16.3971418469        6.1828980290  LPSA9     1               0.0000000000
      9040       289  ECLIPA    C66           -13.5921666320      -17.0847691470        5.2222643966  LPSA9     1               0.0000000000
      9041       289  ECLIPA    H66R          -12.6088174985      -17.4252153779        5.5395647249  LPSA9     1               0.0000000000
      9042       289  ECLIPA    H66S          -13.5352179542      -16.0334353457        4.8113963288  LPSA9     1               0.0000000000
      9043       289  ECLIPA    C67           -14.1774406025      -17.9919002361        4.1696839457  LPSA9     1               0.0000000000
      9044       289  ECLIPA    H67R          -14.5318172839      -18.9405012983        4.5058181646  LPSA9     1               0.0000000000
      9045       289  ECLIPA    H67S          -13.4246804861      -18.1606012156        3.3478820057  LPSA9     1               0.0000000000
      9046       289  ECLIPA    C68           -15.4173988243      -17.4503837570        3.5077075145  LPSA9     1               0.0000000000
      9047       289  ECLIPA    H68R          -15.3680139743      -16.4519807518        3.0112508411  LPSA9     1               0.0000000000
      9048       289  ECLIPA    H68S          -16.1333772921      -17.4917474546        4.3087918325  LPSA9     1               0.0000000000
      9049       289  ECLIPA    C69           -15.7736825058      -18.3106920349        2.2963532923  LPSA9     1               0.0000000000
      9050       289  ECLIPA    H69R          -15.4350875753      -19.3645378764        2.3203210098  LPSA9     1               0.0000000000
      9051       289  ECLIPA    H69S          -15.1836955800      -17.9207327656        1.4693744207  LPSA9     1               0.0000000000
      9052       289  ECLIPA    C610          -17.2151113257      -18.2864715330        1.9396251084  LPSA9     1               0.0000000000
      9053       289  ECLIPA    H610R         -17.6255292492      -17.2461082536        2.0603347121  LPSA9     1               0.0000000000
      9054       289  ECLIPA    H610S         -17.8066912492      -18.9020767853        2.6933643884  LPSA9     1               0.0000000000
      9055       289  ECLIPA    C611          -17.5207675270      -18.9070617570        0.5312153135  LPSA9     1               0.0000000000
      9056       289  ECLIPA    H611R         -17.1499997670      -19.9497865218        0.5735373188  LPSA9     1               0.0000000000
      9057       289  ECLIPA    H611S         -18.5662235379      -19.1162003053        0.3609598123  LPSA9     1               0.0000000000
      9058       289  ECLIPA    C612          -16.9594051230      -18.0345225120       -0.5788949292  LPSA9     1               0.0000000000
      9059       289  ECLIPA    H612R         -17.5490590025      -17.0753395132       -0.6060949542  LPSA9     1               0.0000000000
      9060       289  ECLIPA    H612S         -15.9411922921      -17.7243979508       -0.3132441764  LPSA9     1               0.0000000000
      9061       289  ECLIPA    H612T         -17.0241797892      -18.5186120621       -1.5574606966  LPSA9     1               0.0000000000
      9062       289  ECLIPA    C54           -16.7521368524      -12.4520082454       11.1776054589  LPSA9     1               0.0000000000
      9063       289  ECLIPA    H54R          -15.7643747191      -11.9846741512       10.8869876633  LPSA9     1               0.0000000000
      9064       289  ECLIPA    H54S          -17.1608156453      -11.7892631107       11.9574517429  LPSA9     1               0.0000000000
      9065       289  ECLIPA    C55           -17.6992004717      -12.3140522027        9.9916770240  LPSA9     1               0.0000000000
      9066       289  ECLIPA    H55R          -18.0435592300      -11.2752954392        9.7856946516  LPSA9     1               0.0000000000
      9067       289  ECLIPA    H55S          -18.6386751050      -12.9237078248       10.2436295858  LPSA9     1               0.0000000000
      9068       289  ECLIPA    C56           -16.9414180017      -12.7070377111        8.7515486822  LPSA9     1               0.0000000000
      9069       289  ECLIPA    H56R          -16.5867991652      -13.7795813326        8.8382497819  LPSA9     1               0.0000000000
      9070       289  ECLIPA    H56S          -16.1138866846      -12.1265838277        8.4741334449  LPSA9     1               0.0000000000
      9071       289  ECLIPA    C57           -17.7922037314      -12.8987610325        7.4395707935  LPSA9     1               0.0000000000
      9072       289  ECLIPA    H57R          -18.3829113686      -12.0176288809        7.1827428724  LPSA9     1               0.0000000000
      9073       289  ECLIPA    H57S          -18.5439841486      -13.7123382212        7.5196553379  LPSA9     1               0.0000000000
      9074       289  ECLIPA    C58           -16.8643877342      -13.3398124746        6.2350750625  LPSA9     1               0.0000000000
      9075       289  ECLIPA    H58R          -15.9176351729      -12.7323298625        6.2095761879  LPSA9     1               0.0000000000
      9076       289  ECLIPA    H58S          -16.4366809489      -14.3393202454        6.5224540661  LPSA9     1               0.0000000000
      9077       289  ECLIPA    C59           -17.5895744830      -13.2054819984        4.8667186835  LPSA9     1               0.0000000000
      9078       289  ECLIPA    H59R          -17.9329708999      -12.1761704776        4.6589989540  LPSA9     1               0.0000000000
      9079       289  ECLIPA    H59S          -18.4327870354      -13.8907484493        5.0825555512  LPSA9     1               0.0000000000
      9080       289  ECLIPA    C510          -16.6579474601      -13.4932729676        3.6752379292  LPSA9     1               0.0000000000
      9081       289  ECLIPA    H510R         -15.9893028467      -14.4137047402        3.7937959224  LPSA9     1               0.0000000000
      9082       289  ECLIPA    H510S         -15.9264987971      -12.5899906497        3.4613250382  LPSA9     1               0.0000000000
      9083       289  ECLIPA    C511          -17.3394373645      -13.6584434085        2.3004848829  LPSA9     1               0.0000000000
      9084       289  ECLIPA    H511R         -17.7262883578      -14.6950747823        2.2679211996  LPSA9     1               0.0000000000
      9085       289  ECLIPA    H511S         -18.2500442427      -13.0000767087        2.1940961976  LPSA9     1               0.0000000000
      9086       289  ECLIPA    C512          -16.4417995803      -13.4962335911        1.0189424135  LPSA9     1               0.0000000000
      9087       289  ECLIPA    H512R         -17.0864927333      -13.4146267014        0.0815295424  LPSA9     1               0.0000000000
      9088       289  ECLIPA    H512S         -15.8305587171      -12.5901024239        1.1129704346  LPSA9     1               0.0000000000
      9089       289  ECLIPA    C513          -15.5613088635      -14.7740326009        0.6457389972  LPSA9     1               0.0000000000
      9090       289  ECLIPA    H513R         -16.2102530769      -15.6928356920        0.5010832175  LPSA9     1               0.0000000000
      9091       289  ECLIPA    H513S         -14.9176254331      -15.0038093490        1.4088770719  LPSA9     1               0.0000000000
      9092       289  ECLIPA    C514          -14.8396951245      -14.5606702552       -0.6567184026  LPSA9     1               0.0000000000
      9093       289  ECLIPA    H514R         -14.2517572655      -13.6435512142       -0.6273993866  LPSA9     1               0.0000000000
      9094       289  ECLIPA    H514S         -14.1144152436      -15.3760825547       -0.7024724270  LPSA9     1               0.0000000000
      9095       289  ECLIPA    H514T         -15.5732038477      -14.5319097276       -1.5427815912  LPSA9     1               0.0000000000
      9096       289  ECLIPA    C33           -14.3544257867      -18.0841968249       14.4880792826  LPSA9     1               0.0000000000
      9097       289  ECLIPA    H33R          -13.4223940414      -18.6094079935       14.8828993596  LPSA9     1               0.0000000000
      9098       289  ECLIPA    O33           -14.7593134917      -17.1480800389       15.4699768821  LPSA9     1               0.0000000000
      9099       289  ECLIPA    HO33          -14.7050817950      -17.5555436784       16.2926205744  LPSA9     1               0.0000000000
      9100       289  ECLIPA    C34           -13.9201092949      -17.2939391890       13.2255459338  LPSA9     1               0.0000000000
      9101       289  ECLIPA    H34R          -14.7816984658      -16.7904165855       12.8010908313  LPSA9     1               0.0000000000
      9102       289  ECLIPA    H34S          -13.6147873219      -18.0211089737       12.3772221142  LPSA9     1               0.0000000000
      9103       289  ECLIPA    C35           -12.8097297351      -16.2463888827       13.4256256262  LPSA9     1               0.0000000000
      9104       289  ECLIPA    H35R          -11.8968908251      -16.7720760075       13.6963698038  LPSA9     1               0.0000000000
      9105       289  ECLIPA    H35S          -13.0857157051      -15.5974581713       14.2668166019  LPSA9     1               0.0000000000
      9106       289  ECLIPA    C36           -12.3809938839      -15.4340908227       12.1865608177  LPSA9     1               0.0000000000
      9107       289  ECLIPA    H36R          -13.3970276877      -15.3903164446       11.7430812241  LPSA9     1               0.0000000000
      9108       289  ECLIPA    H36S          -11.6598400257      -15.9529292803       11.4785220412  LPSA9     1               0.0000000000
      9109       289  ECLIPA    C37           -12.0290772163      -13.9978837729       12.5255831563  LPSA9     1               0.0000000000
      9110       289  ECLIPA    H37R          -10.8570641788      -14.0303609362       12.6765215637  LPSA9     1               0.0000000000
      9111       289  ECLIPA    H37S          -12.4201066965      -13.6891403177       13.5128993321  LPSA9     1               0.0000000000
      9112       289  ECLIPA    C38           -12.3316620959      -12.9362338944       11.4317274953  LPSA9     1               0.0000000000
      9113       289  ECLIPA    H38R          -13.3889946359      -12.6241840511       11.4067421357  LPSA9     1               0.0000000000
      9114       289  ECLIPA    H38S          -11.8018003190      -12.0112873676       11.7230999881  LPSA9     1               0.0000000000
      9115       289  ECLIPA    C39           -11.9830344152      -13.4535017616       10.0213367345  LPSA9     1               0.0000000000
      9116       289  ECLIPA    H39R          -12.5076664699      -14.4235349514        9.8128797222  LPSA9     1               0.0000000000
      9117       289  ECLIPA    H39S          -10.8629454966      -13.5017234498        9.9697980947  LPSA9     1               0.0000000000
      9118       289  ECLIPA    C310          -12.2940517945      -12.5098680484        8.8401719124  LPSA9     1               0.0000000000
      9119       289  ECLIPA    H310R         -11.6126136099      -11.6063693781        9.0626900142  LPSA9     1               0.0000000000
      9120       289  ECLIPA    H310S         -13.3716328835      -12.1770374074        8.8945759064  LPSA9     1               0.0000000000
      9121       289  ECLIPA    C311          -12.2838817742      -13.2237875805        7.5676235846  LPSA9     1               0.0000000000
      9122       289  ECLIPA    H311R         -11.4591296322      -13.9808818669        7.5507520616  LPSA9     1               0.0000000000
      9123       289  ECLIPA    H311S         -13.2338042783      -13.7743844197        7.2851462164  LPSA9     1               0.0000000000
      9124       289  ECLIPA    C312          -12.1499096893      -12.3119112343        6.3280121142  LPSA9     1               0.0000000000
      9125       289  ECLIPA    H312R         -12.6916718005      -11.3453786668        6.4861373960  LPSA9     1               0.0000000000
      9126       289  ECLIPA    H312S         -11.0610035265      -12.0997705787        6.1820758986  LPSA9     1               0.0000000000
      9127       289  ECLIPA    C313          -12.6509016209      -12.9455567032        4.9895779706  LPSA9     1               0.0000000000
      9128       289  ECLIPA    H313R         -11.9189741038      -13.6637599039        4.7825120466  LPSA9     1               0.0000000000
      9129       289  ECLIPA    H313S         -13.6321934575      -13.4714195017        5.1572698764  LPSA9     1               0.0000000000
      9130       289  ECLIPA    C314          -12.7907624390      -12.0384905027        3.8116661598  LPSA9     1               0.0000000000
      9131       289  ECLIPA    H314R         -11.8017640338      -11.5452581634        3.6067793993  LPSA9     1               0.0000000000
      9132       289  ECLIPA    H314S         -13.1353097795      -12.5047749030        2.8849361441  LPSA9     1               0.0000000000
      9133       289  ECLIPA    H314T         -13.5135581532      -11.1799620899        4.0446347774  LPSA9     1               0.0000000000
      9134       289  ECLIPA    C11           -19.9950941170      -16.6710678478       11.2900808200  LPSA9     1               0.0000000000
      9135       289  ECLIPA    O11           -19.9371527365      -15.4568638189       11.1394597694  LPSA9     1               0.0000000000
      9136       289  ECLIPA    C12           -20.9043511092      -17.4389700968       10.2853014675  LPSA9     1               0.0000000000
      9137       289  ECLIPA    H12R          -21.9880114781      -17.2394605425       10.4852637814  LPSA9     1               0.0000000000
      9138       289  ECLIPA    H12S          -20.6741959722      -18.5115255938       10.5222272274  LPSA9     1               0.0000000000
      9139       289  ECLIPA    C13           -20.6242516423      -17.1797176960        8.8110583416  LPSA9     1               0.0000000000
      9140       289  ECLIPA    H13R          -20.4575106573      -16.0598624432        8.5839874118  LPSA9     1               0.0000000000
      9141       289  ECLIPA    O13           -21.8436529531      -17.5764895286        8.1311342176  LPSA9     1               0.0000000000
      9142       289  ECLIPA    HO13          -21.9100563951      -17.1315129031        7.3064966676  LPSA9     1               0.0000000000
      9143       289  ECLIPA    C14           -19.3704471980      -17.9453443056        8.4581579993  LPSA9     1               0.0000000000
      9144       289  ECLIPA    H14R          -19.3259238678      -18.9747929156        8.9706443184  LPSA9     1               0.0000000000
      9145       289  ECLIPA    H14S          -18.5067371547      -17.3010181925        8.7243868424  LPSA9     1               0.0000000000
      9146       289  ECLIPA    C15           -19.2137466519      -18.2309083550        6.9526486677  LPSA9     1               0.0000000000
      9147       289  ECLIPA    H15R          -20.1022617025      -18.6880356151        6.5500123177  LPSA9     1               0.0000000000
      9148       289  ECLIPA    H15S          -18.3438167605      -18.8854440148        6.8782608049  LPSA9     1               0.0000000000
      9149       289  ECLIPA    C16           -18.9923808623      -16.9169391736        6.1622847334  LPSA9     1               0.0000000000
      9150       289  ECLIPA    H16R          -17.9106869184      -16.5402045258        6.2733383262  LPSA9     1               0.0000000000
      9151       289  ECLIPA    H16S          -19.4995794702      -16.1098040292        6.7182496574  LPSA9     1               0.0000000000
      9152       289  ECLIPA    C17           -19.3383281061      -17.0406307907        4.6801229578  LPSA9     1               0.0000000000
      9153       289  ECLIPA    H17R          -18.8588628431      -18.0348524873        4.4246758429  LPSA9     1               0.0000000000
      9154       289  ECLIPA    H17S          -18.8935077917      -16.3024933625        4.0046542873  LPSA9     1               0.0000000000
      9155       289  ECLIPA    C18           -20.8249057250      -17.0647605235        4.4504458171  LPSA9     1               0.0000000000
      9156       289  ECLIPA    H18R          -21.1326224042      -17.8514085150        5.0865821920  LPSA9     1               0.0000000000
      9157       289  ECLIPA    H18S          -21.2407382742      -16.0682100780        4.7749867078  LPSA9     1               0.0000000000
      9158       289  ECLIPA    C19           -21.1829337567      -17.3318198270        3.0097966450  LPSA9     1               0.0000000000
      9159       289  ECLIPA    H19R          -22.2525392754      -17.4623620866        2.9245509529  LPSA9     1               0.0000000000
      9160       289  ECLIPA    H19S          -20.6459528748      -18.2601984303        2.6238151240  LPSA9     1               0.0000000000
      9161       289  ECLIPA    C110          -20.8381991678      -16.1237992674        2.1045801788  LPSA9     1               0.0000000000
      9162       289  ECLIPA    H110R         -21.2162772728      -15.1572382496        2.4416701971  LPSA9     1               0.0000000000
      9163       289  ECLIPA    H110S         -19.7279166872      -16.1623253839        2.1583327743  LPSA9     1               0.0000000000
      9164       289  ECLIPA    C111          -21.2870071678      -16.4202793859        0.7563571155  LPSA9     1               0.0000000000
      9165       289  ECLIPA    H111R         -21.0772524541      -17.4674025740        0.3999767799  LPSA9     1               0.0000000000
      9166       289  ECLIPA    H111S         -22.3442458555      -16.3753661742        0.7977177860  LPSA9     1               0.0000000000
      9167       289  ECLIPA    C112          -20.8209969589      -15.3996832162       -0.2937360943  LPSA9     1               0.0000000000
      9168       289  ECLIPA    H112R         -21.2094785472      -14.4693869289        0.1973446929  LPSA9     1               0.0000000000
      9169       289  ECLIPA    H112S         -19.7459778042      -15.2179372114       -0.2177998937  LPSA9     1               0.0000000000
      9170       289  ECLIPA    C113          -21.1043016767      -15.8139980020       -1.7468031795  LPSA9     1               0.0000000000
      9171       289  ECLIPA    H113R         -20.4765203394      -16.7048375472       -1.9802017524  LPSA9     1               0.0000000000
      9172       289  ECLIPA    H113S         -22.1279690116      -16.1869026240       -1.8531093719  LPSA9     1               0.0000000000
      9173       289  ECLIPA    C114          -21.0258876707      -14.7726345188       -2.8344928043  LPSA9     1               0.0000000000
      9174       289  ECLIPA    H114R         -21.5548046001      -13.8248886108       -2.7829422503  LPSA9     1               0.0000000000
      9175       289  ECLIPA    H114S         -19.9504473883      -14.4805786722       -2.9951089580  LPSA9     1               0.0000000000
      9176       289  ECLIPA    H114T         -21.5340944943      -15.1578687959       -3.7399523103  LPSA9     1               0.0000000000
      9177       290  AKDO      C1            -15.2976188802      -12.7810235893       22.4410509549  LPSA9     2               0.0000000000
      9178       290  AKDO      O11           -14.7919074244      -11.6075704167       22.4913720772  LPSA9     2               0.0000000000
      9179       290  AKDO      O12           -14.7829877482      -13.8765899267       22.0800765534  LPSA9     2               0.0000000000
      9180       290  AKDO      C2            -16.7589479684      -12.8734516492       22.8913181237  LPSA9     2               0.0000000000
      9181       290  AKDO      C6            -18.5137456256      -11.5731006888       23.8039205188  LPSA9     2               0.0000000000
      9182       290  AKDO      H6            -19.1103927903      -11.7555342739       22.9487387861  LPSA9     2               0.0000000000
      9183       290  AKDO      O6            -17.0795914798      -11.6344333247       23.4267274814  LPSA9     2               0.0000000000
      9184       290  AKDO      C3            -16.9790957491      -13.8732684647       23.9587385105  LPSA9     2               0.0000000000
      9185       290  AKDO      H31           -16.3418119227      -13.7869276948       24.7868435866  LPSA9     2               0.0000000000
      9186       290  AKDO      H32           -16.8511857555      -14.9280303045       23.4151264596  LPSA9     2               0.0000000000
      9187       290  AKDO      C4            -18.4447221685      -13.8646777823       24.3842593775  LPSA9     2               0.0000000000
      9188       290  AKDO      H4            -19.1204226915      -13.9905780785       23.5563617270  LPSA9     2               0.0000000000
      9189       290  AKDO      O4            -18.6651719954      -14.8963906611       25.3355834555  LPSA9     2               0.0000000000
      9190       290  AKDO      C5            -18.8749780799      -12.5778926096       24.9292437177  LPSA9     2               0.0000000000
      9191       290  AKDO      H5            -19.9932017754      -12.5374499529       25.0107888161  LPSA9     2               0.0000000000
      9192       290  AKDO      O5            -18.1433814128      -12.3543044173       26.2083878813  LPSA9     2               0.0000000000
      9193       290  AKDO      C7            -18.9757112006      -10.0955222831       24.1981149098  LPSA9     2               0.0000000000
      9194       290  AKDO      H7            -18.4317648186       -9.8026670032       25.0939202098  LPSA9     2               0.0000000000
      9195       290  AKDO      O7            -20.4169773982      -10.0025967169       24.3482682347  LPSA9     2               0.0000000000
      9196       290  AKDO      HO7           -20.7565530026       -9.9905356178       23.4945166536  LPSA9     2               0.0000000000
      9197       290  AKDO      C8            -18.5768014794       -9.1855664423       22.9864433882  LPSA9     2               0.0000000000
      9198       290  AKDO      H81           -17.4680388235       -9.2942278688       22.9153150275  LPSA9     2               0.0000000000
      9199       290  AKDO      H82           -19.1590455739       -9.5827471044       22.0745354517  LPSA9     2               0.0000000000
      9200       290  AKDO      O8            -18.9125615902       -7.7825347095       23.3537996748  LPSA9     2               0.0000000000
      9201       290  AKDO      HO8           -18.2490322248       -7.1870911432       22.9179804014  LPSA9     2               0.0000000000
      9202       291  AKDO      C1            -19.8509305252      -16.2628818303       23.8027969005  LPSA9     3               1.0000000000
      9203       291  AKDO      O11           -19.3658630014      -16.4546056980       22.6471489042  LPSA9     3               1.0000000000
      9204       291  AKDO      O12           -21.0663687223      -16.1005668677       24.0656860145  LPSA9     3               1.0000000000
      9205       291  AKDO      C2            -18.9327314849      -16.2460810688       25.0166033796  LPSA9     3               1.0000000000
      9206       291  AKDO      C6            -16.7300069652      -16.8473522507       25.7688829792  LPSA9     3               1.0000000000
      9207       291  AKDO      H6            -16.4690381007      -15.7596685127       25.9810553331  LPSA9     3               1.0000000000
      9208       291  AKDO      O6            -17.6625327632      -16.9193321569       24.7076657818  LPSA9     3               1.0000000000
      9209       291  AKDO      C3            -19.5125876502      -16.8602752627       26.3187707743  LPSA9     3               1.0000000000
      9210       291  AKDO      H31           -19.7482553599      -17.9908208500       26.1504935106  LPSA9     3               1.0000000000
      9211       291  AKDO      H32           -20.4600062553      -16.3760340346       26.5929217108  LPSA9     3               1.0000000000
      9212       291  AKDO      C4            -18.4749121972      -16.7242417614       27.4036122013  LPSA9     3               1.0000000000
      9213       291  AKDO      H4            -18.1448192012      -15.6809027419       27.4051754129  LPSA9     3               1.0000000000
      9214       291  AKDO      O4            -18.8939312476      -17.0426201736       28.7388570077  LPSA9     3               1.0000000000
      9215       291  AKDO      HO4           -18.7935452435      -16.3420722496       29.3717785514  LPSA9     3               1.0000000000
      9216       291  AKDO      C5            -17.3032719610      -17.4258455547       27.0369167275  LPSA9     3               1.0000000000
      9217       291  AKDO      H5            -16.5644181455      -17.3893665144       27.9236884022  LPSA9     3               1.0000000000
      9218       291  AKDO      O5            -17.5869824291      -18.8251357304       26.8495261943  LPSA9     3               1.0000000000
      9219       291  AKDO      HO5           -18.2394679669      -18.9322873773       26.1887877298  LPSA9     3               1.0000000000
      9220       291  AKDO      C7            -15.4873083684      -17.5780864102       25.3258859863  LPSA9     3               1.0000000000
      9221       291  AKDO      H7            -15.6969131411      -18.6705830607       25.1324849511  LPSA9     3               1.0000000000
      9222       291  AKDO      O7            -14.4800981862      -17.4442433632       26.3661029982  LPSA9     3               1.0000000000
      9223       291  AKDO      HO7           -13.7389922024      -18.0539289174       26.1647669547  LPSA9     3               1.0000000000
      9224       291  AKDO      C8            -14.9561503671      -16.8631419359       24.1539635864  LPSA9     3               1.0000000000
      9225       291  AKDO      H81           -15.6951260729      -16.8565534727       23.3419478721  LPSA9     3               1.0000000000
      9226       291  AKDO      H82           -14.6368295979      -15.8182960129       24.2853144505  LPSA9     3               1.0000000000
      9227       291  AKDO      O8            -13.8236364347      -17.5379833865       23.6541307456  LPSA9     3               1.0000000000
      9228       291  AKDO      HO8           -14.3155342725      -18.2758241659       23.2473452835  LPSA9     3               1.0000000000
      9229       292  AHEP      C1            -18.8019987609      -11.6977829987       27.2793229502  LPSA9     4               2.0000000000
      9230       292  AHEP      H1            -18.6298365522      -10.6562829121       26.8517192453  LPSA9     4               2.0000000000
      9231       292  AHEP      C5            -20.6483797723      -13.0822167110       28.0185271385  LPSA9     4               2.0000000000
      9232       292  AHEP      H5            -19.9983388216      -13.9257708727       27.5619054335  LPSA9     4               2.0000000000
      9233       292  AHEP      O5            -20.2157207713      -11.8765139966       27.3942805697  LPSA9     4               2.0000000000
      9234       292  AHEP      C2            -18.2540033052      -11.6489088429       28.6827861277  LPSA9     4               2.0000000000
      9235       292  AHEP      H2            -17.1637753608      -11.5593653735       28.7442425996  LPSA9     4               2.0000000000
      9236       292  AHEP      O2            -18.7696653059      -10.5486508430       29.3407203943  LPSA9     4               2.0000000000
      9237       292  AHEP      HO2           -18.0935932091      -10.1442278602       29.8507927467  LPSA9     4               2.0000000000
      9238       292  AHEP      C3            -18.6510224396      -12.9041171778       29.4857672188  LPSA9     4               2.0000000000
      9239       292  AHEP      H3            -18.1197627517      -13.8303440684       29.2269906369  LPSA9     4               2.0000000000
      9240       292  AHEP      O3            -18.2997641971      -12.7491499069       30.7882097304  LPSA9     4               2.0000000000
      9241       292  AHEP      C4            -20.1497590069      -13.0600934086       29.4546205599  LPSA9     4               2.0000000000
      9242       292  AHEP      H4            -20.7313455272      -12.2610368987       29.9788637739  LPSA9     4               2.0000000000
      9243       292  AHEP      O4            -20.4895231464      -14.2942501788       30.0145912217  LPSA9     4               2.0000000000
      9244       292  AHEP      P4            -21.2261640529      -14.4335594478       31.4978499249  LPSA9     4               2.0000000000
      9245       292  AHEP      OP42          -20.7512846271      -15.6681453133       32.1560374192  LPSA9     4               2.0000000000
      9246       292  AHEP      OP43          -22.6518306208      -14.5275050969       31.0397938518  LPSA9     4               2.0000000000
      9247       292  AHEP      OP44          -21.0176175101      -13.1170850194       32.3098937101  LPSA9     4               2.0000000000
      9248       292  AHEP      C6            -22.1837675143      -13.3317425820       27.7982482844  LPSA9     4               2.0000000000
      9249       292  AHEP      H6            -22.3597733027      -14.4134458723       28.0833143566  LPSA9     4               2.0000000000
      9250       292  AHEP      O6            -22.8885556662      -12.4854144979       28.7103505027  LPSA9     4               2.0000000000
      9251       292  AHEP      HO6           -23.5821049820      -12.9834331481       29.2203787365  LPSA9     4               2.0000000000
      9252       292  AHEP      C7            -22.6515570193      -13.1385331274       26.3054198206  LPSA9     4               2.0000000000
      9253       292  AHEP      H71           -23.7264141693      -13.4904483332       26.1576126064  LPSA9     4               2.0000000000
      9254       292  AHEP      H72           -21.9063061126      -13.6078830709       25.6323487339  LPSA9     4               2.0000000000
      9255       292  AHEP      O7            -22.6906623850      -11.7532080904       25.9755159574  LPSA9     4               2.0000000000
      9256       292  AHEP      HO7           -23.5201691257      -11.3913267086       26.3256794122  LPSA9     4               2.0000000000
      9257       293  AHEP      C1            -17.3785057240      -13.6570026680       31.4342177374  LPSA9     5               3.0000000000
      9258       293  AHEP      H1            -17.4270219689      -14.6811161150       30.9794447437  LPSA9     5               3.0000000000
      9259       293  AHEP      C5            -15.8031240966      -11.9360360678       31.9165413065  LPSA9     5               3.0000000000
      9260       293  AHEP      H5            -16.6436885270      -11.2282593594       31.6031509785  LPSA9     5               3.0000000000
      9261       293  AHEP      O5            -16.0213848090      -13.1961061656       31.3013865768  LPSA9     5               3.0000000000
      9262       293  AHEP      C2            -17.6174277323      -13.8303288773       32.9718957084  LPSA9     5               3.0000000000
      9263       293  AHEP      H2            -18.7084516692      -14.1287197097       33.0921707216  LPSA9     5               3.0000000000
      9264       293  AHEP      O2            -16.8031147005      -14.8757393641       33.4691025827  LPSA9     5               3.0000000000
      9265       293  AHEP      HO2           -17.3304092453      -15.6495862746       33.6403503244  LPSA9     5               3.0000000000
      9266       293  AHEP      C3            -17.4293608433      -12.4834920469       33.7004304811  LPSA9     5               3.0000000000
      9267       293  AHEP      H3            -18.1501426576      -11.7424526338       33.3375632548  LPSA9     5               3.0000000000
      9268       293  AHEP      O3            -17.5963005311      -12.5087549403       35.1462238331  LPSA9     5               3.0000000000
      9269       293  AHEP      C4            -16.0237372948      -12.0555398438       33.4524658705  LPSA9     5               3.0000000000
      9270       293  AHEP      H4            -15.2806992479      -12.8051920987       33.8188816395  LPSA9     5               3.0000000000
      9271       293  AHEP      O4            -15.8294607161      -10.7532190019       34.0881196202  LPSA9     5               3.0000000000
      9272       293  AHEP      P4            -14.7861396261      -10.5783976886       35.2810123301  LPSA9     5               3.0000000000
      9273       293  AHEP      OP42          -15.0108739891       -9.1854654678       35.8202965042  LPSA9     5               3.0000000000
      9274       293  AHEP      OP43          -13.3944723671      -10.7251833560       34.6107506294  LPSA9     5               3.0000000000
      9275       293  AHEP      OP44          -15.0308256019      -11.7118305743       36.2417033353  LPSA9     5               3.0000000000
      9276       293  AHEP      C6            -14.4520519887      -11.3032076766       31.5493607386  LPSA9     5               3.0000000000
      9277       293  AHEP      H6            -14.3539126817      -10.2817204165       31.9533288164  LPSA9     5               3.0000000000
      9278       293  AHEP      O6            -13.3839552066      -12.1045376665       32.0428602265  LPSA9     5               3.0000000000
      9279       293  AHEP      HO6           -13.1894994823      -12.9374549973       31.5367188277  LPSA9     5               3.0000000000
      9280       293  AHEP      C7            -14.3968078861      -11.0399395795       30.0822725317  LPSA9     5               3.0000000000
      9281       293  AHEP      H71           -13.7894222194      -10.1231389452       29.9169108581  LPSA9     5               3.0000000000
      9282       293  AHEP      H72           -15.3845871645      -10.8600299978       29.6179339851  LPSA9     5               3.0000000000
      9283       293  AHEP      O7            -13.6433662029      -12.1222141601       29.4957736452  LPSA9     5               3.0000000000
      9284       294  AHEP      C1            -14.4245720114      -13.0408183851       28.7926622005  LPSA9     6               4.0000000000
      9285       294  AHEP      H1            -15.5325166467      -12.8945875336       29.0422981953  LPSA9     6               4.0000000000
      9286       294  AHEP      C5            -12.9400800144      -13.0629672655       26.9237617191  LPSA9     6               4.0000000000
      9287       294  AHEP      H5            -12.2902582017      -12.3746128608       27.4818042043  LPSA9     6               4.0000000000
      9288       294  AHEP      O5            -14.3010273503      -12.9045594575       27.3547530115  LPSA9     6               4.0000000000
      9289       294  AHEP      C2            -14.0591644677      -14.4290922054       29.2397872647  LPSA9     6               4.0000000000
      9290       294  AHEP      H2            -14.2617446419      -14.4821970290       30.3523091474  LPSA9     6               4.0000000000
      9291       294  AHEP      O2            -14.9274139900      -15.4063086468       28.7267108980  LPSA9     6               4.0000000000
      9292       294  AHEP      HO2           -15.4344829255      -15.6771308498       29.4669064354  LPSA9     6               4.0000000000
      9293       294  AHEP      C3            -12.5816462063      -14.6799497443       28.8468391403  LPSA9     6               4.0000000000
      9294       294  AHEP      H3            -11.9746441030      -13.9773170605       29.4311808254  LPSA9     6               4.0000000000
      9295       294  AHEP      O3            -12.0814076874      -16.0547452072       29.2225362108  LPSA9     6               4.0000000000
      9296       294  AHEP      HO3           -11.5753492024      -16.1214877853       29.9865592523  LPSA9     6               4.0000000000
      9297       294  AHEP      C4            -12.4933718842      -14.4834424559       27.2761740859  LPSA9     6               4.0000000000
      9298       294  AHEP      H4            -13.0145598171      -15.2987298008       26.7944950683  LPSA9     6               4.0000000000
      9299       294  AHEP      O4            -11.1532992724      -14.6637537054       26.7938835778  LPSA9     6               4.0000000000
      9300       294  AHEP      HO4           -10.6778406387      -13.8222135892       27.1589530594  LPSA9     6               4.0000000000
      9301       294  AHEP      C6            -12.7228291297      -12.6782073167       25.4906533340  LPSA9     6               4.0000000000
      9302       294  AHEP      H6            -11.6505392649      -12.7480681537       25.3442628137  LPSA9     6               4.0000000000
      9303       294  AHEP      O6            -13.2568537912      -13.6925430066       24.6375675438  LPSA9     6               4.0000000000
      9304       294  AHEP      HO6           -13.8712622460      -13.3211047879       23.9977784313  LPSA9     6               4.0000000000
      9305       294  AHEP      C7            -13.1174780309      -11.2638111056       25.1799756221  LPSA9     6               4.0000000000
      9306       294  AHEP      H71           -12.7556082067      -11.0365109232       24.1408078076  LPSA9     6               4.0000000000
      9307       294  AHEP      H72           -12.5994562961      -10.6341374958       25.9252229174  LPSA9     6               4.0000000000
      9308       294  AHEP      O7            -14.4921880288      -11.0257484395       25.2517430265  LPSA9     6               4.0000000000
      9309       294  AHEP      HO7           -14.6554952942      -10.8510002712       26.2011285002  LPSA9     6               4.0000000000
      9310       295  AGLC      C1            -18.9103249646      -12.3227664450       35.6520976122  LPSA9     7               4.0000000000
      9311       295  AGLC      H1            -19.3466657812      -11.3641980246       35.2047739589  LPSA9     7               4.0000000000
      9312       295  AGLC      C5            -19.3857519671      -14.5896394995       36.0987679218  LPSA9     7               4.0000000000
      9313       295  AGLC      H5            -18.3618724496      -14.8893055493       35.8327124756  LPSA9     7               4.0000000000
      9314       295  AGLC      O5            -19.7462819332      -13.4229612870       35.4366254460  LPSA9     7               4.0000000000
      9315       295  AGLC      C2            -18.9006700607      -12.1092058430       37.1582745954  LPSA9     7               4.0000000000
      9316       295  AGLC      H2            -19.9988766828      -12.0397003933       37.4887389927  LPSA9     7               4.0000000000
      9317       295  AGLC      O2            -18.4100605499      -10.7988908930       37.5024056006  LPSA9     7               4.0000000000
      9318       295  AGLC      HO2           -17.4726783270      -10.9114934964       37.6430208865  LPSA9     7               4.0000000000
      9319       295  AGLC      C3            -18.5025344810      -13.2269712412       37.9903802326  LPSA9     7               4.0000000000
      9320       295  AGLC      H3            -17.4809605114      -13.4395520781       37.6727250444  LPSA9     7               4.0000000000
      9321       295  AGLC      O3            -18.3691915918      -12.9836192912       39.4204481292  LPSA9     7               4.0000000000
      9322       295  AGLC      C4            -19.4547701344      -14.3168788426       37.5928595998  LPSA9     7               4.0000000000
      9323       295  AGLC      H4            -20.5193923052      -14.0692595512       37.9560286200  LPSA9     7               4.0000000000
      9324       295  AGLC      O4            -18.9393446489      -15.5086750230       38.2243117391  LPSA9     7               4.0000000000
      9325       295  AGLC      HO4           -19.5977319481      -16.0435647236       38.6132003238  LPSA9     7               4.0000000000
      9326       295  AGLC      C6            -20.1844579207      -15.7865273362       35.5245160098  LPSA9     7               4.0000000000
      9327       295  AGLC      H61           -20.0469056628      -15.7542826184       34.4135318240  LPSA9     7               4.0000000000
      9328       295  AGLC      H62           -19.9160920338      -16.8070246028       35.8722646349  LPSA9     7               4.0000000000
      9329       295  AGLC      O6            -21.6043267997      -15.4887438047       35.6892983147  LPSA9     7               4.0000000000
      9330       295  AGLC      HO6           -21.7732596229      -15.9944325528       36.4386090630  LPSA9     7               4.0000000000
      9331       296  AGLC      C1            -17.0870512214      -13.0700407676       39.9328324507  LPSA9     8               5.0000000000
      9332       296  AGLC      H1            -16.6042342369      -14.0012137693       39.5884769495  LPSA9     8               5.0000000000
      9333       296  AGLC      C5            -16.5970230292      -10.6525954112       40.2153373402  LPSA9     8               5.0000000000
      9334       296  AGLC      H5            -17.6037377598      -10.4323519269       39.8400606936  LPSA9     8               5.0000000000
      9335       296  AGLC      O5            -16.2225795320      -11.9248811471       39.6195505863  LPSA9     8               5.0000000000
      9336       296  AGLC      C2            -17.1139829081      -13.1741394737       41.4170311384  LPSA9     8               5.0000000000
      9337       296  AGLC      H2            -16.0514604518      -13.4090787121       41.6529594578  LPSA9     8               5.0000000000
      9338       296  AGLC      O2            -17.7771818550      -14.3176081357       41.9438754185  LPSA9     8               5.0000000000
      9339       296  AGLC      C3            -17.5346800048      -11.9398305776       42.1297388169  LPSA9     8               5.0000000000
      9340       296  AGLC      H3            -18.5566538881      -11.8140046617       41.6567950186  LPSA9     8               5.0000000000
      9341       296  AGLC      O3            -17.6307597543      -12.1894889568       43.5370978028  LPSA9     8               5.0000000000
      9342       296  AGLC      C4            -16.6004714531      -10.8858532421       41.7603093222  LPSA9     8               5.0000000000
      9343       296  AGLC      H4            -15.5970712956      -11.1484879394       42.0401368658  LPSA9     8               5.0000000000
      9344       296  AGLC      O4            -16.9339112294       -9.6719833915       42.3914819843  LPSA9     8               5.0000000000
      9345       296  AGLC      HO4           -17.8555106500       -9.5841520001       42.3800652601  LPSA9     8               5.0000000000
      9346       296  AGLC      C6            -15.8068492674       -9.4121503262       39.7357334439  LPSA9     8               5.0000000000
      9347       296  AGLC      H61           -15.6602879065       -9.3662611380       38.6468043611  LPSA9     8               5.0000000000
      9348       296  AGLC      H62           -16.2268299233       -8.4676318740       40.0276014644  LPSA9     8               5.0000000000
      9349       296  AGLC      O6            -14.5362364255       -9.2907963631       40.3040784562  LPSA9     8               5.0000000000
      9350       296  AGLC      HO6           -14.5667152783       -8.9307020129       41.2121845210  LPSA9     8               5.0000000000
      9351       297  AGAL      C1            -17.4543529529      -15.5851937320       41.4573847493  LPSA9     9               6.0000000000
      9352       297  AGAL      H1            -17.4090111988      -15.5691976309       40.3420235153  LPSA9     9               6.0000000000
      9353       297  AGAL      C5            -16.1519090630      -16.3976046167       43.2125447641  LPSA9     9               6.0000000000
      9354       297  AGAL      H5            -16.5630000127      -15.4515381098       43.7424973645  LPSA9     9               6.0000000000
      9355       297  AGAL      O5            -16.1704375264      -16.1648233508       41.8451689838  LPSA9     9               6.0000000000
      9356       297  AGAL      C2            -18.5621101536      -16.5308060178       41.8393925249  LPSA9     9               6.0000000000
      9357       297  AGAL      H2            -18.3612601231      -17.5025753890       41.4115621152  LPSA9     9               6.0000000000
      9358       297  AGAL      O2            -19.7943165937      -16.2226919754       41.1608705954  LPSA9     9               6.0000000000
      9359       297  AGAL      C3            -18.5745876381      -16.8103508478       43.3264191845  LPSA9     9               6.0000000000
      9360       297  AGAL      H3            -18.8283843851      -15.8420634636       43.9424563891  LPSA9     9               6.0000000000
      9361       297  AGAL      O3            -19.6411731149      -17.6054253859       43.7491515633  LPSA9     9               6.0000000000
      9362       297  AGAL      HO3           -20.3786974998      -17.3927859753       43.1585960960  LPSA9     9               6.0000000000
      9363       297  AGAL      C4            -17.2508499083      -17.3771775505       43.6505755014  LPSA9     9               6.0000000000
      9364       297  AGAL      H4            -17.0970514379      -17.5313039032       44.7734818408  LPSA9     9               6.0000000000
      9365       297  AGAL      O4            -16.9695664372      -18.6035492466       43.0499075873  LPSA9     9               6.0000000000
      9366       297  AGAL      HO4           -16.3890755256      -19.0815862323       43.6622427513  LPSA9     9               6.0000000000
      9367       297  AGAL      C6            -14.7619069265      -16.5372354369       43.8349081587  LPSA9     9               6.0000000000
      9368       297  AGAL      H61           -14.0941898529      -15.6583890684       43.6417203355  LPSA9     9               6.0000000000
      9369       297  AGAL      H62           -14.7545078480      -16.6129088995       44.9292747136  LPSA9     9               6.0000000000
      9370       297  AGAL      O6            -14.1254724154      -17.7031397201       43.4062227539  LPSA9     9               6.0000000000
      9371       297  AGAL      HO6           -13.5135040606      -17.4452695049       42.6923548993  LPSA9     9               6.0000000000
      9372       298  AGAL      C1            -21.1085917703      -16.0912038409       41.7517281777  LPSA9     10              7.0000000000
      9373       298  AGAL      H1            -21.4442523748      -17.1329946564       41.8429972083  LPSA9     10              7.0000000000
      9374       298  AGAL      C5            -20.9743402507      -14.0769293976       43.0613392294  LPSA9     10              7.0000000000
      9375       298  AGAL      H5            -19.8839608167      -13.9880567937       42.6233508762  LPSA9     10              7.0000000000
      9376       298  AGAL      O5            -21.3375985429      -15.4707839814       43.0470213554  LPSA9     10              7.0000000000
      9377       298  AGAL      C2            -21.9689251423      -15.3349857667       40.7227968417  LPSA9     10              7.0000000000
      9378       298  AGAL      H2            -23.0635530050      -15.5372390630       41.0433947026  LPSA9     10              7.0000000000
      9379       298  AGAL      O2            -22.1305550383      -16.0123538927       39.5532095562  LPSA9     10              7.0000000000
      9380       298  AGAL      HO2           -23.0500089689      -16.1110801427       39.3379401176  LPSA9     10              7.0000000000
      9381       298  AGAL      C3            -21.6541175643      -13.8820528155       40.6928251787  LPSA9     10              7.0000000000
      9382       298  AGAL      H3            -20.5897091389      -13.8620261992       40.4679648945  LPSA9     10              7.0000000000
      9383       298  AGAL      O3            -22.3873387490      -13.1298810226       39.7732034444  LPSA9     10              7.0000000000
      9384       298  AGAL      HO3           -21.7891955870      -12.9159911163       39.0151094934  LPSA9     10              7.0000000000
      9385       298  AGAL      C4            -21.8663621089      -13.3093274756       42.0524071915  LPSA9     10              7.0000000000
      9386       298  AGAL      H4            -21.5426710079      -12.2521334246       42.1099272557  LPSA9     10              7.0000000000
      9387       298  AGAL      O4            -23.1910714931      -13.3559213901       42.4965010455  LPSA9     10              7.0000000000
      9388       298  AGAL      HO4           -23.3717285980      -14.2759989167       42.5675127347  LPSA9     10              7.0000000000
      9389       298  AGAL      C6            -20.9029313776      -13.4066404697       44.3959537205  LPSA9     10              7.0000000000
      9390       298  AGAL      H61           -20.2967886263      -13.9629062185       45.1044438806  LPSA9     10              7.0000000000
      9391       298  AGAL      H62           -20.3054868711      -12.3811924233       44.2564473849  LPSA9     10              7.0000000000
      9392       298  AGAL      O6            -22.1111975199      -13.0725312359       45.1112340130  LPSA9     10              7.0000000000
      9393       298  AGAL      HO6           -22.1348040048      -13.6100026136       45.9237589285  LPSA9     10              7.0000000000
      9394       299  BGLC      C1            -16.6239542902      -11.9422681421       44.5018065681  LPSA9     11              6.0000000000
      9395       299  BGLC      H1            -16.6510283181      -10.8661295685       44.5883763758  LPSA9     11              6.0000000000
      9396       299  BGLC      C5            -14.2231508738      -12.2976792420       45.1248117688  LPSA9     11              6.0000000000
      9397       299  BGLC      H5            -14.0430176165      -11.1967133255       45.3871201921  LPSA9     11              6.0000000000
      9398       299  BGLC      O5            -15.3179442738      -12.5069576471       44.0830650888  LPSA9     11              6.0000000000
      9399       299  BGLC      C2            -17.0096214034      -12.6088982667       45.7977571702  LPSA9     11              6.0000000000
      9400       299  BGLC      H2            -17.1953737448      -13.7104795337       45.7293388291  LPSA9     11              6.0000000000
      9401       299  BGLC      O2            -18.3020421935      -12.0971290472       46.0886391483  LPSA9     11              6.0000000000
      9402       299  BGLC      HO2           -18.8760692790      -12.8139820105       46.2788110113  LPSA9     11              6.0000000000
      9403       299  BGLC      C3            -16.0154648962      -12.4616354848       46.8736276645  LPSA9     11              6.0000000000
      9404       299  BGLC      H3            -15.9886988676      -11.3373838107       47.1984917368  LPSA9     11              6.0000000000
      9405       299  BGLC      O3            -16.4953287216      -13.1779463167       48.0056213318  LPSA9     11              6.0000000000
      9406       299  BGLC      C4            -14.7295186779      -12.9662199378       46.4390836423  LPSA9     11              6.0000000000
      9407       299  BGLC      H4            -14.8917931039      -14.0712154086       46.2001611147  LPSA9     11              6.0000000000
      9408       299  BGLC      O4            -13.7636734420      -12.9286392507       47.4766894645  LPSA9     11              6.0000000000
      9409       299  BGLC      HO4           -13.9944910256      -13.6047090741       48.1247908570  LPSA9     11              6.0000000000
      9410       299  BGLC      C6            -12.8734324152      -12.7339336964       44.5291127165  LPSA9     11              6.0000000000
      9411       299  BGLC      H61           -12.0918283750      -12.9385424982       45.2481190913  LPSA9     11              6.0000000000
      9412       299  BGLC      H62           -13.0781369702      -13.6298538663       43.8913252379  LPSA9     11              6.0000000000
      9413       299  BGLC      O6            -12.3070929568      -11.8063581879       43.5637942269  LPSA9     11              6.0000000000
      9414       299  BGLC      HO6           -11.5570791619      -11.4840421837       44.0054369298  LPSA9     11              6.0000000000
      9415       300  BGLCNA    C1            -16.5868657518      -12.5906379141       49.3238540420  LPSA9     12              7.0000000000
      9416       300  BGLCNA    H1            -17.5966764571      -12.0610459874       49.3874222992  LPSA9     12              7.0000000000
      9417       300  BGLCNA    C5            -15.7086387391      -10.9890514433       50.8763077070  LPSA9     12              7.0000000000
      9418       300  BGLCNA    H5            -16.7488266993      -10.4393992086       50.9814236466  LPSA9     12              7.0000000000
      9419       300  BGLCNA    O5            -15.5373610337      -11.6327225092       49.5875345322  LPSA9     12              7.0000000000
      9420       300  BGLCNA    C2            -16.4921905209      -13.6940274802       50.3245054808  LPSA9     12              7.0000000000
      9421       300  BGLCNA    H2            -15.3703861181      -14.0327008958       50.3375086743  LPSA9     12              7.0000000000
      9422       300  BGLCNA    N             -17.4913705073      -14.7409100508       50.0347611965  LPSA9     12              7.0000000000
      9423       300  BGLCNA    HN            -18.3426826212      -14.3329987731       49.9972643287  LPSA9     12              7.0000000000
      9424       300  BGLCNA    C             -17.1385476788      -15.9820675502       49.8903426450  LPSA9     12              7.0000000000
      9425       300  BGLCNA    O             -15.9772625300      -16.3120254407       50.0855928044  LPSA9     12              7.0000000000
      9426       300  BGLCNA    CT            -18.2258907129      -16.9613565342       49.5677689528  LPSA9     12              7.0000000000
      9427       300  BGLCNA    HT1           -18.4028824620      -17.6757660698       50.3918503408  LPSA9     12              7.0000000000
      9428       300  BGLCNA    HT2           -17.8663116166      -17.6875493684       48.7104760971  LPSA9     12              7.0000000000
      9429       300  BGLCNA    HT3           -19.1066748918      -16.3601423731       49.2316245990  LPSA9     12              7.0000000000
      9430       300  BGLCNA    C3            -16.6737522717      -13.1742982814       51.6995695120  LPSA9     12              7.0000000000
      9431       300  BGLCNA    H3            -17.7666678559      -12.7430570841       51.8605307917  LPSA9     12              7.0000000000
      9432       300  BGLCNA    O3            -16.6433338531      -14.2022520198       52.7272334264  LPSA9     12              7.0000000000
      9433       300  BGLCNA    C4            -15.6300288112      -12.1351529594       51.9591692987  LPSA9     12              7.0000000000
      9434       300  BGLCNA    H4            -14.5439862162      -12.5249314531       51.9037868612  LPSA9     12              7.0000000000
      9435       300  BGLCNA    O4            -15.7467811745      -11.5860511630       53.2294962294  LPSA9     12              7.0000000000
      9436       300  BGLCNA    HO4           -16.5111805815      -10.9410003168       53.2834945119  LPSA9     12              7.0000000000
      9437       300  BGLCNA    C6            -14.6577839818       -9.8629114174       50.9528560558  LPSA9     12              7.0000000000
      9438       300  BGLCNA    H61           -14.6720933793       -9.4042204062       51.9144325068  LPSA9     12              7.0000000000
      9439       300  BGLCNA    H62           -13.7206516288      -10.3942893804       50.8287962869  LPSA9     12              7.0000000000
      9440       300  BGLCNA    O6            -14.7924838712       -8.9900262895       49.8597561973  LPSA9     12              7.0000000000
      9441       300  BGLCNA    HO6           -15.3951019875       -8.3378820060       50.1903398796  LPSA9     12              7.0000000000
      9442       301  AGAL      C1            -17.6150018399      -14.0605769663       53.8132743488  LPSA9     13              8.0000000000
      9443       301  AGAL      H1            -17.5845627081      -13.0160519908       54.1959401301  LPSA9     13              8.0000000000
      9444       301  AGAL      C5            -18.9016223934      -16.0316707289       53.2950732168  LPSA9     13              8.0000000000
      9445       301  AGAL      H5            -18.1174016577      -16.2163355344       52.5641412600  LPSA9     13              8.0000000000
      9446       301  AGAL      O5            -18.9426799502      -14.6094005902       53.4918445955  LPSA9     13              8.0000000000
      9447       301  AGAL      C2            -17.2354631816      -14.8426233033       55.1010141246  LPSA9     13              8.0000000000
      9448       301  AGAL      H2            -18.1022007848      -14.8209387328       55.7917211299  LPSA9     13              8.0000000000
      9449       301  AGAL      O2            -16.1270986129      -14.2783871193       55.7701983428  LPSA9     13              8.0000000000
      9450       301  AGAL      C3            -17.2048856123      -16.3767927134       54.8979691660  LPSA9     13              8.0000000000
      9451       301  AGAL      H3            -16.5663906224      -16.5946657815       54.0477453328  LPSA9     13              8.0000000000
      9452       301  AGAL      O3            -16.5782018050      -17.0683343605       55.9888739531  LPSA9     13              8.0000000000
      9453       301  AGAL      HO3           -16.0327462545      -17.7866063267       55.6848713412  LPSA9     13              8.0000000000
      9454       301  AGAL      C4            -18.4975070822      -16.8526672378       54.5514025965  LPSA9     13              8.0000000000
      9455       301  AGAL      H4            -18.4553701622      -17.9517100612       54.1954731349  LPSA9     13              8.0000000000
      9456       301  AGAL      O4            -19.4571597051      -16.6995305032       55.5743212917  LPSA9     13              8.0000000000
      9457       301  AGAL      HO4           -19.4617110832      -15.8557082882       56.0499681296  LPSA9     13              8.0000000000
      9458       301  AGAL      C6            -20.0718308689      -16.6183222599       52.5301443486  LPSA9     13              8.0000000000
      9459       301  AGAL      H61           -20.2561139455      -16.0224994005       51.6253596531  LPSA9     13              8.0000000000
      9460       301  AGAL      H62           -19.8702691048      -17.7065120301       52.3684678279  LPSA9     13              8.0000000000
      9461       301  AGAL      O6            -21.2567273876      -16.5792018975       53.2985910507  LPSA9     13              8.0000000000
      9462       301  AGAL      HO6           -21.2386863649      -17.3152854545       53.9299633642  LPSA9     13              8.0000000000
      9463       302  ARHM      C1            -16.2947016744      -13.6544164526       57.0117786358  LPSA9     14              9.0000000000
      9464       302  ARHM      H1            -17.3395347975      -13.2805963385       56.9981767125  LPSA9     14              9.0000000000
      9465       302  ARHM      C5            -14.0978827197      -12.9058713080       57.1930138837  LPSA9     14              9.0000000000
      9466       302  ARHM      H5            -13.8881401877      -13.4507252079       56.1976867078  LPSA9     14              9.0000000000
      9467       302  ARHM      O5            -15.4278011791      -12.5427756063       57.1718909996  LPSA9     14              9.0000000000
      9468       302  ARHM      C2            -16.0567484000      -14.6805925198       58.1413490634  LPSA9     14              9.0000000000
      9469       302  ARHM      H2            -16.7107615374      -15.5052312697       57.8875987320  LPSA9     14              9.0000000000
      9470       302  ARHM      O2            -16.2957078925      -14.2106847852       59.4330148990  LPSA9     14              9.0000000000
      9471       302  ARHM      C3            -14.6209599893      -15.1182300645       58.1095432995  LPSA9     14              9.0000000000
      9472       302  ARHM      H3            -14.3705314581      -15.3984011657       57.0440121713  LPSA9     14              9.0000000000
      9473       302  ARHM      O3            -14.3384784307      -16.2611340143       58.8567888868  LPSA9     14              9.0000000000
      9474       302  ARHM      HO3           -14.3577389961      -15.9572535590       59.8104957846  LPSA9     14              9.0000000000
      9475       302  ARHM      C4            -13.7976207673      -13.9048938094       58.3490442956  LPSA9     14              9.0000000000
      9476       302  ARHM      H4            -13.9990851360      -13.3415070550       59.2902338481  LPSA9     14              9.0000000000
      9477       302  ARHM      O4            -12.3990106861      -14.2915161338       58.4446785014  LPSA9     14              9.0000000000
      9478       302  ARHM      HO4           -11.9802138333      -14.1832692468       59.2969967688  LPSA9     14              9.0000000000
      9479       302  ARHM      C6            -13.2135616648      -11.6487026792       57.2492155848  LPSA9     14              9.0000000000
      9480       302  ARHM      H61           -13.5303607404      -10.8082916897       56.5358243550  LPSA9     14              9.0000000000
      9481       302  ARHM      H62           -13.1913889049      -11.3501360184       58.3170764683  LPSA9     14              9.0000000000
      9482       302  ARHM      H63           -12.1668348831      -11.7108828898       56.9421594120  LPSA9     14              9.0000000000
      9483       303  ARHM      C1            -17.4523229771      -13.5998035021       59.7267990175  LPSA9     15             10.0000000000
      9484       303  ARHM      H1            -18.2670249425      -13.9282168530       59.0458905905  LPSA9     15             10.0000000000
      9485       303  ARHM      C5            -16.5160335529      -11.4916699630       60.6468530148  LPSA9     15             10.0000000000
      9486       303  ARHM      H5            -15.4229033385      -11.7235072887       60.4457705401  LPSA9     15             10.0000000000
      9487       303  ARHM      O5            -17.3774601415      -12.1532033044       59.6688136410  LPSA9     15             10.0000000000
      9488       303  ARHM      C2            -17.8856055397      -13.9810304609       61.1407671534  LPSA9     15             10.0000000000
      9489       303  ARHM      H2            -17.8314974524      -15.1333286416       61.2133420761  LPSA9     15             10.0000000000
      9490       303  ARHM      O2            -19.2423400322      -13.4782562002       61.3234079317  LPSA9     15             10.0000000000
      9491       303  ARHM      C3            -16.9183145541      -13.3906389214       62.1677656617  LPSA9     15             10.0000000000
      9492       303  ARHM      H3            -15.8890440766      -13.7289552229       61.8628392879  LPSA9     15             10.0000000000
      9493       303  ARHM      O3            -17.2025092511      -14.0894241735       63.4092175029  LPSA9     15             10.0000000000
      9494       303  ARHM      C4            -16.9505193318      -11.9436502789       62.0487117432  LPSA9     15             10.0000000000
      9495       303  ARHM      H4            -18.0558763300      -11.5963864449       62.1496903561  LPSA9     15             10.0000000000
      9496       303  ARHM      O4            -16.1609537599      -11.1788694003       62.9635513464  LPSA9     15             10.0000000000
      9497       303  ARHM      HO4           -16.4841832596      -10.2905106616       62.9565205260  LPSA9     15             10.0000000000
      9498       303  ARHM      C6            -16.5929244951       -9.9956209047       60.4460959132  LPSA9     15             10.0000000000
      9499       303  ARHM      H61           -15.8972129248       -9.4011155597       61.0956562646  LPSA9     15             10.0000000000
      9500       303  ARHM      H62           -16.5543760788       -9.7675501343       59.3910198679  LPSA9     15             10.0000000000
      9501       303  ARHM      H63           -17.5465795026       -9.5603011872       60.8578185328  LPSA9     15             10.0000000000
      9502       304  BMANNA    C1            -19.9518309030      -13.7798312949       62.5145562334  LPSA9     16             11.0000000000
      9503       304  BMANNA    H1            -19.4684061343      -13.1399517036       63.3432051365  LPSA9     16             11.0000000000
      9504       304  BMANNA    C5            -20.5815503365      -15.3101541363       64.1851548173  LPSA9     16             11.0000000000
      9505       304  BMANNA    H5            -20.1671991344      -14.6763117205       64.9800677769  LPSA9     16             11.0000000000
      9506       304  BMANNA    O5            -19.8968268577      -15.1436620644       62.9158851071  LPSA9     16             11.0000000000
      9507       304  BMANNA    C2            -21.4136511267      -13.3336200031       62.2781089586  LPSA9     16             11.0000000000
      9508       304  BMANNA    H2            -21.3305092586      -12.2525097627       61.9912908466  LPSA9     16             11.0000000000
      9509       304  BMANNA    N             -22.1847278269      -14.0026953955       61.2264456342  LPSA9     16             11.0000000000
      9510       304  BMANNA    HN            -22.6448263630      -14.7886382214       61.5688724990  LPSA9     16             11.0000000000
      9511       304  BMANNA    C             -22.2237440980      -13.6327114946       59.9704010620  LPSA9     16             11.0000000000
      9512       304  BMANNA    O             -21.6436653607      -12.5910148483       59.5582221915  LPSA9     16             11.0000000000
      9513       304  BMANNA    CT            -23.0100260080      -14.5237971743       59.1331689300  LPSA9     16             11.0000000000
      9514       304  BMANNA    HT1           -23.9797400904      -14.1575590088       58.8344492748  LPSA9     16             11.0000000000
      9515       304  BMANNA    HT2           -23.1725685836      -15.5352074550       59.5043001239  LPSA9     16             11.0000000000
      9516       304  BMANNA    HT3           -22.5101483406      -14.6803111003       58.1231520073  LPSA9     16             11.0000000000
      9517       304  BMANNA    C3            -22.1036766804      -13.4729563533       63.6119771117  LPSA9     16             11.0000000000
      9518       304  BMANNA    H3            -21.5825852263      -12.8486041621       64.3839812837  LPSA9     16             11.0000000000
      9519       304  BMANNA    O3            -23.4216710107      -13.0051083882       63.6122488842  LPSA9     16             11.0000000000
      9520       304  BMANNA    HO3           -23.5498594466      -12.3599735421       64.2950500102  LPSA9     16             11.0000000000
      9521       304  BMANNA    C4            -22.0715016933      -14.9253803983       64.1045846713  LPSA9     16             11.0000000000
      9522       304  BMANNA    H4            -22.5971139747      -15.6105595333       63.4124605202  LPSA9     16             11.0000000000
      9523       304  BMANNA    O4            -22.6762787341      -15.1986760467       65.3816866120  LPSA9     16             11.0000000000
      9524       304  BMANNA    HO4           -22.9400141104      -16.1161844660       65.4353184152  LPSA9     16             11.0000000000
      9525       304  BMANNA    C6            -20.4421381816      -16.7325306837       64.7427751243  LPSA9     16             11.0000000000
      9526       304  BMANNA    H61           -20.4726569061      -16.6491824054       65.8875394407  LPSA9     16             11.0000000000
      9527       304  BMANNA    H62           -21.2806197032      -17.3628451726       64.4389269682  LPSA9     16             11.0000000000
      9528       304  BMANNA    O6            -19.2205427160      -17.3986943499       64.3660927576  LPSA9     16             11.0000000000
      9529       304  BMANNA    HO6           -19.5654584532      -18.1943238669       63.9036969990  LPSA9     16             11.0000000000
      9530       305  BGLCNA    C1            -16.1306651979      -14.3794235710       64.1715778089  LPSA9     17             11.0000000000
      9531       305  BGLCNA    H1            -15.2848356645      -13.6239439330       63.9082176002  LPSA9     17             11.0000000000
      9532       305  BGLCNA    C5            -14.3850607623      -16.0456812667       64.5563394407  LPSA9     17             11.0000000000
      9533       305  BGLCNA    H5            -13.5188972716      -15.3341547644       64.2825289487  LPSA9     17             11.0000000000
      9534       305  BGLCNA    O5            -15.5288263528      -15.6484666336       63.7849982893  LPSA9     17             11.0000000000
      9535       305  BGLCNA    C2            -16.5696101313      -14.3820945245       65.5899343931  LPSA9     17             11.0000000000
      9536       305  BGLCNA    H2            -17.3804709330      -15.1513343176       65.8249043900  LPSA9     17             11.0000000000
      9537       305  BGLCNA    N             -17.2372390624      -13.1792103353       65.8849826081  LPSA9     17             11.0000000000
      9538       305  BGLCNA    HN            -16.9337530305      -12.3290088097       65.4150135415  LPSA9     17             11.0000000000
      9539       305  BGLCNA    C             -18.1485839758      -12.9152980513       66.8043620798  LPSA9     17             11.0000000000
      9540       305  BGLCNA    O             -18.6690765241      -13.8003420508       67.4729873017  LPSA9     17             11.0000000000
      9541       305  BGLCNA    CT            -18.5107953270      -11.4887575124       66.9728872304  LPSA9     17             11.0000000000
      9542       305  BGLCNA    HT1           -19.4590642539      -11.1072395418       66.5529393721  LPSA9     17             11.0000000000
      9543       305  BGLCNA    HT2           -17.6209536365      -10.8871770652       66.7043805047  LPSA9     17             11.0000000000
      9544       305  BGLCNA    HT3           -18.6088050280      -11.2330725507       68.1408097225  LPSA9     17             11.0000000000
      9545       305  BGLCNA    C3            -15.3336177477      -14.6833252379       66.4076579941  LPSA9     17             11.0000000000
      9546       305  BGLCNA    H3            -14.6192458832      -13.8706430222       66.0441361901  LPSA9     17             11.0000000000
      9547       305  BGLCNA    O3            -15.6643869853      -14.4263338177       67.8205355914  LPSA9     17             11.0000000000
      9548       305  BGLCNA    C4            -14.8359278890      -16.0767521226       66.0496966154  LPSA9     17             11.0000000000
      9549       305  BGLCNA    H4            -15.6770570781      -16.8526536987       66.1123142204  LPSA9     17             11.0000000000
      9550       305  BGLCNA    O4            -13.8159929993      -16.5259393501       66.9186044206  LPSA9     17             11.0000000000
      9551       305  BGLCNA    HO4           -13.4433751827      -17.3766629422       66.7204061560  LPSA9     17             11.0000000000
      9552       305  BGLCNA    C6            -13.9302691501      -17.4522538989       64.1200051697  LPSA9     17             11.0000000000
      9553       305  BGLCNA    H61           -12.8592977410      -17.5109499270       64.1272946536  LPSA9     17             11.0000000000
      9554       305  BGLCNA    H62           -14.3274583939      -18.2494344464       64.8212395067  LPSA9     17             11.0000000000
      9555       305  BGLCNA    O6            -14.3625005800      -17.7813243722       62.7926115083  LPSA9     17             11.0000000000
      9556       305  BGLCNA    HO6           -14.0088404640      -17.1408519971       62.1856770532  LPSA9     17             11.0000000000
      9557       306  AGAL      C1            -14.5904413154      -13.8682826148       68.6198653987  LPSA9     18             12.0000000000
      9558       306  AGAL      H1            -13.8492050755      -14.7004226661       68.8082567594  LPSA9     18             12.0000000000
      9559       306  AGAL      C5            -14.7954824099      -11.5981120942       67.8636918791  LPSA9     18             12.0000000000
      9560       306  AGAL      H5            -15.7389605301      -11.9099948172       67.4068928888  LPSA9     18             12.0000000000
      9561       306  AGAL      O5            -13.9389339196      -12.7908017196       67.9834320655  LPSA9     18             12.0000000000
      9562       306  AGAL      C2            -15.1105835384      -13.3125704072       70.0000206359  LPSA9     18             12.0000000000
      9563       306  AGAL      H2            -14.1412133609      -12.9261843376       70.3908489884  LPSA9     18             12.0000000000
      9564       306  AGAL      O2            -15.4830809360      -14.3587684177       70.8342757016  LPSA9     18             12.0000000000
      9565       306  AGAL      C3            -16.0074650849      -12.1312363068       69.8682924558  LPSA9     18             12.0000000000
      9566       306  AGAL      H3            -16.8399085213      -12.3914743439       69.0958348126  LPSA9     18             12.0000000000
      9567       306  AGAL      O3            -16.6109097560      -11.7764183424       71.0758896640  LPSA9     18             12.0000000000
      9568       306  AGAL      HO3           -17.5498702139      -11.6148609614       70.9682873819  LPSA9     18             12.0000000000
      9569       306  AGAL      C4            -15.2830530560      -11.0570515214       69.1634745928  LPSA9     18             12.0000000000
      9570       306  AGAL      H4            -15.8834319147      -10.1536019133       68.9039691178  LPSA9     18             12.0000000000
      9571       306  AGAL      O4            -14.1825290565      -10.5669641418       69.9734134928  LPSA9     18             12.0000000000
      9572       306  AGAL      HO4           -14.5568196548       -9.9868269689       70.7236544006  LPSA9     18             12.0000000000
      9573       306  AGAL      C6            -14.2326237569      -10.7595033601       66.8042742825  LPSA9     18             12.0000000000
      9574       306  AGAL      H61           -14.2646687489      -11.3507506384       65.8877991861  LPSA9     18             12.0000000000
      9575       306  AGAL      H62           -14.9548733784       -9.9124260785       66.6499463921  LPSA9     18             12.0000000000
      9576       306  AGAL      O6            -12.9745145004      -10.3490264023       66.9803033045  LPSA9     18             12.0000000000
      9577       306  AGAL      HO6           -12.4659698371      -10.7619076802       67.6707071977  LPSA9     18             12.0000000000
      9578       307  ARHM      C1            -15.0006631884      -14.1147217182       72.1803514454  LPSA9     19             13.0000000000
      9579       307  ARHM      H1            -14.7814902994      -13.0750167631       72.3185909119  LPSA9     19             13.0000000000
      9580       307  ARHM      C5            -13.6795385399      -16.0826784986       72.2512180912  LPSA9     19             13.0000000000
      9581       307  ARHM      H5            -14.0478478216      -16.2893168682       71.2133247196  LPSA9     19             13.0000000000
      9582       307  ARHM      O5            -13.6962930105      -14.6637158652       72.4162684983  LPSA9     19             13.0000000000
      9583       307  ARHM      C2            -16.0123890316      -14.6751831151       73.1100514097  LPSA9     19             13.0000000000
      9584       307  ARHM      H2            -17.0142058821      -14.3737295210       72.9420985559  LPSA9     19             13.0000000000
      9585       307  ARHM      O2            -15.6821184674      -14.3395117858       74.4131644751  LPSA9     19             13.0000000000
      9586       307  ARHM      C3            -15.9654548253      -16.2296999681       72.9859276785  LPSA9     19             13.0000000000
      9587       307  ARHM      H3            -16.1758900146      -16.4709405367       71.9471750908  LPSA9     19             13.0000000000
      9588       307  ARHM      O3            -16.9404628157      -16.8236632640       73.7644258584  LPSA9     19             13.0000000000
      9589       307  ARHM      HO3           -16.8617403375      -16.4433498618       74.6464134549  LPSA9     19             13.0000000000
      9590       307  ARHM      C4            -14.6302414324      -16.7886000735       73.2443334127  LPSA9     19             13.0000000000
      9591       307  ARHM      H4            -14.3760137264      -16.4937818440       74.2703943704  LPSA9     19             13.0000000000
      9592       307  ARHM      O4            -14.5386060306      -18.1764547956       73.1708570575  LPSA9     19             13.0000000000
      9593       307  ARHM      HO4           -14.7229856272      -18.4081597050       72.2126258713  LPSA9     19             13.0000000000
      9594       307  ARHM      C6            -12.2439264268      -16.6356497501       72.3031700958  LPSA9     19             13.0000000000
      9595       307  ARHM      H61           -11.7787030315      -16.0602511580       71.5186681997  LPSA9     19             13.0000000000
      9596       307  ARHM      H62           -11.6908058753      -16.4737499120       73.2001761489  LPSA9     19             13.0000000000
      9597       307  ARHM      H63           -12.1814545151      -17.7060195398       72.0875448643  LPSA9     19             13.0000000000
      9598       308  ARHM      C1            -15.9851729372      -13.0136707376       74.6981797177  LPSA9     20             14.0000000000
      9599       308  ARHM      H1            -16.6266700903      -12.5259063808       73.8936196974  LPSA9     20             14.0000000000
      9600       308  ARHM      C5            -14.0543064933      -12.4385016833       75.9960310464  LPSA9     20             14.0000000000
      9601       308  ARHM      H5            -13.7563984942      -13.5015067282       75.8071112250  LPSA9     20             14.0000000000
      9602       308  ARHM      O5            -14.8862423169      -12.1184690568       74.8741575474  LPSA9     20             14.0000000000
      9603       308  ARHM      C2            -16.8655996088      -12.9470852717       75.9438944127  LPSA9     20             14.0000000000
      9604       308  ARHM      H2            -17.7075051023      -13.7429321842       75.7904987900  LPSA9     20             14.0000000000
      9605       308  ARHM      O2            -17.4060653890      -11.6335860022       76.2145535291  LPSA9     20             14.0000000000
      9606       308  ARHM      C3            -15.9926765053      -13.2849645596       77.0746584307  LPSA9     20             14.0000000000
      9607       308  ARHM      H3            -15.5805539721      -14.3551419729       76.9570890266  LPSA9     20             14.0000000000
      9608       308  ARHM      O3            -16.8498667487      -13.3194811671       78.2431898216  LPSA9     20             14.0000000000
      9609       308  ARHM      C4            -14.8388054041      -12.3495132406       77.2147849866  LPSA9     20             14.0000000000
      9610       308  ARHM      H4            -15.1372780669      -11.3240072963       77.2882629629  LPSA9     20             14.0000000000
      9611       308  ARHM      O4            -14.1213505755      -12.6696198756       78.4294019453  LPSA9     20             14.0000000000
      9612       308  ARHM      HO4           -13.2983866455      -12.3983794126       78.0714846557  LPSA9     20             14.0000000000
      9613       308  ARHM      C6            -12.8454550702      -11.5993750649       75.9818768401  LPSA9     20             14.0000000000
      9614       308  ARHM      H61           -12.9482421892      -10.4748659435       76.0487105533  LPSA9     20             14.0000000000
      9615       308  ARHM      H62           -12.1465732665      -11.9371218569       76.7492574554  LPSA9     20             14.0000000000
      9616       308  ARHM      H63           -12.2402451208      -11.6628236867       75.0059134709  LPSA9     20             14.0000000000
      9617       309  BMANNA    C1            -18.5518039547      -11.5270372098       75.4501725836  LPSA9     21             15.0000000000
      9618       309  BMANNA    H1            -18.6177880315      -12.3699483884       74.6495731600  LPSA9     21             15.0000000000
      9619       309  BMANNA    C5            -19.6316500093      -10.3948449585       73.6578092950  LPSA9     21             15.0000000000
      9620       309  BMANNA    H5            -19.7988373053      -11.3812062662       73.0422409194  LPSA9     21             15.0000000000
      9621       309  BMANNA    O5            -18.4618498585      -10.3730483039       74.5460975074  LPSA9     21             15.0000000000
      9622       309  BMANNA    C2            -19.7583851461      -11.4332687818       76.3268603500  LPSA9     21             15.0000000000
      9623       309  BMANNA    H2            -19.7009158946      -12.3803821206       76.8663433126  LPSA9     21             15.0000000000
      9624       309  BMANNA    N             -19.6729519404      -10.3132179068       77.2602735953  LPSA9     21             15.0000000000
      9625       309  BMANNA    HN            -19.4846392145       -9.4469968445       76.8630196157  LPSA9     21             15.0000000000
      9626       309  BMANNA    C             -20.1055180434      -10.3340162153       78.6142451918  LPSA9     21             15.0000000000
      9627       309  BMANNA    O             -20.7700113888      -11.2818105917       79.0340579138  LPSA9     21             15.0000000000
      9628       309  BMANNA    CT            -19.7735748078       -9.1217028855       79.5125915666  LPSA9     21             15.0000000000
      9629       309  BMANNA    HT1           -20.5182825728       -8.3187100427       79.3040814335  LPSA9     21             15.0000000000
      9630       309  BMANNA    HT2           -18.7167620593       -8.8704933444       79.3224353366  LPSA9     21             15.0000000000
      9631       309  BMANNA    HT3           -19.8774044178       -9.4048370022       80.6000991146  LPSA9     21             15.0000000000
      9632       309  BMANNA    C3            -20.9555036142      -11.4275083829       75.4428482744  LPSA9     21             15.0000000000
      9633       309  BMANNA    H3            -20.8845278766      -12.4151542396       75.0091666053  LPSA9     21             15.0000000000
      9634       309  BMANNA    O3            -22.1690502429      -11.3700144596       76.1769203835  LPSA9     21             15.0000000000
      9635       309  BMANNA    HO3           -22.1236149899      -10.6169974795       76.7354970047  LPSA9     21             15.0000000000
      9636       309  BMANNA    C4            -20.8950245006      -10.2641464201       74.4866217523  LPSA9     21             15.0000000000
      9637       309  BMANNA    H4            -20.9683686207       -9.1856409684       75.0002820064  LPSA9     21             15.0000000000
      9638       309  BMANNA    O4            -21.9889164401      -10.2334246786       73.6152290754  LPSA9     21             15.0000000000
      9639       309  BMANNA    HO4           -22.5422497791       -9.4361593654       73.7703874424  LPSA9     21             15.0000000000
      9640       309  BMANNA    C6            -19.5460599455       -9.3848998417       72.6348027846  LPSA9     21             15.0000000000
      9641       309  BMANNA    H61           -20.3240767893       -9.4831553325       71.8494922130  LPSA9     21             15.0000000000
      9642       309  BMANNA    H62           -19.8777985468       -8.3970002370       73.0558617198  LPSA9     21             15.0000000000
      9643       309  BMANNA    O6            -18.2945591575       -9.1450959594       72.0654385618  LPSA9     21             15.0000000000
      9644       309  BMANNA    HO6           -17.6804528880       -8.9734558821       72.7784055652  LPSA9     21             15.0000000000
      9645       310  BGLCNA    C1            -16.6484514988      -14.2736821309       79.2248726046  LPSA9     22             15.0000000000
      9646       310  BGLCNA    H1            -15.5931485078      -14.6727205166       79.2753119810  LPSA9     22             15.0000000000
      9647       310  BGLCNA    C5            -17.2070928447      -16.4389966902       80.1145289529  LPSA9     22             15.0000000000
      9648       310  BGLCNA    H5            -16.0600743198      -16.6702361051       80.0727605020  LPSA9     22             15.0000000000
      9649       310  BGLCNA    O5            -17.4355890645      -15.4197428571       79.0803056561  LPSA9     22             15.0000000000
      9650       310  BGLCNA    C2            -16.9537599320      -13.6458718621       80.5602818744  LPSA9     22             15.0000000000
      9651       310  BGLCNA    H2            -18.0674998195      -13.3882697614       80.4633107900  LPSA9     22             15.0000000000
      9652       310  BGLCNA    N             -16.1434538926      -12.4549179925       80.7025670875  LPSA9     22             15.0000000000
      9653       310  BGLCNA    HN            -15.2038393198      -12.5433876861       80.4501896382  LPSA9     22             15.0000000000
      9654       310  BGLCNA    C             -16.5217661906      -11.3601078820       81.3295640408  LPSA9     22             15.0000000000
      9655       310  BGLCNA    O             -17.6511604653      -11.2696250136       81.8448112003  LPSA9     22             15.0000000000
      9656       310  BGLCNA    CT            -15.5369385102      -10.2510178272       81.4359073222  LPSA9     22             15.0000000000
      9657       310  BGLCNA    HT1           -15.7417129009       -9.6837887766       80.5353412834  LPSA9     22             15.0000000000
      9658       310  BGLCNA    HT2           -14.5254718422      -10.6896013764       81.2752873926  LPSA9     22             15.0000000000
      9659       310  BGLCNA    HT3           -15.5149207624       -9.7265626178       82.3679651303  LPSA9     22             15.0000000000
      9660       310  BGLCNA    C3            -16.7536121645      -14.6351447916       81.6855161512  LPSA9     22             15.0000000000
      9661       310  BGLCNA    H3            -15.6954994137      -14.9965102444       81.6419517197  LPSA9     22             15.0000000000
      9662       310  BGLCNA    O3            -16.9406901742      -13.8983343951       82.8729300216  LPSA9     22             15.0000000000
      9663       310  BGLCNA    C4            -17.6242485434      -15.8771291532       81.4704242134  LPSA9     22             15.0000000000
      9664       310  BGLCNA    H4            -18.6195012840      -15.5219689778       81.4144045074  LPSA9     22             15.0000000000
      9665       310  BGLCNA    O4            -17.5079721887      -16.8188979680       82.5140850489  LPSA9     22             15.0000000000
      9666       310  BGLCNA    HO4           -18.3899064460      -17.1778658343       82.7130071916  LPSA9     22             15.0000000000
      9667       310  BGLCNA    C6            -18.0381710861      -17.6544686215       79.7284495560  LPSA9     22             15.0000000000
      9668       310  BGLCNA    H61           -18.1106652995      -18.2392476829       80.6924177192  LPSA9     22             15.0000000000
      9669       310  BGLCNA    H62           -19.0782812810      -17.3676918751       79.4648784538  LPSA9     22             15.0000000000
      9670       310  BGLCNA    O6            -17.4353722659      -18.5021041552       78.8100863794  LPSA9     22             15.0000000000
      9671       310  BGLCNA    HO6           -17.2369287695      -18.0052413785       78.0328486455  LPSA9     22             15.0000000000
      9672       311  AGAL      C1            -16.4237717062      -14.3727125257       84.0628261254  LPSA9     23             16.0000000000
      9673       311  AGAL      H1            -17.0374083073      -15.2027228083       84.5106287163  LPSA9     23             16.0000000000
      9674       311  AGAL      C5            -14.1366257259      -13.7837682385       83.7583018441  LPSA9     23             16.0000000000
      9675       311  AGAL      H5            -14.4836863214      -13.1843657136       82.8366412438  LPSA9     23             16.0000000000
      9676       311  AGAL      O5            -15.0647972378      -14.8169768933       83.9976212264  LPSA9     23             16.0000000000
      9677       311  AGAL      C2            -16.5101852224      -13.3103310464       85.1427633740  LPSA9     23             16.0000000000
      9678       311  AGAL      H2            -16.1006651037      -13.7800851106       86.0076373284  LPSA9     23             16.0000000000
      9679       311  AGAL      O2            -17.8256845260      -12.9597824081       85.5000844886  LPSA9     23             16.0000000000
      9680       311  AGAL      C3            -15.5780961560      -12.1699821524       84.9194901020  LPSA9     23             16.0000000000
      9681       311  AGAL      H3            -15.7897492408      -11.8152823698       83.8641570193  LPSA9     23             16.0000000000
      9682       311  AGAL      O3            -15.7714145810      -11.0561509935       85.7108298168  LPSA9     23             16.0000000000
      9683       311  AGAL      HO3           -15.8667605972      -11.4184761295       86.6206525111  LPSA9     23             16.0000000000
      9684       311  AGAL      C4            -14.1848861113      -12.7235692354       84.8901212015  LPSA9     23             16.0000000000
      9685       311  AGAL      H4            -13.4199604461      -11.9504020814       84.6506069022  LPSA9     23             16.0000000000
      9686       311  AGAL      O4            -13.6915570978      -13.2483472310       86.1132943683  LPSA9     23             16.0000000000
      9687       311  AGAL      HO4           -13.1771994507      -13.9341611002       85.8278371007  LPSA9     23             16.0000000000
      9688       311  AGAL      C6            -12.8055938180      -14.3396648582       83.3278962909  LPSA9     23             16.0000000000
      9689       311  AGAL      H61           -12.9528251809      -15.1008641343       82.6074235255  LPSA9     23             16.0000000000
      9690       311  AGAL      H62           -12.2102594491      -13.6172105162       82.7620574208  LPSA9     23             16.0000000000
      9691       311  AGAL      O6            -12.1524794089      -14.9286585126       84.3845202183  LPSA9     23             16.0000000000
      9692       311  AGAL      HO6           -11.3256509420      -15.3366124739       84.1740981585  LPSA9     23             16.0000000000
      9693       312  ARHM      C1            -18.6901833017      -13.7635488423       86.2818185944  LPSA9     24             17.0000000000
      9694       312  ARHM      H1            -18.2385593269      -14.7329617835       86.3680542693  LPSA9     24             17.0000000000
      9695       312  ARHM      C5            -20.7884647401      -12.8037401580       85.6157638072  LPSA9     24             17.0000000000
      9696       312  ARHM      H5            -20.2405790913      -12.1160512236       85.0070975499  LPSA9     24             17.0000000000
      9697       312  ARHM      O5            -20.0833636528      -14.0160064885       85.8657410059  LPSA9     24             17.0000000000
      9698       312  ARHM      C2            -18.6956915964      -13.0488909079       87.5921581840  LPSA9     24             17.0000000000
      9699       312  ARHM      H2            -17.7088220308      -12.7555077154       87.8984046741  LPSA9     24             17.0000000000
      9700       312  ARHM      O2            -19.4159657609      -13.7733136701       88.6075763533  LPSA9     24             17.0000000000
      9701       312  ARHM      C3            -19.4897629237      -11.7459708664       87.4133527752  LPSA9     24             17.0000000000
      9702       312  ARHM      H3            -18.9331061425      -11.1739669039       86.6640279609  LPSA9     24             17.0000000000
      9703       312  ARHM      O3            -19.4537016609      -10.8582184056       88.5620392964  LPSA9     24             17.0000000000
      9704       312  ARHM      HO3           -20.1863696761      -11.1497855622       89.1463757531  LPSA9     24             17.0000000000
      9705       312  ARHM      C4            -20.9120382185      -12.0150489563       86.9402325015  LPSA9     24             17.0000000000
      9706       312  ARHM      H4            -21.4028680340      -12.7375433723       87.7071552895  LPSA9     24             17.0000000000
      9707       312  ARHM      O4            -21.7275016867      -10.8678858451       86.8379508285  LPSA9     24             17.0000000000
      9708       312  ARHM      HO4           -22.6405495470      -11.0187010530       87.0219124236  LPSA9     24             17.0000000000
      9709       312  ARHM      C6            -22.1916104398      -13.0351581517       84.9175891319  LPSA9     24             17.0000000000
      9710       312  ARHM      H61           -22.4672963163      -12.1261496368       84.3853494017  LPSA9     24             17.0000000000
      9711       312  ARHM      H62           -22.0446719326      -13.8371497032       84.2649634992  LPSA9     24             17.0000000000
      9712       312  ARHM      H63           -22.9562440390      -13.4005163466       85.6811466487  LPSA9     24             17.0000000000
      9713       313  ARHM      C1            -18.6089683901      -14.8079939431       89.1588742089  LPSA9     25             18.0000000000
      9714       313  ARHM      H1            -17.8411097626      -15.0660673092       88.4722246341  LPSA9     25             18.0000000000
      9715       313  ARHM      C5            -20.4232946987      -15.9977252135       90.1670531641  LPSA9     25             18.0000000000
      9716       313  ARHM      H5            -21.1556585685      -15.2884450134       89.8870230824  LPSA9     25             18.0000000000
      9717       313  ARHM      O5            -19.3244072444      -16.0570700767       89.2315309535  LPSA9     25             18.0000000000
      9718       313  ARHM      C2            -18.0852377975      -14.3660388897       90.4685713243  LPSA9     25             18.0000000000
      9719       313  ARHM      H2            -17.6452650501      -13.3199907830       90.3413143991  LPSA9     25             18.0000000000
      9720       313  ARHM      O2            -17.0633286254      -15.3015457671       90.9328696740  LPSA9     25             18.0000000000
      9721       313  ARHM      C3            -19.2968985715      -14.3627214846       91.4562257518  LPSA9     25             18.0000000000
      9722       313  ARHM      H3            -20.0239146194      -13.6058031240       91.0689171631  LPSA9     25             18.0000000000
      9723       313  ARHM      O3            -18.7854023250      -13.9088360407       92.6920647463  LPSA9     25             18.0000000000
      9724       313  ARHM      C4            -19.9565620881      -15.6256401264       91.5960769721  LPSA9     25             18.0000000000
      9725       313  ARHM      H4            -19.2131102126      -16.4780217985       91.8876801091  LPSA9     25             18.0000000000
      9726       313  ARHM      O4            -20.9712580367      -15.4574179195       92.5862492282  LPSA9     25             18.0000000000
      9727       313  ARHM      HO4           -20.9894283544      -16.2939289315       93.0149361445  LPSA9     25             18.0000000000
      9728       313  ARHM      C6            -21.2098790617      -17.3069762204       90.2083352735  LPSA9     25             18.0000000000
      9729       313  ARHM      H61           -21.4816030240      -17.6635568183       89.1912344565  LPSA9     25             18.0000000000
      9730       313  ARHM      H62           -20.6381302957      -18.1576141648       90.6686969550  LPSA9     25             18.0000000000
      9731       313  ARHM      H63           -22.1856965516      -17.2361360871       90.8233913566  LPSA9     25             18.0000000000
      9732       314  BMANNA    C1            -15.8099846436      -15.1343362213       90.3138108879  LPSA9     26             19.0000000000
      9733       314  BMANNA    H1            -15.7062914759      -14.1145950405       89.8388342826  LPSA9     26             19.0000000000
      9734       314  BMANNA    C5            -14.2431298080      -15.7748763122       88.6312665858  LPSA9     26             19.0000000000
      9735       314  BMANNA    H5            -14.3228492160      -14.7868432345       88.1771240033  LPSA9     26             19.0000000000
      9736       314  BMANNA    O5            -15.5113548593      -16.0613330817       89.2346891933  LPSA9     26             19.0000000000
      9737       314  BMANNA    C2            -14.8016156788      -15.2586728192       91.3475147821  LPSA9     26             19.0000000000
      9738       314  BMANNA    H2            -15.0725287834      -14.4548906077       92.1081287357  LPSA9     26             19.0000000000
      9739       314  BMANNA    N             -14.8889525677      -16.6189359021       91.9238920796  LPSA9     26             19.0000000000
      9740       314  BMANNA    HN            -14.8062248600      -17.3470535042       91.3050515894  LPSA9     26             19.0000000000
      9741       314  BMANNA    C             -14.9701088182      -16.8915730247       93.1798471680  LPSA9     26             19.0000000000
      9742       314  BMANNA    O             -15.1756441803      -15.9797967181       94.0003587425  LPSA9     26             19.0000000000
      9743       314  BMANNA    CT            -14.7924001520      -18.3259921333       93.6758917343  LPSA9     26             19.0000000000
      9744       314  BMANNA    HT1           -14.9985921752      -18.9581582018       92.8666282051  LPSA9     26             19.0000000000
      9745       314  BMANNA    HT2           -15.2242966543      -18.6928602534       94.6620984389  LPSA9     26             19.0000000000
      9746       314  BMANNA    HT3           -13.7143481041      -18.4297998801       93.8484898219  LPSA9     26             19.0000000000
      9747       314  BMANNA    C3            -13.4524845412      -14.9145177801       90.7100883268  LPSA9     26             19.0000000000
      9748       314  BMANNA    H3            -13.5101174974      -13.8610464768       90.3384445889  LPSA9     26             19.0000000000
      9749       314  BMANNA    O3            -12.4514430261      -14.9168862844       91.7636866611  LPSA9     26             19.0000000000
      9750       314  BMANNA    HO3           -12.6426933041      -14.1098639499       92.2265744207  LPSA9     26             19.0000000000
      9751       314  BMANNA    C4            -13.1957598797      -15.8333521139       89.6481622736  LPSA9     26             19.0000000000
      9752       314  BMANNA    H4            -13.1332142939      -16.9311517548       89.9013799111  LPSA9     26             19.0000000000
      9753       314  BMANNA    O4            -11.9363045028      -15.5803137486       89.0416847738  LPSA9     26             19.0000000000
      9754       314  BMANNA    HO4           -11.2606254830      -16.0162657685       89.5591157304  LPSA9     26             19.0000000000
      9755       314  BMANNA    C6            -14.1804644844      -16.7154198801       87.3900617492  LPSA9     26             19.0000000000
      9756       314  BMANNA    H61           -15.1713900194      -16.8419193682       86.9191763972  LPSA9     26             19.0000000000
      9757       314  BMANNA    H62           -13.5155248096      -16.3522260976       86.6504270337  LPSA9     26             19.0000000000
      9758       314  BMANNA    O6            -13.7099902432      -18.0142730797       87.7329108337  LPSA9     26             19.0000000000
      9759       314  BMANNA    HO6           -12.8859191917      -17.9466467482       88.1688153196  LPSA9     26             19.0000000000
      9760       315  BGLCNA    C1            -19.3792929922      -12.9706344511       93.4616184899  LPSA9     27             19.0000000000
      9761       315  BGLCNA    H1            -20.4587407775      -13.0832164383       93.4392217979  LPSA9     27             19.0000000000
      9762       315  BGLCNA    C5            -19.8203127394      -10.6917460199       93.9656603721  LPSA9     27             19.0000000000
      9763       315  BGLCNA    H5            -20.9058469874      -10.9679978589       93.9564344452  LPSA9     27             19.0000000000
      9764       315  BGLCNA    O5            -19.1781959604      -11.6004056127       93.0607755266  LPSA9     27             19.0000000000
      9765       315  BGLCNA    C2            -18.8581242187      -13.2092851448       94.8806799918  LPSA9     27             19.0000000000
      9766       315  BGLCNA    H2            -17.7822065663      -12.9628678736       94.8757458582  LPSA9     27             19.0000000000
      9767       315  BGLCNA    N             -19.0249367344      -14.6024393873       95.2501113516  LPSA9     27             19.0000000000
      9768       315  BGLCNA    HN            -19.9824780485      -15.0101867641       95.0827132934  LPSA9     27             19.0000000000
      9769       315  BGLCNA    C             -17.9687661397      -15.1742100581       95.9523160909  LPSA9     27             19.0000000000
      9770       315  BGLCNA    O             -17.0277327596      -14.5443951541       96.5238801166  LPSA9     27             19.0000000000
      9771       315  BGLCNA    CT            -18.0341537130      -16.7311111693       96.0293745529  LPSA9     27             19.0000000000
      9772       315  BGLCNA    HT1           -18.8490536497      -17.1259114625       95.3635606282  LPSA9     27             19.0000000000
      9773       315  BGLCNA    HT2           -18.1112493373      -17.1288704098       97.0167906789  LPSA9     27             19.0000000000
      9774       315  BGLCNA    HT3           -16.9900772336      -17.1171083471       95.7039804309  LPSA9     27             19.0000000000
      9775       315  BGLCNA    C3            -19.5298899702      -12.2662342137       95.7540348103  LPSA9     27             19.0000000000
      9776       315  BGLCNA    H3            -20.6407803710      -12.3950814418       95.7401190096  LPSA9     27             19.0000000000
      9777       315  BGLCNA    O3            -18.9924093804      -12.6055866775       97.0775356047  LPSA9     27             19.0000000000
      9778       315  BGLCNA    C4            -19.2896504156      -10.7988363448       95.3486864533  LPSA9     27             19.0000000000
      9779       315  BGLCNA    H4            -18.1936610980      -10.6013774056       95.3090014479  LPSA9     27             19.0000000000
      9780       315  BGLCNA    O4            -19.9088502842       -9.9212704008       96.2156872787  LPSA9     27             19.0000000000
      9781       315  BGLCNA    HO4           -20.8171757859      -10.0293996231       96.0162444362  LPSA9     27             19.0000000000
      9782       315  BGLCNA    C6            -19.7218722842       -9.2838896235       93.2852949846  LPSA9     27             19.0000000000
      9783       315  BGLCNA    H61           -20.4029206560       -8.6455064435       93.8557506920  LPSA9     27             19.0000000000
      9784       315  BGLCNA    H62           -18.7128700225       -8.8466477306       93.4725180191  LPSA9     27             19.0000000000
      9785       315  BGLCNA    O6            -20.0510308865       -9.3474775677       91.9076175409  LPSA9     27             19.0000000000
      9786       315  BGLCNA    HO6           -19.9478995251       -8.4476277290       91.5273290588  LPSA9     27             19.0000000000
      9787       316  AGAL      C1            -19.6798954848      -12.1369427035       98.2622020222  LPSA9     28             20.0000000000
      9788       316  AGAL      H1            -19.5676955749      -11.0870239387       98.3007149491  LPSA9     28             20.0000000000
      9789       316  AGAL      C5            -21.4467595626      -13.7947010165       98.1710438288  LPSA9     28             20.0000000000
      9790       316  AGAL      H5            -20.7374280159      -14.4435826330       97.4646141937  LPSA9     28             20.0000000000
      9791       316  AGAL      O5            -21.0812679795      -12.3553416081       98.1147365872  LPSA9     28             20.0000000000
      9792       316  AGAL      C2            -19.2793791586      -12.7403477092       99.6197190629  LPSA9     28             20.0000000000
      9793       316  AGAL      H2            -19.9482498441      -12.2128714251      100.2965066153  LPSA9     28             20.0000000000
      9794       316  AGAL      O2            -17.9635399508      -12.4707249141      100.0788731798  LPSA9     28             20.0000000000
      9795       316  AGAL      C3            -19.6292277726      -14.1903455058       99.7396972452  LPSA9     28             20.0000000000
      9796       316  AGAL      H3            -19.1528620216      -14.7283284876       98.8607737785  LPSA9     28             20.0000000000
      9797       316  AGAL      O3            -19.1992348954      -14.9218339070      100.9043404272  LPSA9     28             20.0000000000
      9798       316  AGAL      HO3           -18.5890240833      -15.6030053829      100.5606486229  LPSA9     28             20.0000000000
      9799       316  AGAL      C4            -21.0782661743      -14.3545344136       99.5102226768  LPSA9     28             20.0000000000
      9800       316  AGAL      H4            -21.2878847994      -15.3971443029       99.4798298294  LPSA9     28             20.0000000000
      9801       316  AGAL      O4            -21.8743315477      -13.7451227621      100.4757933835  LPSA9     28             20.0000000000
      9802       316  AGAL      HO4           -22.1606532625      -14.4286496320      101.0376442747  LPSA9     28             20.0000000000
      9803       316  AGAL      C6            -22.8439741396      -14.1209574860       97.6362902244  LPSA9     28             20.0000000000
      9804       316  AGAL      H61           -22.8905903915      -13.8602113414       96.5809275898  LPSA9     28             20.0000000000
      9805       316  AGAL      H62           -23.2100111089      -15.2047519184       97.7651048223  LPSA9     28             20.0000000000
      9806       316  AGAL      O6            -23.8089086505      -13.3718860573       98.3456070822  LPSA9     28             20.0000000000
      9807       316  AGAL      HO6           -23.9219750250      -12.5105232982       97.9416813930  LPSA9     28             20.0000000000
      9808       317  ARHM      C1            -18.0191991575      -12.1166644066      101.4808913342  LPSA9     29             21.0000000000
      9809       317  ARHM      H1            -18.9070673677      -12.6073554484      101.9964955809  LPSA9     29             21.0000000000
      9810       317  ARHM      C5            -17.0114710015      -10.0220302256      101.1486206043  LPSA9     29             21.0000000000
      9811       317  ARHM      H5            -16.9310203014      -10.3515369620      100.0935446791  LPSA9     29             21.0000000000
      9812       317  ARHM      O5            -18.0912690809      -10.7336560978      101.6833506475  LPSA9     29             21.0000000000
      9813       317  ARHM      C2            -16.8456810334      -12.6883137784      102.1437305515  LPSA9     29             21.0000000000
      9814       317  ARHM      H2            -16.7216625186      -13.7250996664      101.9067628034  LPSA9     29             21.0000000000
      9815       317  ARHM      O2            -16.9154094322      -12.5630143656      103.5748524404  LPSA9     29             21.0000000000
      9816       317  ARHM      C3            -15.6363250794      -11.9606018365      101.6289418068  LPSA9     29             21.0000000000
      9817       317  ARHM      H3            -15.5111069362      -12.1940472339      100.4952263366  LPSA9     29             21.0000000000
      9818       317  ARHM      O3            -14.4967803511      -12.5444919804      102.1995749427  LPSA9     29             21.0000000000
      9819       317  ARHM      HO3           -13.8755169676      -11.8982181102      102.2092645043  LPSA9     29             21.0000000000
      9820       317  ARHM      C4            -15.6896809310      -10.5092712118      101.8247918557  LPSA9     29             21.0000000000
      9821       317  ARHM      H4            -15.7019849750      -10.2322872818      102.9338171738  LPSA9     29             21.0000000000
      9822       317  ARHM      O4            -14.5709585880       -9.7293151600      101.3452167393  LPSA9     29             21.0000000000
      9823       317  ARHM      HO4           -14.2414148389      -10.0013696682      100.4362974805  LPSA9     29             21.0000000000
      9824       317  ARHM      C6            -17.3837180697       -8.5302964826      101.2162231226  LPSA9     29             21.0000000000
      9825       317  ARHM      H61           -18.4427638490       -8.5149382619      100.7685423143  LPSA9     29             21.0000000000
      9826       317  ARHM      H62           -17.4479032656       -8.2236383568      102.3013153741  LPSA9     29             21.0000000000
      9827       317  ARHM      H63           -16.6724226738       -7.9619278336      100.6072571094  LPSA9     29             21.0000000000
      9828       318  ARHM      C1            -17.3527041844      -13.5999355557      104.3945976075  LPSA9     30             22.0000000000
      9829       318  ARHM      H1            -16.7127769175      -14.4905205019      104.2094096401  LPSA9     30             22.0000000000
      9830       318  ARHM      C5            -19.6578952483      -12.8282022831      104.5143062533  LPSA9     30             22.0000000000
      9831       318  ARHM      H5            -19.2081822124      -11.9807922265      103.8668162917  LPSA9     30             22.0000000000
      9832       318  ARHM      O5            -18.7471678506      -13.9204783667      104.2052433351  LPSA9     30             22.0000000000
      9833       318  ARHM      C2            -17.1658893259      -13.2004722372      105.8471183130  LPSA9     30             22.0000000000
      9834       318  ARHM      H2            -16.1737342437      -12.9422407969      106.0289718167  LPSA9     30             22.0000000000
      9835       318  ARHM      O2            -17.6154042628      -14.2881703224      106.5813641610  LPSA9     30             22.0000000000
      9836       318  ARHM      C3            -18.0657044545      -12.1141744494      106.2079894766  LPSA9     30             22.0000000000
      9837       318  ARHM      H3            -17.9256081188      -11.3189769982      105.5270001340  LPSA9     30             22.0000000000
      9838       318  ARHM      O3            -17.8269952685      -11.5720485766      107.5373891676  LPSA9     30             22.0000000000
      9839       318  ARHM      C4            -19.5369879570      -12.4705171444      105.9708288384  LPSA9     30             22.0000000000
      9840       318  ARHM      H4            -19.8628134981      -13.3435382988      106.5400372406  LPSA9     30             22.0000000000
      9841       318  ARHM      O4            -20.4413524302      -11.5118008869      106.2997755749  LPSA9     30             22.0000000000
      9842       318  ARHM      HO4           -20.6011085072      -10.7745803001      105.6964454668  LPSA9     30             22.0000000000
      9843       318  ARHM      C6            -21.0580894588      -13.1848424645      104.0930490251  LPSA9     30             22.0000000000
      9844       318  ARHM      H61           -21.6824873574      -12.2563203453      104.2143179997  LPSA9     30             22.0000000000
      9845       318  ARHM      H62           -21.0713377143      -13.3387343181      103.0019050467  LPSA9     30             22.0000000000
      9846       318  ARHM      H63           -21.4938580673      -14.0742929864      104.6493652223  LPSA9     30             22.0000000000
      9847       319  BMANNA    C1            -16.6358903759      -15.2334289394      106.9502319096  LPSA9     31             23.0000000000
      9848       319  BMANNA    H1            -15.6922421123      -14.6797763033      107.1550799008  LPSA9     31             23.0000000000
      9849       319  BMANNA    C5            -15.3132147552      -17.1357822444      106.2136717625  LPSA9     31             23.0000000000
      9850       319  BMANNA    H5            -14.4703309288      -16.5137722034      106.5467054000  LPSA9     31             23.0000000000
      9851       319  BMANNA    O5            -16.3749111690      -16.1965756233      105.8742289322  LPSA9     31             23.0000000000
      9852       319  BMANNA    C2            -17.0846674418      -15.9820713483      108.0830629221  LPSA9     31             23.0000000000
      9853       319  BMANNA    H2            -17.1619474022      -15.2428491700      108.9031915743  LPSA9     31             23.0000000000
      9854       319  BMANNA    N             -18.3874592780      -16.4906365388      107.8252935315  LPSA9     31             23.0000000000
      9855       319  BMANNA    HN            -18.6476326033      -16.6389076694      106.8111160773  LPSA9     31             23.0000000000
      9856       319  BMANNA    C             -19.2827164593      -16.7304731403      108.7868858964  LPSA9     31             23.0000000000
      9857       319  BMANNA    O             -19.0670583112      -16.4555683358      109.9536662434  LPSA9     31             23.0000000000
      9858       319  BMANNA    CT            -20.6067959890      -17.3572346890      108.3237946568  LPSA9     31             23.0000000000
      9859       319  BMANNA    HT1           -20.3857093949      -18.0734236600      107.5739831696  LPSA9     31             23.0000000000
      9860       319  BMANNA    HT2           -21.2371702494      -16.5503040478      107.9347099034  LPSA9     31             23.0000000000
      9861       319  BMANNA    HT3           -21.1799348288      -17.7532811894      109.1768357935  LPSA9     31             23.0000000000
      9862       319  BMANNA    C3            -16.0254185600      -16.9540473156      108.4884560283  LPSA9     31             23.0000000000
      9863       319  BMANNA    H3            -15.0187771965      -16.4311260774      108.6988550870  LPSA9     31             23.0000000000
      9864       319  BMANNA    O3            -16.3231474996      -17.5727663965      109.7404994872  LPSA9     31             23.0000000000
      9865       319  BMANNA    HO3           -16.9567098751      -16.9342263348      110.0111610137  LPSA9     31             23.0000000000
      9866       319  BMANNA    C4            -15.7950603582      -17.9455150428      107.4199857710  LPSA9     31             23.0000000000
      9867       319  BMANNA    H4            -16.7400597075      -18.5716128370      107.0572414185  LPSA9     31             23.0000000000
      9868       319  BMANNA    O4            -14.8437236363      -18.9069722928      107.8525671122  LPSA9     31             23.0000000000
      9869       319  BMANNA    HO4           -14.0212065899      -18.4900801588      108.1943429300  LPSA9     31             23.0000000000
      9870       319  BMANNA    C6            -14.9316167020      -18.0669592343      105.0512686782  LPSA9     31             23.0000000000
      9871       319  BMANNA    H61           -13.9477261520      -18.6156863729      105.3397811046  LPSA9     31             23.0000000000
      9872       319  BMANNA    H62           -15.6741593658      -18.8386878934      104.8698551944  LPSA9     31             23.0000000000
      9873       319  BMANNA    O6            -14.7294503356      -17.3389113988      103.8241467834  LPSA9     31             23.0000000000
      9874       319  BMANNA    HO6           -13.9021801797      -16.7786756995      103.8134147631  LPSA9     31             23.0000000000
      9875       320  BGLCNA    C1            -18.3739060895      -12.2637835252      108.6103969990  LPSA9     32             23.0000000000
      9876       320  BGLCNA    H1            -18.3661937511      -13.3862182924      108.4325564695  LPSA9     32             23.0000000000
      9877       320  BGLCNA    C5            -20.3481635074      -12.7224858714      109.9277617404  LPSA9     32             23.0000000000
      9878       320  BGLCNA    H5            -20.2532930918      -13.7999405099      109.5374749077  LPSA9     32             23.0000000000
      9879       320  BGLCNA    O5            -19.7151136865      -11.9020876292      108.9423333575  LPSA9     32             23.0000000000
      9880       320  BGLCNA    C2            -17.5656897547      -12.0785285548      109.8194522937  LPSA9     32             23.0000000000
      9881       320  BGLCNA    H2            -17.7452211564      -11.0690096309      110.1044894257  LPSA9     32             23.0000000000
      9882       320  BGLCNA    N             -16.1765978582      -12.2946944326      109.5956973249  LPSA9     32             23.0000000000
      9883       320  BGLCNA    HN            -16.0649236391      -13.0144288362      108.8809076996  LPSA9     32             23.0000000000
      9884       320  BGLCNA    C             -15.1081840679      -11.6266855091      110.0864625708  LPSA9     32             23.0000000000
      9885       320  BGLCNA    O             -15.2188974883      -10.7372370770      110.9304085025  LPSA9     32             23.0000000000
      9886       320  BGLCNA    CT            -13.7128585389      -12.0591391035      109.5841031968  LPSA9     32             23.0000000000
      9887       320  BGLCNA    HT1           -14.0248483019      -12.6606538396      108.6281101354  LPSA9     32             23.0000000000
      9888       320  BGLCNA    HT2           -13.1791193658      -12.7474688124      110.1898124037  LPSA9     32             23.0000000000
      9889       320  BGLCNA    HT3           -13.0633939010      -11.1915856324      109.3122359934  LPSA9     32             23.0000000000
      9890       320  BGLCNA    C3            -18.1046121800      -12.9767043887      110.8930231790  LPSA9     32             23.0000000000
      9891       320  BGLCNA    H3            -18.1445441287      -13.9352400841      110.4606187373  LPSA9     32             23.0000000000
      9892       320  BGLCNA    O3            -17.2785726307      -13.0620112665      112.0657798240  LPSA9     32             23.0000000000
      9893       320  BGLCNA    C4            -19.5171046032      -12.5401036324      111.1707572500  LPSA9     32             23.0000000000
      9894       320  BGLCNA    H4            -19.4695007466      -11.4767624790      111.5318289610  LPSA9     32             23.0000000000
      9895       320  BGLCNA    O4            -20.0961457164      -13.2885764598      112.2070236435  LPSA9     32             23.0000000000
      9896       320  BGLCNA    HO4           -19.9560395720      -12.8825869016      113.0745323218  LPSA9     32             23.0000000000
      9897       320  BGLCNA    C6            -21.8187293149      -12.3733560479      110.0229508171  LPSA9     32             23.0000000000
      9898       320  BGLCNA    H61           -22.3797393704      -13.0996739338      110.7194343748  LPSA9     32             23.0000000000
      9899       320  BGLCNA    H62           -21.9311334222      -11.3554426623      110.5717638480  LPSA9     32             23.0000000000
      9900       320  BGLCNA    O6            -22.4703233486      -12.4379022893      108.7709294272  LPSA9     32             23.0000000000
      9901       320  BGLCNA    HO6           -22.0977786983      -13.1845277387      108.2360311317  LPSA9     32             23.0000000000
      9902       321  AGAL      C1            -17.2299232401      -14.3756157825      112.6842874521  LPSA9     33             24.0000000000
      9903       321  AGAL      H1            -18.2359088868      -14.7935609905      112.5979959475  LPSA9     33             24.0000000000
      9904       321  AGAL      C5            -14.9320203937      -14.7390939454      112.2149219831  LPSA9     33             24.0000000000
      9905       321  AGAL      H5            -14.9996811868      -13.6889160460      111.8792915250  LPSA9     33             24.0000000000
      9906       321  AGAL      O5            -16.2377325465      -15.2589700544      112.0726784748  LPSA9     33             24.0000000000
      9907       321  AGAL      C2            -16.8479774697      -14.1684591220      114.1482787662  LPSA9     33             24.0000000000
      9908       321  AGAL      H2            -16.7187469185      -15.2372197170      114.5751854976  LPSA9     33             24.0000000000
      9909       321  AGAL      O2            -17.9624510366      -13.6484934805      114.8486222260  LPSA9     33             24.0000000000
      9910       321  AGAL      C3            -15.4422048665      -13.6411390786      114.2945545625  LPSA9     33             24.0000000000
      9911       321  AGAL      H3            -15.3320123710      -12.6469292719      113.7405815065  LPSA9     33             24.0000000000
      9912       321  AGAL      O3            -15.1107325253      -13.2658829890      115.5672660328  LPSA9     33             24.0000000000
      9913       321  AGAL      HO3           -15.2465796915      -13.8992159924      116.2400186851  LPSA9     33             24.0000000000
      9914       321  AGAL      C4            -14.4459036088      -14.5910537283      113.6708488317  LPSA9     33             24.0000000000
      9915       321  AGAL      H4            -13.4348201925      -14.1661311819      113.6729875792  LPSA9     33             24.0000000000
      9916       321  AGAL      O4            -14.3067882265      -15.9117378892      114.2435538900  LPSA9     33             24.0000000000
      9917       321  AGAL      HO4           -14.9584884071      -16.1000466482      114.9085525172  LPSA9     33             24.0000000000
      9918       321  AGAL      C6            -13.9457578310      -15.4246046270      111.2992528405  LPSA9     33             24.0000000000
      9919       321  AGAL      H61           -14.3196880936      -15.2065811482      110.2783408757  LPSA9     33             24.0000000000
      9920       321  AGAL      H62           -12.8966084209      -15.0763820198      111.3458027743  LPSA9     33             24.0000000000
      9921       321  AGAL      O6            -13.7976604718      -16.8051596299      111.4129476537  LPSA9     33             24.0000000000
      9922       321  AGAL      HO6           -14.4272225621      -17.3171828382      110.8444757795  LPSA9     33             24.0000000000
      9923       322  ARHM      C1            -18.2957545407      -14.3361029795      116.0109133884  LPSA9     34             25.0000000000
      9924       322  ARHM      H1            -17.4154220052      -14.5555314879      116.6389743656  LPSA9     34             25.0000000000
      9925       322  ARHM      C5            -20.1400143028      -15.5879105315      115.0727799907  LPSA9     34             25.0000000000
      9926       322  ARHM      H5            -19.8704227138      -15.1895958407      114.0209633333  LPSA9     34             25.0000000000
      9927       322  ARHM      O5            -18.9181741033      -15.6317800571      115.8926868953  LPSA9     34             25.0000000000
      9928       322  ARHM      C2            -19.1943537196      -13.3924588371      116.7601555753  LPSA9     34             25.0000000000
      9929       322  ARHM      H2            -18.8174028571      -12.3395385863      116.8710959342  LPSA9     34             25.0000000000
      9930       322  ARHM      O2            -19.5292992118      -13.8206652965      118.1592972339  LPSA9     34             25.0000000000
      9931       322  ARHM      C3            -20.5074801789      -13.2830645997      115.9988665506  LPSA9     34             25.0000000000
      9932       322  ARHM      H3            -20.3444284111      -12.9211742920      114.9724172480  LPSA9     34             25.0000000000
      9933       322  ARHM      O3            -21.5069910751      -12.4159739226      116.5878695042  LPSA9     34             25.0000000000
      9934       322  ARHM      HO3           -22.0051979349      -11.9073005983      115.9559434517  LPSA9     34             25.0000000000
      9935       322  ARHM      C4            -21.1849531417      -14.6661837627      115.7987835878  LPSA9     34             25.0000000000
      9936       322  ARHM      H4            -21.3239506134      -15.2067971875      116.7495315617  LPSA9     34             25.0000000000
      9937       322  ARHM      O4            -22.3931929071      -14.5892534536      115.1362621200  LPSA9     34             25.0000000000
      9938       322  ARHM      HO4           -23.0994773797      -14.2736319089      115.6953140327  LPSA9     34             25.0000000000
      9939       322  ARHM      C6            -20.7354845189      -17.0229177341      114.8413279703  LPSA9     34             25.0000000000
      9940       322  ARHM      H61           -21.0796510422      -17.5324652532      115.7172490283  LPSA9     34             25.0000000000
      9941       322  ARHM      H62           -21.7384086115      -16.8873520516      114.3996926230  LPSA9     34             25.0000000000
      9942       322  ARHM      H63           -20.1748849122      -17.6884012587      114.1590834060  LPSA9     34             25.0000000000
      9943       323  ARHM      C1            -18.4356733454      -14.0147974086      119.0795908573  LPSA9     35             26.0000000000
      9944       323  ARHM      H1            -17.6396877078      -13.1831825103      118.8787348947  LPSA9     35             26.0000000000
      9945       323  ARHM      C5            -18.7267153714      -16.4212084413      119.2408916176  LPSA9     35             26.0000000000
      9946       323  ARHM      H5            -19.6445113439      -16.3849839300      118.5254732223  LPSA9     35             26.0000000000
      9947       323  ARHM      O5            -17.7687678286      -15.3385770207      118.9290334222  LPSA9     35             26.0000000000
      9948       323  ARHM      C2            -18.9303541605      -13.8568795730      120.5365485050  LPSA9     35             26.0000000000
      9949       323  ARHM      H2            -19.3308203446      -12.8183058975      120.7134209997  LPSA9     35             26.0000000000
      9950       323  ARHM      O2            -17.8767521529      -14.0150954917      121.4126203716  LPSA9     35             26.0000000000
      9951       323  ARHM      C3            -19.9793548366      -14.9407228727      120.8720061906  LPSA9     35             26.0000000000
      9952       323  ARHM      H3            -20.8325529531      -14.7808930449      120.1344793452  LPSA9     35             26.0000000000
      9953       323  ARHM      O3            -20.5379163101      -14.7420666632      122.1540075829  LPSA9     35             26.0000000000
      9954       323  ARHM      HO3           -19.8609635821      -14.3783452872      122.7288731339  LPSA9     35             26.0000000000
      9955       323  ARHM      C4            -19.3169126935      -16.2771439293      120.6788917534  LPSA9     35             26.0000000000
      9956       323  ARHM      H4            -18.4145354185      -16.4391120292      121.3307119103  LPSA9     35             26.0000000000
      9957       323  ARHM      O4            -20.3204879288      -17.2744845282      120.9693790153  LPSA9     35             26.0000000000
      9958       323  ARHM      HO4           -21.1968802257      -17.0893011120      120.5581709812  LPSA9     35             26.0000000000
      9959       323  ARHM      C6            -18.0900494403      -17.8031875804      118.8642347863  LPSA9     35             26.0000000000
      9960       323  ARHM      H61           -17.9268851315      -17.8851033252      117.7433556958  LPSA9     35             26.0000000000
      9961       323  ARHM      H62           -17.1640148904      -17.7818763592      119.4176110492  LPSA9     35             26.0000000000
      9962       323  ARHM      H63           -18.8750131872      -18.5883177938      119.0633705917  LPSA9     35             26.0000000000
      9963       324  BMANNA    C1            -16.9343198463      -12.9860360819      121.4471464502  LPSA9     36             27.0000000000
      9964       324  BMANNA    H1            -17.3722731723      -12.0210601443      121.0972061898  LPSA9     36             27.0000000000
      9965       324  BMANNA    C5            -14.8898818079      -11.9088199850      120.7299884793  LPSA9     36             27.0000000000
      9966       324  BMANNA    H5            -15.5083641039      -11.0542318898      120.4610684421  LPSA9     36             27.0000000000
      9967       324  BMANNA    O5            -15.7148329329      -13.1156211019      120.6641532654  LPSA9     36             27.0000000000
      9968       324  BMANNA    C2            -16.5100753184      -12.7728244097      122.8920138725  LPSA9     36             27.0000000000
      9969       324  BMANNA    H2            -17.4324492515      -12.5822073171      123.4719477421  LPSA9     36             27.0000000000
      9970       324  BMANNA    N             -15.8903313323      -13.9791851406      123.4395449790  LPSA9     36             27.0000000000
      9971       324  BMANNA    HN            -15.2422088088      -14.4989552093      122.8746519580  LPSA9     36             27.0000000000
      9972       324  BMANNA    C             -15.9336849844      -14.2413917629      124.7737151700  LPSA9     36             27.0000000000
      9973       324  BMANNA    O             -16.5960482968      -13.6311205488      125.6190347561  LPSA9     36             27.0000000000
      9974       324  BMANNA    CT            -15.0808001975      -15.3334167773      125.3570716528  LPSA9     36             27.0000000000
      9975       324  BMANNA    HT1           -14.0958017557      -15.3437449392      124.8802869227  LPSA9     36             27.0000000000
      9976       324  BMANNA    HT2           -15.4861812248      -16.3681957360      125.1731404614  LPSA9     36             27.0000000000
      9977       324  BMANNA    HT3           -14.9637002070      -15.3240540406      126.4547536948  LPSA9     36             27.0000000000
      9978       324  BMANNA    C3            -15.6160727424      -11.5623826854      122.9763638711  LPSA9     36             27.0000000000
      9979       324  BMANNA    H3            -16.1512603629      -10.6651106357      122.6403873786  LPSA9     36             27.0000000000
      9980       324  BMANNA    O3            -15.2197184864      -11.2690844875      124.3414054450  LPSA9     36             27.0000000000
      9981       324  BMANNA    HO3           -15.5198513833      -10.4481550448      124.7171830083  LPSA9     36             27.0000000000
      9982       324  BMANNA    C4            -14.4175233241      -11.7040517322      122.1146940524  LPSA9     36             27.0000000000
      9983       324  BMANNA    H4            -13.7884952407      -12.5078062440      122.4263894750  LPSA9     36             27.0000000000
      9984       324  BMANNA    O4            -13.5646649742      -10.5656050160      122.2172873890  LPSA9     36             27.0000000000
      9985       324  BMANNA    HO4           -13.4366283211      -10.5958430100      123.1985163392  LPSA9     36             27.0000000000
      9986       324  BMANNA    C6            -13.7996213176      -12.0206446666      119.7412642597  LPSA9     36             27.0000000000
      9987       324  BMANNA    H61           -14.1919031906      -12.0911484013      118.6946701192  LPSA9     36             27.0000000000
      9988       324  BMANNA    H62           -13.3387057669      -11.0286985915      119.7045442506  LPSA9     36             27.0000000000
      9989       324  BMANNA    O6            -12.8289017841      -13.0717776200      120.0914698020  LPSA9     36             27.0000000000
      9990       324  BMANNA    HO6           -12.1693794639      -12.6412979578      120.6476247167  LPSA9     36             27.0000000000
      9991       325  ECLIPA    HB6S           23.8982734180       -2.8505440073       20.4612168218  LPSA10    1               0.0000000000
      9992       325  ECLIPA    OB6            25.4447777611       -2.5330701117       21.7140249152  LPSA10    1               0.0000000000
      9993       325  ECLIPA    CB6            24.5029758731       -2.0188261158       20.7042159014  LPSA10    1               0.0000000000
      9994       325  ECLIPA    HB6R           24.0091915674       -1.1307592937       21.0541931349  LPSA10    1               0.0000000000
      9995       325  ECLIPA    CB5            25.2419984958       -1.5024459054       19.3988764877  LPSA10    1               0.0000000000
      9996       325  ECLIPA    OB5            26.0751360513       -2.6540274183       18.9716901872  LPSA10    1               0.0000000000
      9997       325  ECLIPA    HB5            25.9166385620       -0.7116694936       19.7771798410  LPSA10    1               0.0000000000
      9998       325  ECLIPA    CB1            26.8073369084       -2.3124644337       17.7717324898  LPSA10    1               0.0000000000
      9999       325  ECLIPA    HB1            27.4912967455       -1.4449653999       17.9003641080  LPSA10    1               0.0000000000
     10000       325  ECLIPA    OA6            27.5440033828       -3.4094737165       17.3217246577  LPSA10    1               0.0000000000
     10001       325  ECLIPA    CA6            27.0585557402       -4.7452346645       17.5745106853  LPSA10    1               0.0000000000
     10002       325  ECLIPA    HA6R           25.9607803092       -4.6938746777       17.7226451425  LPSA10    1               0.0000000000
     10003       325  ECLIPA    HA6S           27.6739691713       -5.1799170597       18.4598965841  LPSA10    1               0.0000000000
     10004       325  ECLIPA    CB4            24.2446583040       -1.0354059961       18.3206521937  LPSA10    1               0.0000000000
     10005       325  ECLIPA    HB4            23.5692686251       -1.8595773327       18.0085584641  LPSA10    1               0.0000000000
     10006       325  ECLIPA    OB4            23.6870489135        0.1636639527       18.9017319965  LPSA10    1               0.0000000000
     10007       325  ECLIPA    PB             22.1335973435        0.1911385545       19.3234616795  LPSA10    1               0.0000000000
     10008       325  ECLIPA    OPB4           22.0155260878        1.1042569004       20.5579515876  LPSA10    1               0.0000000000
     10009       325  ECLIPA    OPB3           21.8930928894       -1.3003472974       19.6614545037  LPSA10    1               0.0000000000
     10010       325  ECLIPA    OPB2           21.3329321824        0.6144070494       18.0829495795  LPSA10    1               0.0000000000
     10011       325  ECLIPA    CB3            25.0754374531       -0.7054056892       17.0955893951  LPSA10    1               0.0000000000
     10012       325  ECLIPA    OB3            24.3350872604       -0.3365202900       15.9186528231  LPSA10    1               0.0000000000
     10013       325  ECLIPA    HB3            25.9205922706        0.0115516705       17.3284540628  LPSA10    1               0.0000000000
     10014       325  ECLIPA    C71            24.1135759268        0.9152903993       15.6929469039  LPSA10    1               0.0000000000
     10015       325  ECLIPA    O71            24.5895158049        1.8462743788       16.3832172580  LPSA10    1               0.0000000000
     10016       325  ECLIPA    C72            23.3360520097        1.0217354357       14.3548430386  LPSA10    1               0.0000000000
     10017       325  ECLIPA    H72R           23.9257989446        0.5389479811       13.5774555414  LPSA10    1               0.0000000000
     10018       325  ECLIPA    H72S           23.0872389092        2.1465228701       14.1464415926  LPSA10    1               0.0000000000
     10019       325  ECLIPA    CB2            25.8666983920       -1.9588456486       16.6720734084  LPSA10    1               0.0000000000
     10020       325  ECLIPA    HB2            25.0632499679       -2.8140848282       16.5298168153  LPSA10    1               0.0000000000
     10021       325  ECLIPA    NB2            26.6820236936       -1.7426648487       15.4577284722  LPSA10    1               0.0000000000
     10022       325  ECLIPA    HNB2           27.5861192187       -1.3409134943       15.5965609326  LPSA10    1               0.0000000000
     10023       325  ECLIPA    CA4            28.6980196934       -5.3787270995       15.7929312798  LPSA10    1               0.0000000000
     10024       325  ECLIPA    HA4            28.8167775899       -4.3070997798       15.4903430209  LPSA10    1               0.0000000000
     10025       325  ECLIPA    OA4            29.6118917549       -5.6887643669       16.8012065728  LPSA10    1               0.0000000000
     10026       325  ECLIPA    HOA4           29.4101538280       -5.2791913810       17.5928838569  LPSA10    1               0.0000000000
     10027       325  ECLIPA    CA5            27.3525769680       -5.5768927993       16.3547806008  LPSA10    1               0.0000000000
     10028       325  ECLIPA    HA5            27.0229620357       -6.6724932032       16.5880746347  LPSA10    1               0.0000000000
     10029       325  ECLIPA    OA5            26.4035305488       -5.1470998513       15.3689671688  LPSA10    1               0.0000000000
     10030       325  ECLIPA    CA1            26.5589777774       -5.8898508754       14.1076640156  LPSA10    1               0.0000000000
     10031       325  ECLIPA    HA1            25.9996184848       -5.2054725245       13.4118188108  LPSA10    1               0.0000000000
     10032       325  ECLIPA    OA1            25.9374362918       -7.1597896657       14.1359876212  LPSA10    1               0.0000000000
     10033       325  ECLIPA    OPA2           24.7061413129       -8.1213766766       15.9734101064  LPSA10    1               0.0000000000
     10034       325  ECLIPA    OPA3           23.7478037640       -6.0539328562       14.8300177673  LPSA10    1               0.0000000000
     10035       325  ECLIPA    OPA4           23.7417304975       -8.2099315971       13.6615320840  LPSA10    1               0.0000000000
     10036       325  ECLIPA    PA             24.4718666567       -7.3593014067       14.6765383084  LPSA10    1               0.0000000000
     10037       325  ECLIPA    CA3            28.9520659403       -6.1764875009       14.5219348229  LPSA10    1               0.0000000000
     10038       325  ECLIPA    HA3            28.9076021225       -7.3152890278       14.7377032538  LPSA10    1               0.0000000000
     10039       325  ECLIPA    OA3            30.3259734095       -5.9672176380       14.2498111976  LPSA10    1               0.0000000000
     10040       325  ECLIPA    C31            30.6329515196       -4.8604795045       13.5006246295  LPSA10    1               0.0000000000
     10041       325  ECLIPA    O31            30.5116984914       -4.7462861022       12.2941239937  LPSA10    1               0.0000000000
     10042       325  ECLIPA    C32            31.6363800753       -3.9963793813       14.2780289507  LPSA10    1               0.0000000000
     10043       325  ECLIPA    H32R           32.5886354292       -3.9798532159       13.7149713840  LPSA10    1               0.0000000000
     10044       325  ECLIPA    H32S           31.7876662825       -4.4074999673       15.2729523512  LPSA10    1               0.0000000000
     10045       325  ECLIPA    CA2            27.9309680866       -5.7180036595       13.4984733916  LPSA10    1               0.0000000000
     10046       325  ECLIPA    HA2            28.0360889064       -4.6345943919       13.3982259915  LPSA10    1               0.0000000000
     10047       325  ECLIPA    NA2            28.0331476737       -6.4236683183       12.2035087571  LPSA10    1               0.0000000000
     10048       325  ECLIPA    HNA2           28.8174691026       -6.9835974056       12.0865030408  LPSA10    1               0.0000000000
     10049       325  ECLIPA    C73            21.9921338172        0.3406962616       14.3319064372  LPSA10    1               0.0000000000
     10050       325  ECLIPA    H73R           21.4055429059        0.5323377553       15.2227416964  LPSA10    1               0.0000000000
     10051       325  ECLIPA    O73            22.2546089814       -1.0830078429       14.2644256719  LPSA10    1               0.0000000000
     10052       325  ECLIPA    C81            21.4992897600       -2.0237561297       14.8555734565  LPSA10    1               0.0000000000
     10053       325  ECLIPA    O81            20.5934535969       -1.6586975849       15.6690894779  LPSA10    1               0.0000000000
     10054       325  ECLIPA    C82            21.8478214720       -3.4387796239       14.3536111794  LPSA10    1               0.0000000000
     10055       325  ECLIPA    H82R           21.2539028028       -4.1975262996       14.8531840528  LPSA10    1               0.0000000000
     10056       325  ECLIPA    H82S           22.9202883717       -3.6827921936       14.5323473422  LPSA10    1               0.0000000000
     10057       325  ECLIPA    C83            21.6150304780       -3.5280087490       12.8301722806  LPSA10    1               0.0000000000
     10058       325  ECLIPA    H83R           22.5047599562       -3.0956434359       12.2351841548  LPSA10    1               0.0000000000
     10059       325  ECLIPA    H83S           20.8036286600       -2.8382832347       12.5911296392  LPSA10    1               0.0000000000
     10060       325  ECLIPA    C84            21.4663988419       -4.9706916821       12.3050927261  LPSA10    1               0.0000000000
     10061       325  ECLIPA    H84R           20.4681430897       -5.3352625527       12.5767117503  LPSA10    1               0.0000000000
     10062       325  ECLIPA    H84S           22.2951858044       -5.4899764598       12.7369555497  LPSA10    1               0.0000000000
     10063       325  ECLIPA    C85            21.6400249470       -5.0270970816       10.7695484051  LPSA10    1               0.0000000000
     10064       325  ECLIPA    H85R           22.4997646655       -4.3808242868       10.5503608829  LPSA10    1               0.0000000000
     10065       325  ECLIPA    H85S           20.7628668370       -4.5480657076       10.2367999955  LPSA10    1               0.0000000000
     10066       325  ECLIPA    C86            22.0120952993       -6.4620482055       10.3034592726  LPSA10    1               0.0000000000
     10067       325  ECLIPA    H86R           21.1101088441       -7.0872007551        9.9932223571  LPSA10    1               0.0000000000
     10068       325  ECLIPA    H86S           22.5019475954       -7.0181875257       11.0807540114  LPSA10    1               0.0000000000
     10069       325  ECLIPA    C87            23.0842126154       -6.4567099994        9.1601018854  LPSA10    1               0.0000000000
     10070       325  ECLIPA    H87R           23.2880376122       -7.4617078986        8.8049419625  LPSA10    1               0.0000000000
     10071       325  ECLIPA    H87S           24.0711040360       -6.0777916594        9.5406723883  LPSA10    1               0.0000000000
     10072       325  ECLIPA    C88            22.7029412605       -5.5303888645        8.0318999685  LPSA10    1               0.0000000000
     10073       325  ECLIPA    H88R           22.8532275627       -4.4464975716        8.3479828359  LPSA10    1               0.0000000000
     10074       325  ECLIPA    H88S           21.5792767414       -5.5144682264        7.9254521495  LPSA10    1               0.0000000000
     10075       325  ECLIPA    C89            23.5129226243       -5.7377039274        6.7101000712  LPSA10    1               0.0000000000
     10076       325  ECLIPA    H89R           24.4497240511       -6.3125129871        6.8746682686  LPSA10    1               0.0000000000
     10077       325  ECLIPA    H89S           23.8295344859       -4.8308191793        6.2317001698  LPSA10    1               0.0000000000
     10078       325  ECLIPA    C810           22.6045723454       -6.4675849905        5.7047246593  LPSA10    1               0.0000000000
     10079       325  ECLIPA    H810R          21.6048671891       -6.1090151954        6.0108430704  LPSA10    1               0.0000000000
     10080       325  ECLIPA    H810S          22.6895035533       -7.5265805066        5.8554647029  LPSA10    1               0.0000000000
     10081       325  ECLIPA    C811           22.8725054335       -6.1760766224        4.2179945741  LPSA10    1               0.0000000000
     10082       325  ECLIPA    H811R          22.5072294609       -6.8656843955        3.5081125689  LPSA10    1               0.0000000000
     10083       325  ECLIPA    H811S          24.0161715986       -6.0317036812        4.1819101877  LPSA10    1               0.0000000000
     10084       325  ECLIPA    C812           22.4458141280       -4.7790605647        3.7413673409  LPSA10    1               0.0000000000
     10085       325  ECLIPA    H812R          22.8585437195       -4.6518317164        2.6403157337  LPSA10    1               0.0000000000
     10086       325  ECLIPA    H812S          22.7234178768       -3.9775165485        4.4144737196  LPSA10    1               0.0000000000
     10087       325  ECLIPA    C813           20.9219573857       -4.5670079703        3.6785234959  LPSA10    1               0.0000000000
     10088       325  ECLIPA    H813R          20.5316456075       -5.3065666215        2.9398073555  LPSA10    1               0.0000000000
     10089       325  ECLIPA    H813S          20.3469920499       -4.7487238970        4.6616087352  LPSA10    1               0.0000000000
     10090       325  ECLIPA    C814           20.5190780365       -3.2105967645        3.1377409857  LPSA10    1               0.0000000000
     10091       325  ECLIPA    H814R          21.0760506227       -2.8511954221        2.1719074593  LPSA10    1               0.0000000000
     10092       325  ECLIPA    H814S          20.6754958552       -2.4520008759        3.9166242729  LPSA10    1               0.0000000000
     10093       325  ECLIPA    H814T          19.4319529084       -3.1879297142        2.8964685373  LPSA10    1               0.0000000000
     10094       325  ECLIPA    C74            21.0522184791        0.6043161327       13.1792855021  LPSA10    1               0.0000000000
     10095       325  ECLIPA    H74R           20.6945960266        1.6155527170       12.9935747315  LPSA10    1               0.0000000000
     10096       325  ECLIPA    H74S           20.1064862815       -0.0546418024       13.3086690609  LPSA10    1               0.0000000000
     10097       325  ECLIPA    C75            21.6501476173        0.0476831735       11.8151371119  LPSA10    1               0.0000000000
     10098       325  ECLIPA    H75R           20.7557844837       -0.3480030283       11.2107603889  LPSA10    1               0.0000000000
     10099       325  ECLIPA    H75S           22.3303610204       -0.8039893625       12.0082837783  LPSA10    1               0.0000000000
     10100       325  ECLIPA    C76            22.3954805196        1.0800596322       10.9251453624  LPSA10    1               0.0000000000
     10101       325  ECLIPA    H76R           23.4225764263        1.2382174038       11.3555905686  LPSA10    1               0.0000000000
     10102       325  ECLIPA    H76S           21.9157383078        2.1442839334       10.9731137071  LPSA10    1               0.0000000000
     10103       325  ECLIPA    C77            22.5534901498        0.7512564515        9.4191603634  LPSA10    1               0.0000000000
     10104       325  ECLIPA    H77R           21.5640096617        0.6655010247        9.0408775908  LPSA10    1               0.0000000000
     10105       325  ECLIPA    H77S           22.9431748822       -0.2842033801        9.2852383479  LPSA10    1               0.0000000000
     10106       325  ECLIPA    C78            23.5341160678        1.7728796301        8.8297405752  LPSA10    1               0.0000000000
     10107       325  ECLIPA    H78R           23.2088326597        2.7600531995        9.1562620580  LPSA10    1               0.0000000000
     10108       325  ECLIPA    H78S           24.5168778282        1.5226282180        9.3169442960  LPSA10    1               0.0000000000
     10109       325  ECLIPA    C79            23.8386949231        1.5345257584        7.2570767761  LPSA10    1               0.0000000000
     10110       325  ECLIPA    H79R           24.7999071546        0.9397827775        7.1763205913  LPSA10    1               0.0000000000
     10111       325  ECLIPA    H79S           24.0056780006        2.5090739627        6.7882549413  LPSA10    1               0.0000000000
     10112       325  ECLIPA    C710           22.6905643236        1.0275875115        6.3785096220  LPSA10    1               0.0000000000
     10113       325  ECLIPA    H710R          22.3825590962        0.0632409481        6.8460783027  LPSA10    1               0.0000000000
     10114       325  ECLIPA    H710S          21.9133987459        1.6862764530        6.4843026416  LPSA10    1               0.0000000000
     10115       325  ECLIPA    C711           23.0799683216        0.7656512247        4.9384125046  LPSA10    1               0.0000000000
     10116       325  ECLIPA    H711R          23.3774950684        1.7483858627        4.5670708729  LPSA10    1               0.0000000000
     10117       325  ECLIPA    H711S          23.9065945244        0.0104328029        4.9306188492  LPSA10    1               0.0000000000
     10118       325  ECLIPA    C712           21.8762741429        0.1888879832        4.2148670498  LPSA10    1               0.0000000000
     10119       325  ECLIPA    H712R          21.0773413981        0.9321103506        4.3130666899  LPSA10    1               0.0000000000
     10120       325  ECLIPA    H712S          21.5610930131       -0.6542217475        4.8522839389  LPSA10    1               0.0000000000
     10121       325  ECLIPA    C713           22.2390254552       -0.2706654987        2.7357390519  LPSA10    1               0.0000000000
     10122       325  ECLIPA    H713R          23.0085411156       -1.0793989448        2.8800411466  LPSA10    1               0.0000000000
     10123       325  ECLIPA    H713S          21.2587635551       -0.6642091526        2.2750064041  LPSA10    1               0.0000000000
     10124       325  ECLIPA    C714           22.6665695415        0.9415716896        1.8879763961  LPSA10    1               0.0000000000
     10125       325  ECLIPA    H714R          21.8397626405        1.6548920672        1.7626189762  LPSA10    1               0.0000000000
     10126       325  ECLIPA    H714S          23.6301058939        1.3565172855        2.2081901572  LPSA10    1               0.0000000000
     10127       325  ECLIPA    H714T          22.7969258995        0.4848472664        0.9249202435  LPSA10    1               0.0000000000
     10128       325  ECLIPA    C51            26.1322782751       -1.8600953481       14.2380633031  LPSA10    1               0.0000000000
     10129       325  ECLIPA    O51            25.0727299505       -2.5137687849       14.1304636378  LPSA10    1               0.0000000000
     10130       325  ECLIPA    C52            26.7775591975       -1.1114548168       13.0157035712  LPSA10    1               0.0000000000
     10131       325  ECLIPA    H52R           26.4513782513       -0.0884085735       12.8950255930  LPSA10    1               0.0000000000
     10132       325  ECLIPA    H52S           27.8236976963       -1.1520188367       13.2222025935  LPSA10    1               0.0000000000
     10133       325  ECLIPA    C53            26.5581911467       -2.0284014734       11.7526064304  LPSA10    1               0.0000000000
     10134       325  ECLIPA    H53R           26.4458647428       -3.0769012573       12.0082431084  LPSA10    1               0.0000000000
     10135       325  ECLIPA    O53            27.6193288810       -1.6952996142       10.8431816314  LPSA10    1               0.0000000000
     10136       325  ECLIPA    C61            28.4812134286       -2.6416085893       10.5090573566  LPSA10    1               0.0000000000
     10137       325  ECLIPA    O61            28.4519356341       -3.7775480679       10.8659713306  LPSA10    1               0.0000000000
     10138       325  ECLIPA    C62            29.5440516177       -2.0463470434        9.5765835255  LPSA10    1               0.0000000000
     10139       325  ECLIPA    H62R           30.2700470088       -1.5003076095       10.2152837125  LPSA10    1               0.0000000000
     10140       325  ECLIPA    H62S           29.0480372419       -1.2047578915        9.0470049452  LPSA10    1               0.0000000000
     10141       325  ECLIPA    C63            30.1954760028       -3.1306123615        8.6803029234  LPSA10    1               0.0000000000
     10142       325  ECLIPA    H63R           29.3761163119       -3.7492474373        8.2798705976  LPSA10    1               0.0000000000
     10143       325  ECLIPA    H63S           30.8849255688       -3.8325067435        9.3252199642  LPSA10    1               0.0000000000
     10144       325  ECLIPA    C64            31.0101115504       -2.6859629884        7.5279067597  LPSA10    1               0.0000000000
     10145       325  ECLIPA    H64R           31.5160647454       -3.5474356531        6.9620099216  LPSA10    1               0.0000000000
     10146       325  ECLIPA    H64S           31.8051067515       -1.9775015266        7.9657393466  LPSA10    1               0.0000000000
     10147       325  ECLIPA    C65            30.1236509064       -1.8473614406        6.5414948800  LPSA10    1               0.0000000000
     10148       325  ECLIPA    H65R           29.8093899856       -1.0331116818        7.2423230371  LPSA10    1               0.0000000000
     10149       325  ECLIPA    H65S           29.2764947919       -2.4725816054        6.1828980290  LPSA10    1               0.0000000000
     10150       325  ECLIPA    C66            30.8230342685       -1.2828471478        5.2222643966  LPSA10    1               0.0000000000
     10151       325  ECLIPA    H66R           31.6304966723       -0.6264298863        5.5395647249  LPSA10    1               0.0000000000
     10152       325  ECLIPA    H66S           29.9594659961       -0.6805218599        4.8113963288  LPSA10    1               0.0000000000
     10153       325  ECLIPA    C67            31.2856768069       -2.2582415885        4.1696839457  LPSA10    1               0.0000000000
     10154       325  ECLIPA    H67R           31.9052205949       -3.0592361593        4.5058181646  LPSA10    1               0.0000000000
     10155       325  ECLIPA    H67S           31.8256739030       -1.7073233101        3.3478820057  LPSA10    1               0.0000000000
     10156       325  ECLIPA    C68            30.1721151960       -3.0268227668        3.5077075145  LPSA10    1               0.0000000000
     10157       325  ECLIPA    H68R           29.3495498532       -2.4588142450        3.0112508411  LPSA10    1               0.0000000000
     10158       325  ECLIPA    H68S           29.8300403254       -3.6571567297        4.3087918325  LPSA10    1               0.0000000000
     10159       325  ECLIPA    C69            30.7156104535       -3.7829188585        2.2963532923  LPSA10    1               0.0000000000
     10160       325  ECLIPA    H69R           31.7897161163       -4.0503784065        2.3203210098  LPSA10    1               0.0000000000
     10161       325  ECLIPA    H69S           30.6950172999       -3.0760039228        1.4693744207  LPSA10    1               0.0000000000
     10162       325  ECLIPA    C610           29.9355706575       -4.9952890958        1.9396251084  LPSA10    1               0.0000000000
     10163       325  ECLIPA    H610R          28.8350826085       -4.7959785867        2.0603347121  LPSA10    1               0.0000000000
     10164       325  ECLIPA    H610S          30.1471105815       -5.8224453646        2.6933643884  LPSA10    1               0.0000000000
     10165       325  ECLIPA    C611           30.3019937709       -5.5820531383        0.5312153135  LPSA10    1               0.0000000000
     10166       325  ECLIPA    H611R          31.3835982401       -5.8163082106        0.5735373188  LPSA10    1               0.0000000000
     10167       325  ECLIPA    H611S          29.9289241558       -6.5808205113        0.3609598123  LPSA10    1               0.0000000000
     10168       325  ECLIPA    C612           29.8561538841       -4.6452077518       -0.5788949292  LPSA10    1               0.0000000000
     10169       325  ECLIPA    H612R          28.7302293322       -4.6410093905       -0.6060949542  LPSA10    1               0.0000000000
     10170       325  ECLIPA    H612S          30.1290374392       -3.6163884394       -0.3132441764  LPSA10    1               0.0000000000
     10171       325  ECLIPA    H612T          30.2334739094       -4.9553174879       -1.5574606966  LPSA10    1               0.0000000000
     10172       325  ECLIPA    C54            25.2205430739       -1.5277507610       11.1776054589  LPSA10    1               0.0000000000
     10173       325  ECLIPA    H54R           25.3437638543       -0.4419829096       10.8869876633  LPSA10    1               0.0000000000
     10174       325  ECLIPA    H54S           24.4419249922       -1.5259199013       11.9574517429  LPSA10    1               0.0000000000
     10175       325  ECLIPA    C55            24.6043036155       -2.2600145785        9.9916770240  LPSA10    1               0.0000000000
     10176       325  ECLIPA    H55R           23.5399859789       -2.0054040199        9.7856946516  LPSA10    1               0.0000000000
     10177       325  ECLIPA    H55S           24.6274894408       -3.3797265869       10.2436295858  LPSA10    1               0.0000000000
     10178       325  ECLIPA    C56            25.3375757920       -1.8229976488        8.7515486822  LPSA10    1               0.0000000000
     10179       325  ECLIPA    H56R           26.4360160963       -2.0866892054        8.8382497819  LPSA10    1               0.0000000000
     10180       325  ECLIPA    H56S           25.2802295528       -0.8138166936        8.4741334449  LPSA10    1               0.0000000000
     10181       325  ECLIPA    C57            25.0522712711       -2.6471308421        7.4395707935  LPSA10    1               0.0000000000
     10182       325  ECLIPA    H57R           23.9921302421       -2.6849512058        7.1827428724  LPSA10    1               0.0000000000
     10183       325  ECLIPA    H57S           25.3476701910       -3.7147548937        7.5196553379  LPSA10    1               0.0000000000
     10184       325  ECLIPA    C58            25.9159832487       -2.0909199835        6.2350750625  LPSA10    1               0.0000000000
     10185       325  ECLIPA    H58R           25.8984789198       -0.9661670619        6.2095761879  LPSA10    1               0.0000000000
     10186       325  ECLIPA    H58S           26.9908555503       -2.2540101833        6.5224540661  LPSA10    1               0.0000000000
     10187       325  ECLIPA    C59            25.4197268360       -2.6365114703        4.8667186835  LPSA10    1               0.0000000000
     10188       325  ECLIPA    H59R           24.3639441457       -2.3860594454        4.6589989540  LPSA10    1               0.0000000000
     10189       325  ECLIPA    H59S           25.5578956562       -3.7142437628        5.0825555512  LPSA10    1               0.0000000000
     10190       325  ECLIPA    C510           26.1551841804       -1.9963122462        3.6752379292  LPSA10    1               0.0000000000
     10191       325  ECLIPA    H510R          27.2897907184       -1.9129559580        3.7937959224  LPSA10    1               0.0000000000
     10192       325  ECLIPA    H510S          25.7728287638       -0.8987055646        3.4613250382  LPSA10    1               0.0000000000
     10193       325  ECLIPA    C511           25.9365090915       -2.6625636777        2.3004848829  LPSA10    1               0.0000000000
     10194       325  ECLIPA    H511R          26.6137636466       -3.5375405709        2.2679211996  LPSA10    1               0.0000000000
     10195       325  ECLIPA    H511S          24.8971587343       -3.0896496562        2.1940961976  LPSA10    1               0.0000000000
     10196       325  ECLIPA    C512           26.2715835972       -1.8141588851        1.0189424135  LPSA10    1               0.0000000000
     10197       325  ECLIPA    H512R          25.8625493114       -2.3191142287        0.0815295424  LPSA10    1               0.0000000000
     10198       325  ECLIPA    H512S          25.8234722586       -0.8172209165        1.1129704346  LPSA10    1               0.0000000000
     10199       325  ECLIPA    C513           27.8215482488       -1.7390337172        0.6457389972  LPSA10    1               0.0000000000
     10200       325  ECLIPA    H513R          28.2605650148       -2.7746938890        0.5010832175  LPSA10    1               0.0000000000
     10201       325  ECLIPA    H513S          28.3559863772       -1.3130036720        1.4088770719  LPSA10    1               0.0000000000
     10202       325  ECLIPA    C514           28.0204032677       -1.0132881968       -0.6567184026  LPSA10    1               0.0000000000
     10203       325  ECLIPA    H514R          27.5506750838       -0.0303671956       -0.6273993866  LPSA10    1               0.0000000000
     10204       325  ECLIPA    H514S          29.0955890498       -0.8264629904       -0.7024724270  LPSA10    1               0.0000000000
     10205       325  ECLIPA    H514T          27.6094905818       -1.6215751189       -1.5427815912  LPSA10    1               0.0000000000
     10206       325  ECLIPA    C33            31.2708744023       -2.4572976222       14.4880792826  LPSA10    1               0.0000000000
     10207       325  ECLIPA    H33R           32.2083384724       -1.9418453325       14.8828993596  LPSA10    1               0.0000000000
     10208       325  ECLIPA    O33            30.2619036027       -2.3082116864       15.4699768821  LPSA10    1               0.0000000000
     10209       325  ECLIPA    HO33           30.6367975761       -2.4768005446       16.2926205744  LPSA10    1               0.0000000000
     10210       325  ECLIPA    C34            30.8280317423       -1.6717861171       13.2255459338  LPSA10    1               0.0000000000
     10211       325  ECLIPA    H34R           29.9461161807       -2.1387934552       12.8010908313  LPSA10    1               0.0000000000
     10212       325  ECLIPA    H34S           31.6069508710       -1.7954080976       12.3772221142  LPSA10    1               0.0000000000
     10213       325  ECLIPA    C35            30.5227063168       -0.1760987181       13.4256256262  LPSA10    1               0.0000000000
     10214       325  ECLIPA    H35R           31.4504626846        0.3227899979       13.6963698038  LPSA10    1               0.0000000000
     10215       325  ECLIPA    H35S           29.8257423179       -0.0687650893       14.2668166019  LPSA10    1               0.0000000000
     10216       325  ECLIPA    C36            30.0581902628        0.6162821271       12.1865608177  LPSA10    1               0.0000000000
     10217       325  ECLIPA    H36R           29.4856610800       -0.2242243996       11.7430812241  LPSA10    1               0.0000000000
     10218       325  ECLIPA    H36S           30.8791314693        0.9558579916       11.4785220412  LPSA10    1               0.0000000000
     10219       325  ECLIPA    C37            29.0229133638        1.6720935559       12.5255831563  LPSA10    1               0.0000000000
     10220       325  ECLIPA    H37R           29.6680222272        2.6511256701       12.6765215637  LPSA10    1               0.0000000000
     10221       325  ECLIPA    H37S           28.5544753025        1.5024104446       13.5128993321  LPSA10    1               0.0000000000
     10222       325  ECLIPA    C38            27.9611475388        1.9742713291       11.4317274953  LPSA10    1               0.0000000000
     10223       325  ECLIPA    H38R           27.1388403717        1.2400110702       11.4067421357  LPSA10    1               0.0000000000
     10224       325  ECLIPA    H38S           27.4541675688        2.9119551192       11.7230999881  LPSA10    1               0.0000000000
     10225       325  ECLIPA    C39            28.5844788572        1.9980489166       10.0213367345  LPSA10    1               0.0000000000
     10226       325  ECLIPA    H39R           29.1325353058        1.0410550236        9.8128797222  LPSA10    1               0.0000000000
     10227       325  ECLIPA    H39S           29.2156121048        2.9246531150        9.9697980947  LPSA10    1               0.0000000000
     10228       325  ECLIPA    C310           27.6185770928        2.2308797058        8.8401719124  LPSA10    1               0.0000000000
     10229       325  ECLIPA    H310R          27.2096884850        3.2860943537        9.0626900142  LPSA10    1               0.0000000000
     10230       325  ECLIPA    H310S          26.7679389776        1.4903582436        8.8945759064  LPSA10    1               0.0000000000
     10231       325  ECLIPA    C311           28.2307258894        1.8633768102        7.5676235846  LPSA10    1               0.0000000000
     10232       325  ECLIPA    H311R          29.3087542347        2.1654740479        7.5507520616  LPSA10    1               0.0000000000
     10233       325  ECLIPA    H311S          28.1982104238        0.7659013491        7.2851462164  LPSA10    1               0.0000000000
     10234       325  ECLIPA    C312           27.5262701758        2.4576908162        6.3280121142  LPSA10    1               0.0000000000
     10235       325  ECLIPA    H312R          26.4193319212        2.5064667297        6.4861373960  LPSA10    1               0.0000000000
     10236       325  ECLIPA    H312S          27.9196810003        3.4949700517        6.1820758986  LPSA10    1               0.0000000000
     10237       325  ECLIPA    C313           27.8008718526        1.6980241690        4.9895779706  LPSA10    1               0.0000000000
     10238       325  ECLIPA    H313R          28.7969379804        1.9417165915        4.7825120466  LPSA10    1               0.0000000000
     10239       325  ECLIPA    H313S          27.7308061399        0.5869183472        5.1572698764  LPSA10    1               0.0000000000
     10240       325  ECLIPA    C314           26.9562285933        2.0570616393        3.8116661598  LPSA10    1               0.0000000000
     10241       325  ECLIPA    H314R          27.0580887193        3.1575254055        3.6067793993  LPSA10    1               0.0000000000
     10242       325  ECLIPA    H314S          27.1710098540        1.5185423528        2.8849361441  LPSA10    1               0.0000000000
     10243       325  ECLIPA    H314T          25.8457054466        1.8950646621        4.0446347774  LPSA10    1               0.0000000000
     10244       325  ECLIPA    C11            27.0978653413       -6.5069973760       11.2900808200  LPSA10    1               0.0000000000
     10245       325  ECLIPA    O11            26.0963897922       -5.8180159888       11.1394597694  LPSA10    1               0.0000000000
     10246       325  ECLIPA    C12            27.2714726197       -7.6844024273       10.2853014675  LPSA10    1               0.0000000000
     10247       325  ECLIPA    H12R           26.5309467205       -8.5003345629       10.4852637814  LPSA10    1               0.0000000000
     10248       325  ECLIPA    H12S           28.3043461234       -8.0538872127       10.5222272274  LPSA10    1               0.0000000000
     10249       325  ECLIPA    C13            27.1987006116       -7.3097402414        8.8110583416  LPSA10    1               0.0000000000
     10250       325  ECLIPA    H13R           26.3347399486       -6.5779955344        8.5839874118  LPSA10    1               0.0000000000
     10251       325  ECLIPA    O13            26.8934609300       -8.5552105063        8.1311342176  LPSA10    1               0.0000000000
     10252       325  ECLIPA    HO13           26.4802700839       -8.3772022507        7.3064966676  LPSA10    1               0.0000000000
     10253       325  ECLIPA    C14            28.5100381560       -6.6474687455        8.4581579993  LPSA10    1               0.0000000000
     10254       325  ECLIPA    H14R           29.4084684086       -7.1520178995        8.9706443184  LPSA10    1               0.0000000000
     10255       325  ECLIPA    H14S           28.4174658928       -5.5738852346        8.7243868424  LPSA10    1               0.0000000000
     10256       325  ECLIPA    C15            28.8353128456       -6.6647390595        6.9526486677  LPSA10    1               0.0000000000
     10257       325  ECLIPA    H15R           28.7557077171       -7.6607748774        6.5500123177  LPSA10    1               0.0000000000
     10258       325  ECLIPA    H15S           29.8499753251       -6.2702076938        6.8782608049  LPSA10    1               0.0000000000
     10259       325  ECLIPA    C16            27.8351470100       -5.7842925116        6.1622847334  LPSA10    1               0.0000000000
     10260       325  ECLIPA    H16R           28.0848624836       -4.6664226778        6.2733383262  LPSA10    1               0.0000000000
     10261       325  ECLIPA    H16S           26.8818980481       -5.7901222352        6.7182496574  LPSA10    1               0.0000000000
     10262       325  ECLIPA    C17            27.7580065730       -6.1434978354        4.6801229578  LPSA10    1               0.0000000000
     10263       325  ECLIPA    H17R           28.8556562985       -6.2598112080        4.4246758429  LPSA10    1               0.0000000000
     10264       325  ECLIPA    H17S           27.3649972944       -5.3765195554        4.0046542873  LPSA10    1               0.0000000000
     10265       325  ECLIPA    C18            26.9952738868       -7.4197165120        4.4504458171  LPSA10    1               0.0000000000
     10266       325  ECLIPA    H18R           27.5017509173       -8.0957236382        5.0865821920  LPSA10    1               0.0000000000
     10267       325  ECLIPA    H18S           25.9291713873       -7.2480920385        4.7749867078  LPSA10    1               0.0000000000
     10268       325  ECLIPA    C19            27.0336226481       -7.8647267540        3.0097966450  LPSA10    1               0.0000000000
     10269       325  ECLIPA    H19R           26.5810269290       -8.8426093453        2.9245509529  LPSA10    1               0.0000000000
     10270       325  ECLIPA    H19S           28.1056131185       -7.8974640417        2.6238151240  LPSA10    1               0.0000000000
     10271       325  ECLIPA    C110           26.1885070534       -6.9352455866        2.1045801788  LPSA10    1               0.0000000000
     10272       325  ECLIPA    H110R          25.1677857370       -6.7473327109        2.4416701971  LPSA10    1               0.0000000000
     10273       325  ECLIPA    H110S          26.8062328502       -6.0118679346        2.1583327743  LPSA10    1               0.0000000000
     10274       325  ECLIPA    C111           26.2040320559       -7.4729146817        0.7563571155  LPSA10    1               0.0000000000
     10275       325  ECLIPA    H111R          27.2045410761       -7.8463389867        0.3999767799  LPSA10    1               0.0000000000
     10276       325  ECLIPA    H111S          25.6088250797       -8.3478429615        0.7977177860  LPSA10    1               0.0000000000
     10277       325  ECLIPA    C112           25.5821135644       -6.5391055758       -0.2937360943  LPSA10    1               0.0000000000
     10278       325  ECLIPA    H112R          24.5867338369       -6.3791420652        0.1973446929  LPSA10    1               0.0000000000
     10279       325  ECLIPA    H112S          25.9940413638       -5.5296436987       -0.2177998937  LPSA10    1               0.0000000000
     10280       325  ECLIPA    C113           25.7849908952       -6.9981906371       -1.7468031795  LPSA10    1               0.0000000000
     10281       325  ECLIPA    H113R          26.8729158796       -6.9339743541       -1.9802017524  LPSA10    1               0.0000000000
     10282       325  ECLIPA    H113S          25.5625929284       -8.0647232498       -1.8531093719  LPSA10    1               0.0000000000
     10283       325  ECLIPA    C114           24.9412063775       -6.3828741752       -2.8344928043  LPSA10    1               0.0000000000
     10284       325  ECLIPA    H114R          23.8570035145       -6.3330788311       -2.7829422503  LPSA10    1               0.0000000000
     10285       325  ECLIPA    H114S          25.2595990503       -5.3149347928       -2.9951089580  LPSA10    1               0.0000000000
     10286       325  ECLIPA    H114T          25.0008715056       -7.0177912535       -3.7399523103  LPSA10    1               0.0000000000
     10287       326  AKDO      C1             26.2665372768       -0.4648444830       22.4410509549  LPSA10    2               0.0000000000
     10288       326  AKDO      O11            25.5356167624        0.5832450297       22.4913720772  LPSA10    2               0.0000000000
     10289       326  AKDO      O12            27.4688521471       -0.6046649183       22.0800765534  LPSA10    2               0.0000000000
     10290       326  AKDO      C2             25.5751570690       -1.7555880899       22.8913181237  LPSA10    2               0.0000000000
     10291       326  AKDO      C6             23.5453735102       -2.5619416986       23.8039205188  LPSA10    2               0.0000000000
     10292       326  AKDO      H6             23.3860726738       -3.1651772211       22.9487387861  LPSA10    2               0.0000000000
     10293       326  AKDO      O6             24.3531236327       -1.3753079953       23.4267274814  LPSA10    2               0.0000000000
     10294       326  AKDO      C3             26.3089532368       -2.4694801643       23.9587385105  LPSA10    2               0.0000000000
     10295       326  AKDO      H31            26.5713378966       -1.8823347868       24.7868435866  LPSA10    2               0.0000000000
     10296       326  AKDO      H32            27.2728326795       -2.9164923845       23.4151264596  LPSA10    2               0.0000000000
     10297       326  AKDO      C4             25.5294487604       -3.7106519381       24.3842593775  LPSA10    2               0.0000000000
     10298       326  AKDO      H4             25.2804465958       -4.3512922455       23.5563617270  LPSA10    2               0.0000000000
     10299       326  AKDO      O4             26.2901956032       -4.4416059940       25.3355834555  LPSA10    2               0.0000000000
     10300       326  AKDO      C5             24.2090641499       -3.3983688771       24.9292437177  LPSA10    2               0.0000000000
     10301       326  AKDO      H5             23.5855253714       -4.3274863257       25.0107888161  LPSA10    2               0.0000000000
     10302       326  AKDO      O5             24.4044875504       -2.6587506934       26.2083878813  LPSA10    2               0.0000000000
     10303       326  AKDO      C7             22.0461185967       -2.1760857131       24.1981149098  LPSA10    2               0.0000000000
     10304       326  AKDO      H7             22.0838005961       -1.5594643152       25.0939202098  LPSA10    2               0.0000000000
     10305       326  AKDO      O7             21.2077691371       -3.3521187045       24.3482682347  LPSA10    2               0.0000000000
     10306       326  AKDO      HO7            21.0186037762       -3.6343836996       23.4945166536  LPSA10    2               0.0000000000
     10307       326  AKDO      C8             21.4828843947       -1.3576018515       22.9864433882  LPSA10    2               0.0000000000
     10308       326  AKDO      H81            22.1594204048       -0.4724685509       22.9153150275  LPSA10    2               0.0000000000
     10309       326  AKDO      H82            21.5136948254       -2.0617406029       22.0745354517  LPSA10    2               0.0000000000
     10310       326  AKDO      O8             20.1134844447       -0.9037553221       23.3537996748  LPSA10    2               0.0000000000
     10311       326  AKDO      HO8            19.9569892019       -0.0260688756       22.9179804014  LPSA10    2               0.0000000000
     10312       327  AKDO      C1             26.8268870373       -6.1694033522       23.8027969005  LPSA10    3               1.0000000000
     10313       327  AKDO      O11            27.2454115495       -5.8581385503       22.6471489042  LPSA10    3               1.0000000000
     10314       327  AKDO      O12            26.0485438671       -7.1169359729       24.0656860145  LPSA10    3               1.0000000000
     10315       327  AKDO      C2             27.2963840864       -5.3801351696       25.0166033796  LPSA10    3               1.0000000000
     10316       327  AKDO      C6             28.9679918826       -3.8247414190       25.7688829792  LPSA10    3               1.0000000000
     10317       327  AKDO      H6             28.1810215299       -3.0298588326       25.9810553331  LPSA10    3               1.0000000000
     10318       327  AKDO      O6             28.5378455068       -4.6552590685       24.7076657818  LPSA10    3               1.0000000000
     10319       327  AKDO      C3             27.5129016549       -6.1965834672       26.3187707743  LPSA10    3               1.0000000000
     10320       327  AKDO      H31            28.3496326723       -6.9925443953       26.1504935106  LPSA10    3               1.0000000000
     10321       327  AKDO      H32            26.6021527112       -6.7466997656       26.5929217108  LPSA10    3               1.0000000000
     10322       327  AKDO      C4             27.9440069604       -5.2429463901       27.4036122013  LPSA10    3               1.0000000000
     10323       327  AKDO      H4             27.2311468855       -4.4126764285       27.4051754129  LPSA10    3               1.0000000000
     10324       327  AKDO      O4             27.9938393232       -5.7668342728       28.7388570077  LPSA10    3               1.0000000000
     10325       327  AKDO      HO4            27.4513049015       -5.3124103024       29.3717785514  LPSA10    3               1.0000000000
     10326       327  AKDO      C5             29.1576384789       -4.6167776723       27.0369167275  LPSA10    3               1.0000000000
     10327       327  AKDO      H5             29.5159174907       -3.9695745893       27.9236884022  LPSA10    3               1.0000000000
     10328       327  AKDO      O5             30.1974743490       -5.5951671596       26.8495261943  LPSA10    3               1.0000000000
     10329       327  AKDO      HO5            29.9447683237       -6.2061978603       26.1887877298  LPSA10    3               1.0000000000
     10330       327  AKDO      C7             30.2438214546       -3.1535252706       25.3258859863  LPSA10    3               1.0000000000
     10331       327  AKDO      H7             31.0619449955       -3.9072871454       25.1324849511  LPSA10    3               1.0000000000
     10332       327  AKDO      O7             30.6607371102       -2.2269360152       26.3661029982  LPSA10    3               1.0000000000
     10333       327  AKDO      HO7            31.5694054029       -1.9182671179       26.1647669547  LPSA10    3               1.0000000000
     10334       327  AKDO      C8             29.9160140763       -2.3253847352       24.1539635864  LPSA10    3               1.0000000000
     10335       327  AKDO      H81            29.5210659473       -2.9500001986       23.3419478721  LPSA10    3               1.0000000000
     10336       327  AKDO      H82            29.1961975961       -1.5034765948       24.2853144505  LPSA10    3               1.0000000000
     10337       327  AKDO      O8             31.0862844485       -1.7183706939       23.6541307456  LPSA10    3               1.0000000000
     10338       327  AKDO      HO8            31.4542375914       -2.5252058588       23.2473452835  LPSA10    3               1.0000000000
     10339       328  AHEP      C1             23.4994727267       -2.8726323269       27.2793229502  LPSA10    4               2.0000000000
     10340       328  AHEP      H1             22.7049657505       -2.1775633222       26.8517192453  LPSA10    4               2.0000000000
     10341       328  AHEP      C5             23.7033483805       -5.1713742134       28.0185271385  LPSA10    4               2.0000000000
     10342       328  AHEP      H5             24.7628115625       -5.0633250241       27.5619054335  LPSA10    4               2.0000000000
     10343       328  AHEP      O5             22.9065280535       -4.1683835788       27.3942805697  LPSA10    4               2.0000000000
     10344       328  AHEP      C2             23.7466579798       -2.3811171662       28.6827861277  LPSA10    4               2.0000000000
     10345       328  AHEP      H2             24.2449657621       -1.4073079662       28.7442425996  LPSA10    4               2.0000000000
     10346       328  AHEP      O2             22.5398123270       -2.2397009870       29.3407203943  LPSA10    4               2.0000000000
     10347       328  AHEP      HO2            22.5522820320       -1.4519980383       29.8507927467  LPSA10    4               2.0000000000
     10348       328  AHEP      C3             24.6043330097       -3.3798992746       29.4857672188  LPSA10    4               2.0000000000
     10349       328  AHEP      H3             25.6714802904       -3.4163655624       29.2269906369  LPSA10    4               2.0000000000
     10350       328  AHEP      O3             24.6576891793       -2.9997015272       30.7882097304  LPSA10    4               2.0000000000
     10351       328  AHEP      C4             23.9472559947       -4.7359190677       29.4546205599  LPSA10    4               2.0000000000
     10352       328  AHEP      H4             22.9616802259       -4.8092306659       29.9788637739  LPSA10    4               2.0000000000
     10353       328  AHEP      O4             24.8172046712       -5.6749461729       30.0145912217  LPSA10    4               2.0000000000
     10354       328  AHEP      P4             24.5474913557       -6.3744471557       31.4978499249  LPSA10    4               2.0000000000
     10355       328  AHEP      OP42           25.8470206071       -6.6213002565       32.1560374192  LPSA10    4               2.0000000000
     10356       328  AHEP      OP43           23.8761907254       -7.6356792563       31.0397938518  LPSA10    4               2.0000000000
     10357       328  AHEP      OP44           23.5384420554       -5.5035762752       32.3098937101  LPSA10    4               2.0000000000
     10358       328  AHEP      C6             23.1064725567       -6.6078344215       27.7982482844  LPSA10    4               2.0000000000
     10359       328  AHEP      H6             23.9331248506       -7.3273523370       28.0833143566  LPSA10    4               2.0000000000
     10360       328  AHEP      O6             22.0158067326       -6.7609540647       28.7103505027  LPSA10    4               2.0000000000
     10361       328  AHEP      HO6            22.0736796299       -7.6128249217       29.2203787365  LPSA10    4               2.0000000000
     10362       328  AHEP      C7             22.6957887490       -6.9036311834       26.3054198206  LPSA10    4               2.0000000000
     10363       328  AHEP      H71            22.4285803202       -8.0026133765       26.1576126064  LPSA10    4               2.0000000000
     10364       328  AHEP      H72            23.4873637188       -6.5174999227       25.6323487339  LPSA10    4               2.0000000000
     10365       328  AHEP      O7             21.4977386355       -6.2069744434       25.9755159574  LPSA10    4               2.0000000000
     10366       328  AHEP      HO7            20.7531134015       -6.7213408772       26.3256794122  LPSA10    4               2.0000000000
     10367       329  AHEP      C1             25.9147003773       -2.6950104407       31.4342177374  LPSA10    5               3.0000000000
     10368       329  AHEP      H1             26.7595757609       -3.2758269044       30.9794447437  LPSA10    5               3.0000000000
     10369       329  AHEP      C5             25.2820081824       -0.4492914251       31.9165413065  LPSA10    5               3.0000000000
     10370       329  AHEP      H5             24.2375658265       -0.7908124284       31.6031509785  LPSA10    5               3.0000000000
     10371       329  AHEP      O5             26.2379988927       -1.2987007208       31.3013865768  LPSA10    5               3.0000000000
     10372       329  AHEP      C2             25.9361354752       -2.9894017406       32.9718957084  LPSA10    5               3.0000000000
     10373       329  AHEP      H2             25.6149165270       -4.0739240812       33.0921707216  LPSA10    5               3.0000000000
     10374       329  AHEP      O2             27.2537158626       -2.8480839341       33.4691025827  LPSA10    5               3.0000000000
     10375       329  AHEP      HO2            27.6336224784       -3.7039750143       33.6403503244  LPSA10    5               3.0000000000
     10376       329  AHEP      C3             24.8904896518       -2.1199401749       33.7004304811  LPSA10    5               3.0000000000
     10377       329  AHEP      H3             23.8808864589       -2.3421275478       33.3375632548  LPSA10    5               3.0000000000
     10378       329  AHEP      O3             24.8240051966       -2.2751396929       35.1462238331  LPSA10    5               3.0000000000
     10379       329  AHEP      C4             25.2673437801       -0.6997635612       33.4524658705  LPSA10    5               3.0000000000
     10380       329  AHEP      H4             26.2959936594       -0.4631975699       33.8188816395  LPSA10    5               3.0000000000
     10381       329  AHEP      O4             24.2628057158        0.1515214919       34.0881196202  LPSA10    5               3.0000000000
     10382       329  AHEP      P4             24.6639181651        1.1303933893       35.2810123301  LPSA10    5               3.0000000000
     10383       329  AHEP      OP42           23.3615989828        1.6732842190       35.8202965042  LPSA10    5               3.0000000000
     10384       329  AHEP      OP43           25.5219131332        2.2358925646       34.6107506294  LPSA10    5               3.0000000000
     10385       329  AHEP      OP44           25.4983517149        0.3252462075       36.2417033353  LPSA10    5               3.0000000000
     10386       329  AHEP      C6             25.4559875311        1.0324638853       31.5493607386  LPSA10    5               3.0000000000
     10387       329  AHEP      H6             24.6394894387        1.6540734181       31.9533288164  LPSA10    5               3.0000000000
     10388       329  AHEP      O6             26.6998260436        1.5180833281       32.0428602265  LPSA10    5               3.0000000000
     10389       329  AHEP      HO6            27.5102117641        1.2445156168       31.5367188277  LPSA10    5               3.0000000000
     10390       329  AHEP      C7             25.2613315933        1.2181277420       30.0822725317  LPSA10    5               3.0000000000
     10391       329  AHEP      H71            24.8021206134        2.2174104984       29.9169108581  LPSA10    5               3.0000000000
     10392       329  AHEP      H72            24.5879819545        0.4733622593       29.6179339851  LPSA10    5               3.0000000000
     10393       329  AHEP      O7             26.5781727039        1.2882856163       29.4957736452  LPSA10    5               3.0000000000
     10394       330  AHEP      C1             26.9473350295        0.1403154883       28.7926622005  LPSA10    6               4.0000000000
     10395       330  AHEP      H1             26.2392981685       -0.7243281263       29.0422981953  LPSA10    6               4.0000000000
     10396       330  AHEP      C5             27.7483030066        1.3903784315       26.9237617191  LPSA10    6               4.0000000000
     10397       330  AHEP      H5             27.5056167295        2.3053667077       27.4818042043  LPSA10    6               4.0000000000
     10398       330  AHEP      O5             26.8966154686        0.3171128434       27.3547530115  LPSA10    6               4.0000000000
     10399       330  AHEP      C2             28.3198121152       -0.2805568467       29.2397872647  LPSA10    6               4.0000000000
     10400       330  AHEP      H2             28.2582135914       -0.4807179597       30.3523091474  LPSA10    6               4.0000000000
     10401       330  AHEP      O2             28.6929302327       -1.5333904657       28.7267108980  LPSA10    6               4.0000000000
     10402       330  AHEP      HO2            28.6559512167       -2.1070594672       29.4669064354  LPSA10    6               4.0000000000
     10403       330  AHEP      C3             29.3114949804        0.8430777969       28.8468391403  LPSA10    6               4.0000000000
     10404       330  AHEP      H3             29.0341123261        1.7291946656       29.4311808254  LPSA10    6               4.0000000000
     10405       330  AHEP      O3             30.7435553985        0.5439054393       29.2225362108  LPSA10    6               4.0000000000
     10406       330  AHEP      HO3            31.0669126434        0.9388609484       29.9865592523  LPSA10    6               4.0000000000
     10407       330  AHEP      C4             29.1909847016        1.0216407915       27.2761740859  LPSA10    6               4.0000000000
     10408       330  AHEP      H4             29.6093307237        0.1491060232       26.7944950683  LPSA10    6               4.0000000000
     10409       330  AHEP      O4             30.0502905185        2.0656236768       26.7938835778  LPSA10    6               4.0000000000
     10410       330  AHEP      HO4            29.5855374988        2.9131231223       27.1589530594  LPSA10    6               4.0000000000
     10411       330  AHEP      C6             27.5357434269        1.7777498168       25.4906533340  LPSA10    6               4.0000000000
     10412       330  AHEP      H6             28.1600845459        2.6523264331       25.3442628137  LPSA10    6               4.0000000000
     10413       330  AHEP      O6             28.1165057117        0.7894308402       24.6375675438  LPSA10    6               4.0000000000
     10414       330  AHEP      HO6            27.4770877690        0.4629208185       23.9977784313  LPSA10    6               4.0000000000
     10415       330  AHEP      C7             26.1256572548        2.1875319351       25.1799756221  LPSA10    6               4.0000000000
     10416       330  AHEP      H71            26.1231256022        2.6148593661       24.1408078076  LPSA10    6               4.0000000000
     10417       330  AHEP      H72            25.8634040183        2.9595802578       25.9252229174  LPSA10    6               4.0000000000
     10418       330  AHEP      O7             25.1990164662        1.1445370837       25.2517430265  LPSA10    6               4.0000000000
     10419       330  AHEP      HO7            24.9644479698        1.0978058762       26.2011285002  LPSA10    6               4.0000000000
     10420       331  AGLC      C1             23.9735981991       -3.2939919250       35.6520976122  LPSA10    7               4.0000000000
     10421       331  AGLC      H1             22.9289729251       -3.1598101017       35.2047739589  LPSA10    7               4.0000000000
     10422       331  AGLC      C5             25.6498187430       -4.8924377227       36.0987679218  LPSA10    7               4.0000000000
     10423       331  AGLC      H5             26.4439748158       -4.1800858857       35.8327124756  LPSA10    7               4.0000000000
     10424       331  AGLC      O5             24.4682550308       -4.5841730606       35.4366254460  LPSA10    7               4.0000000000
     10425       331  AGLC      C2             23.7971709284       -3.1732659293       37.1582745954  LPSA10    7               4.0000000000
     10426       331  AGLC      H2             23.1594769594       -4.0700575408       37.4887389927  LPSA10    7               4.0000000000
     10427       331  AGLC      O2             22.9419689430       -2.0659030599       37.5024056006  LPSA10    7               4.0000000000
     10428       331  AGLC      HO2            23.5315585470       -1.3285097613       37.6430208865  LPSA10    7               4.0000000000
     10429       331  AGLC      C3             24.9569750498       -3.4237970156       37.9903802326  LPSA10    7               4.0000000000
     10430       331  AGLC      H3             25.6758989731       -2.6675216821       37.6727250444  LPSA10    7               4.0000000000
     10431       331  AGLC      O3             24.8203950394       -3.1822470241       39.4204481292  LPSA10    7               4.0000000000
     10432       331  AGLC      C4             25.3816239106       -4.8073882357       37.5928595998  LPSA10    7               4.0000000000
     10433       331  AGLC      H4             24.6102382707       -5.5817911505       37.9560286200  LPSA10    7               4.0000000000
     10434       331  AGLC      O4             26.6661471275       -4.9972346786       38.2243117391  LPSA10    7               4.0000000000
     10435       331  AGLC      HO4            26.7738843037       -5.8386463070       38.6132003238  LPSA10    7               4.0000000000
     10436       331  AGLC      C6             26.2462857011       -6.2019028280       35.5245160098  LPSA10    7               4.0000000000
     10437       331  AGLC      H61            26.2913524862       -6.0680023786       34.4135318240  LPSA10    7               4.0000000000
     10438       331  AGLC      H62            27.2550450231       -6.5114824634       35.8722646349  LPSA10    7               4.0000000000
     10439       331  AGLC      O6             25.2450925030       -7.2518146554       35.6892983147  LPSA10    7               4.0000000000
     10440       331  AGLC      HO6            25.5858922039       -7.6618329143       36.4386090630  LPSA10    7               4.0000000000
     10441       332  AGLC      C1             25.5693768717       -2.1380349690       39.9328324507  LPSA10    8               5.0000000000
     10442       332  AGLC      H1             26.6152047804       -2.2182807486       39.5884769495  LPSA10    8               5.0000000000
     10443       332  AGLC      C5             23.7728715599       -0.4478461201       40.2153373402  LPSA10    8               5.0000000000
     10444       332  AGLC      H5             23.0552637993       -1.1874546944       39.8400606936  LPSA10    8               5.0000000000
     10445       332  AGLC      O5             25.0515262819       -0.7999271166       39.6195505863  LPSA10    8               5.0000000000
     10446       332  AGLC      C2             25.6436651226       -2.2157724255       41.4170311384  LPSA10    8               5.0000000000
     10447       332  AGLC      H2             26.4031671597       -1.4364733357       41.6529594578  LPSA10    8               5.0000000000
     10448       332  AGLC      O2             26.2661242046       -3.3819191210       41.9438754185  LPSA10    8               5.0000000000
     10449       332  AGLC      C3             24.3729186299       -1.9230133958       42.1297388169  LPSA10    8               5.0000000000
     10450       332  AGLC      H3             23.7275206851       -2.7253376895       41.6567950186  LPSA10    8               5.0000000000
     10451       332  AGLC      O3             24.5344917831       -2.1362145700       43.5370978028  LPSA10    8               5.0000000000
     10452       332  AGLC      C4             23.9693103834       -0.5736749560       41.7603093222  LPSA10    8               5.0000000000
     10453       332  AGLC      H4             24.7212018642        0.1407815237       42.0401368658  LPSA10    8               5.0000000000
     10454       332  AGLC      O4             22.7619096600       -0.2175210680       42.3914819843  LPSA10    8               5.0000000000
     10455       332  AGLC      HO4            22.2016897331       -0.9545512431       42.3800652601  LPSA10    8               5.0000000000
     10456       332  AGLC      C6             23.1348880466        0.8773163679       39.7357334439  LPSA10    8               5.0000000000
     10457       332  AGLC      H61            23.1731044953        1.0260629751       38.6468043611  LPSA10    8               5.0000000000
     10458       332  AGLC      H62            22.1108242064        1.0180007987       40.0276014644  LPSA10    8               5.0000000000
     10459       332  AGLC      O6             23.7011991548        2.0212025104       40.3040784562  LPSA10    8               5.0000000000
     10460       332  AGLC      HO6            23.3790811429        2.1850221915       41.2121845210  LPSA10    8               5.0000000000
     10461       333  AGAL      C1             27.5135896050       -3.7753931596       41.4573847493  LPSA10    9               6.0000000000
     10462       333  AGAL      H1             27.5238833075       -3.7284273251       40.3420235153  LPSA10    9               6.0000000000
     10463       333  AGAL      C5             28.8903180273       -3.0964304339       43.2125447641  LPSA10    9               6.0000000000
     10464       333  AGAL      H5             27.8696221997       -2.9473746327       43.7424973645  LPSA10    9               6.0000000000
     10465       333  AGAL      O5             28.6827051696       -2.9895317762       41.8451689838  LPSA10    9               6.0000000000
     10466       333  AGAL      C2             27.7336552445       -5.2151430424       41.8393925249  LPSA10    9               6.0000000000
     10467       333  AGAL      H2             28.6654262020       -5.5564337227       41.4115621152  LPSA10    9               6.0000000000
     10468       333  AGAL      O2             26.8225564795       -6.1001097166       41.1608705954  LPSA10    9               6.0000000000
     10469       333  AGAL      C3             27.9646781575       -5.3730335529       43.3264191845  LPSA10    9               6.0000000000
     10470       333  AGAL      H3             27.0079703521       -5.0785791044       43.9424563891  LPSA10    9               6.0000000000
     10471       333  AGAL      O3             28.0784877661       -6.6984751673       43.7491515633  LPSA10    9               6.0000000000
     10472       333  AGAL      HO3            27.5091728719       -7.2132938620       43.1585960960  LPSA10    9               6.0000000000
     10473       333  AGAL      C4             29.1438933838       -4.5465799616       43.6505755014  LPSA10    9               6.0000000000
     10474       333  AGAL      H4             29.3559245726       -4.4970655491       44.7734818408  LPSA10    9               6.0000000000
     10475       333  AGAL      O4             30.3344400675       -4.9536506214       43.0499075873  LPSA10    9               6.0000000000
     10476       333  AGAL      HO4            31.0465904909       -4.7121328528       43.6622427513  LPSA10    9               6.0000000000
     10477       333  AGAL      C6             29.7413544751       -1.9885768018       43.8349081587  LPSA10    9               6.0000000000
     10478       333  AGAL      H61            29.3461895838       -0.9580130054       43.6417203355  LPSA10    9               6.0000000000
     10479       333  AGAL      H62            29.8095709518       -2.0221585173       44.9292747136  LPSA10    9               6.0000000000
     10480       333  AGAL      O6             31.0676277820       -2.0619307361       43.4062227539  LPSA10    9               6.0000000000
     10481       333  AGAL      HO6            31.1708841923       -1.4059273603       42.6923548993  LPSA10    9               6.0000000000
     10482       334  AGAL      C1             26.0183395375       -7.1478899795       41.7517281777  LPSA10    10              7.0000000000
     10483       334  AGAL      H1             26.7269502908       -7.9820763766       41.8429972083  LPSA10    10              7.0000000000
     10484       334  AGAL      C5             24.3770561977       -5.9725117418       43.0613392294  LPSA10    10              7.0000000000
     10485       334  AGAL      H5             24.8760139931       -4.9989272472       42.6233508762  LPSA10    10              7.0000000000
     10486       334  AGAL      O5             25.3703603153       -7.0156484143       43.0470213554  LPSA10    10              7.0000000000
     10487       334  AGAL      C2             24.9223090380       -7.4806908673       40.7227968417  LPSA10    10              7.0000000000
     10488       334  AGAL      H2             24.5174799035       -8.5176238090       41.0433947026  LPSA10    10              7.0000000000
     10489       334  AGAL      O2             25.4128740511       -7.9749557450       39.5532095562  LPSA10    10              7.0000000000
     10490       334  AGAL      HO2            25.0123477750       -8.8084550581       39.3379401176  LPSA10    10              7.0000000000
     10491       334  AGAL      C3             23.8532642104       -6.4476075557       40.6928251787  LPSA10    10              7.0000000000
     10492       334  AGAL      H3             24.3970536355       -5.5323701971       40.4679648945  LPSA10    10              7.0000000000
     10493       334  AGAL      O3             22.8276451348       -6.6745022967       39.7732034444  LPSA10    10              7.0000000000
     10494       334  AGAL      HO3            22.9609981155       -6.0534216926       39.0151094934  LPSA10    10              7.0000000000
     10495       334  AGAL      C4             23.2546541914       -6.3262481443       42.0524071915  LPSA10    10              7.0000000000
     10496       334  AGAL      H4             22.5266451354       -5.4941195455       42.1099272557  LPSA10    10              7.0000000000
     10497       334  AGAL      O4             22.5962991985       -7.4767239801       42.4965010455  LPSA10    10              7.0000000000
     10498       334  AGAL      HO4            23.2831282420       -8.1150385653       42.5675127347  LPSA10    10              7.0000000000
     10499       334  AGAL      C6             23.8449728337       -5.5586593915       44.3959537205  LPSA10    10              7.0000000000
     10500       334  AGAL      H61            24.6371285277       -5.3365558689       45.1044438806  LPSA10    10              7.0000000000
     10501       334  AGAL      H62            23.2881800592       -4.5105823713       44.2564473849  LPSA10    10              7.0000000000
     10502       334  AGAL      O6             22.9243932142       -6.4095819584       45.1112340130  LPSA10    10              7.0000000000
     10503       334  AGAL      HO6            23.3687752296       -6.7128266987       45.9237589285  LPSA10    10              7.0000000000
     10504       335  BGLC      C1             24.8548296339       -1.1502333151       44.5018065681  LPSA10    11              6.0000000000
     10505       335  BGLC      H1             23.9259092157       -0.6062534542       44.5883763758  LPSA10    11              6.0000000000
     10506       335  BGLC      C5             26.4218334789        0.7030537765       45.1248117688  LPSA10    11              6.0000000000
     10507       335  BGLC      H5             25.5809837257        1.4362288117       45.3871201921  LPSA10    11              6.0000000000
     10508       335  BGLC      O5             26.0228880645       -0.3377212212       44.0830650888  LPSA10    11              6.0000000000
     10509       335  BGLC      C2             25.2182282073       -1.8292593249       45.7977571702  LPSA10    11              6.0000000000
     10510       335  BGLC      H2             26.0566404143       -2.5675344710       45.7293388291  LPSA10    11              6.0000000000
     10511       335  BGLC      O2             24.1023088023       -2.6581037701       46.0886391483  LPSA10    11              6.0000000000
     10512       335  BGLC      HO2            24.4091516090       -3.5236860931       46.2788110113  LPSA10    11              6.0000000000
     10513       335  BGLC      C3             25.6168601980       -0.9066944093       46.8736276645  LPSA10    11              6.0000000000
     10514       335  BGLC      H3             24.6754134325       -0.2916039812       47.1984917368  LPSA10    11              6.0000000000
     10515       335  BGLC      O3             25.9728545544       -1.6919577517       48.0056213318  LPSA10    11              6.0000000000
     10516       335  BGLC      C4             26.7232616712       -0.0795674984       46.4390836423  LPSA10    11              6.0000000000
     10517       335  BGLC      H4             27.5769456970       -0.7996866302       46.2001611147  LPSA10    11              6.0000000000
     10518       335  BGLC      O4             27.2002006019        0.7611456419       47.4766894645  LPSA10    11              6.0000000000
     10519       335  BGLC      HO4            27.6532088238        0.2087592609       48.1247908570  LPSA10    11              6.0000000000
     10520       335  BGLC      C6             27.5037584324        1.6203848298       44.5291127165  LPSA10    11              6.0000000000
     10521       335  BGLC      H61            28.0894722696        2.1768998237       45.2481190913  LPSA10    11              6.0000000000
     10522       335  BGLC      H62            28.1573850986        0.9743592213       43.8913252379  LPSA10    11              6.0000000000
     10523       335  BGLC      O6             27.0137631821        2.5904576935       43.5637942269  LPSA10    11              6.0000000000
     10524       335  BGLC      HO6            27.1349771684        3.3977466558       44.0054369298  LPSA10    11              6.0000000000
     10525       336  BGLCNA    C1             25.4254476241       -1.4603204483       49.3238540420  LPSA10    12              7.0000000000
     10526       336  BGLCNA    H1             24.4432803209       -2.0395722570       49.3874222992  LPSA10    12              7.0000000000
     10527       336  BGLCNA    C5             24.5269078597        0.1299588357       50.8763077070  LPSA10    12              7.0000000000
     10528       336  BGLCNA    H5             23.5116854144       -0.4645426009       50.9814236466  LPSA10    12              7.0000000000
     10529       336  BGLCNA    O5             25.1642332269       -0.0635996047       49.5875345322  LPSA10    12              7.0000000000
     10530       336  BGLCNA    C2             26.4131472442       -1.9612010671       50.3245054808  LPSA10    12              7.0000000000
     10531       336  BGLCNA    H2             27.2920515689       -1.1861707524       50.3375086743  LPSA10    12              7.0000000000
     10532       336  BGLCNA    N              26.7764934817       -3.3620234232       50.0347611965  LPSA10    12              7.0000000000
     10533       336  BGLCNA    HN             25.9812567684       -3.8706711358       49.9972643287  LPSA10    12              7.0000000000
     10534       336  BGLCNA    C              28.0172995925       -3.7160800319       49.8903426450  LPSA10    12              7.0000000000
     10535       336  BGLCNA    O              28.9095976673       -2.9029013603       50.0855928044  LPSA10    12              7.0000000000
     10536       336  BGLCNA    CT             28.2767442125       -5.1562224822       49.5677689528  LPSA10    12              7.0000000000
     10537       336  BGLCNA    HT1            28.7906985026       -5.6830602670       50.3918503408  LPSA10    12              7.0000000000
     10538       336  BGLCNA    HT2            29.0834197473       -5.2332143031       48.7104760971  LPSA10    12              7.0000000000
     10539       336  BGLCNA    HT3            27.3016830741       -5.5880731667       49.2316245990  LPSA10    12              7.0000000000
     10540       336  BGLCNA    C3             25.8757469083       -1.8416854261       51.6995695120  LPSA10    12              7.0000000000
     10541       336  BGLCNA    H3             24.9333861193       -2.5433901984       51.8605307917  LPSA10    12              7.0000000000
     10542       336  BGLCNA    O3             26.7654750716       -2.3574353306       52.7272334264  LPSA10    12              7.0000000000
     10543       336  BGLCNA    C4             25.5424457587       -0.4070802519       51.9591692987  LPSA10    12              7.0000000000
     10544       336  BGLCNA    H4             26.4459444285        0.3106285651       51.9037868612  LPSA10    12              7.0000000000
     10545       336  BGLCNA    O4             25.0142268966       -0.2170046594       53.2294962294  LPSA10    12              7.0000000000
     10546       336  BGLCNA    HO4            24.0632274060       -0.5268385123       53.2834945119  LPSA10    12              7.0000000000
     10547       336  BGLCNA    C6             24.1234235318        1.6164605935       50.9528560558  LPSA10    12              7.0000000000
     10548       336  BGLCNA    H61            23.7260233325        1.8459715609       51.9144325068  LPSA10    12              7.0000000000
     10549       336  BGLCNA    H62            25.0688164080        2.1329989720       50.8287962869  LPSA10    12              7.0000000000
     10550       336  BGLCNA    O6             23.3105513822        1.9618753805       49.8597561973  LPSA10    12              7.0000000000
     10551       336  BGLCNA    HO6            22.4387615034        1.7932836610       50.1903398796  LPSA10    12              7.0000000000
     10552       337  AGAL      C1             26.1331112258       -3.1086519864       53.8132743488  LPSA10    13              8.0000000000
     10553       337  AGAL      H1             25.2613628283       -2.5324456896       54.1959401301  LPSA10    13              8.0000000000
     10554       337  AGAL      C5             27.1305382768       -5.2407266445       53.2950732168  LPSA10    13              8.0000000000
     10555       337  AGAL      H5             27.7006795396       -4.6714796041       52.5641412600  LPSA10    13              8.0000000000
     10556       337  AGAL      O5             25.9000583940       -4.5262636794       53.4918445955  LPSA10    13              8.0000000000
     10557       337  AGAL      C2             26.9977752268       -3.1981071813       55.1010141246  LPSA10    13              8.0000000000
     10558       337  AGAL      H2             26.5226816421       -3.9233591231       55.7917211299  LPSA10    13              8.0000000000
     10559       337  AGAL      O2             27.1021773031       -1.9587788571       55.7701983428  LPSA10    13              8.0000000000
     10560       337  AGAL      C3             28.3178413913       -3.9804345345       54.8979691660  LPSA10    13              8.0000000000
     10561       337  AGAL      H3             28.8394284147       -3.5525426055       54.0477453328  LPSA10    13              8.0000000000
     10562       337  AGAL      O3             29.2357963857       -3.8121458766       55.9888739531  LPSA10    13              8.0000000000
     10563       337  AGAL      HO3            30.1336734192       -3.7269801106       55.6848713412  LPSA10    13              8.0000000000
     10564       337  AGAL      C4             28.0412565195       -5.3298149983       54.5514025965  LPSA10    13              8.0000000000
     10565       337  AGAL      H4             28.9975805014       -5.8730599608       54.1954731349  LPSA10    13              8.0000000000
     10566       337  AGAL      O4             27.4054815081       -6.0647804064       55.5743212917  LPSA10    13              8.0000000000
     10567       337  AGAL      HO4            26.6858832427       -5.6240594265       56.0499681296  LPSA10    13              8.0000000000
     10568       337  AGAL      C6             27.0126039042       -6.5444288263       52.5301443486  LPSA10    13              8.0000000000
     10569       337  AGAL      H61            26.4090945416       -6.3871342575       51.6253596531  LPSA10    13              8.0000000000
     10570       337  AGAL      H62            28.0437004867       -6.9464536491       52.3684678279  LPSA10    13              8.0000000000
     10571       337  AGAL      O6             26.3550607117       -7.5309110171       53.2985910507  LPSA10    13              8.0000000000
     10572       337  AGAL      HO6            26.9901946920       -7.9034016996       53.9299633642  LPSA10    13              8.0000000000
     10573       338  ARHM      C1             26.4835322204       -1.7724768421       57.0117786358  LPSA10    14              9.0000000000
     10574       338  ARHM      H1             25.6153095215       -2.4635680647       56.9981767125  LPSA10    14              9.0000000000
     10575       338  ARHM      C5             27.0047624279        0.4890828905       57.1930138837  LPSA10    14              9.0000000000
     10576       338  ARHM      H5             27.5783650795        0.3802816960       56.1976867078  LPSA10    14              9.0000000000
     10577       338  ARHM      O5             25.9954503359       -0.4499648708       57.1718909996  LPSA10    14              9.0000000000
     10578       338  ARHM      C2             27.4810945303       -2.1108974673       58.1413490634  LPSA10    14              9.0000000000
     10579       338  ARHM      H2             27.8374063400       -3.1012530327       57.8875987320  LPSA10    14              9.0000000000
     10580       338  ARHM      O2             26.9557980947       -2.0664163159       59.4330148990  LPSA10    14              9.0000000000
     10581       338  ARHM      C3             28.6095431939       -1.1211406313       58.1095432995  LPSA10    14              9.0000000000
     10582       338  ARHM      H3             28.9796171827       -1.0559061462       57.0440121713  LPSA10    14              9.0000000000
     10583       338  ARHM      O3             29.7297783465       -1.4832158616       58.8567888868  LPSA10    14              9.0000000000
     10584       338  ARHM      HO3            29.4613495483       -1.3394790159       59.8104957846  LPSA10    14              9.0000000000
     10585       338  ARHM      C4             28.0120746976        0.2179276038       58.3490442956  LPSA10    14              9.0000000000
     10586       338  ARHM      H4             27.4270817504        0.3435292701       59.2902338481  LPSA10    14              9.0000000000
     10587       338  ARHM      O4             29.0775750069        1.2029636803       58.4446785014  LPSA10    14              9.0000000000
     10588       338  ARHM      HO4            29.2062252605        1.6159495211       59.2969967688  LPSA10    14              9.0000000000
     10589       338  ARHM      C6             26.4021687836        1.9030763803       57.2492155848  LPSA10    14              9.0000000000
     10590       338  ARHM      H61            25.5209541507        2.0766075199       56.5358243550  LPSA10    14              9.0000000000
     10591       338  ARHM      H62            26.1600866153        2.0792294558       58.3170764683  LPSA10    14              9.0000000000
     10592       338  ARHM      H63            27.0065132463        2.7599725843       56.9421594120  LPSA10    14              9.0000000000
     10593       339  ARHM      C1             25.8271918684       -2.7276140034       59.7267990175  LPSA10    15             10.0000000000
     10594       339  ARHM      H1             25.6770776527       -3.5930967264       59.0458905905  LPSA10    15             10.0000000000
     10595       339  ARHM      C5             24.5287079588       -0.8210976933       60.6468530148  LPSA10    15             10.0000000000
     10596       339  ARHM      H5             25.3017000317       -0.0141494506       60.4457705401  LPSA10    15             10.0000000000
     10597       339  ARHM      O5             24.6371084711       -1.9018064691       59.6688136410  LPSA10    15             10.0000000000
     10598       339  ARHM      C2             25.9229267766       -3.2967384191       61.1407671534  LPSA10    15             10.0000000000
     10599       339  ARHM      H2             26.9308220599       -3.8578675310       61.2133420761  LPSA10    15             10.0000000000
     10600       339  ARHM      O2             24.7807672437       -4.1849850300       61.3234079317  LPSA10    15             10.0000000000
     10601       339  ARHM      C3             25.9307700704       -2.1635338906       62.1677656617  LPSA10    15             10.0000000000
     10602       339  ARHM      H3             26.7606169955       -1.4669639252       61.8628392879  LPSA10    15             10.0000000000
     10603       339  ARHM      O3             26.3749619958       -2.7732559485       63.4092175029  LPSA10    15             10.0000000000
     10604       339  ARHM      C4             24.6839451977       -1.4285229954       62.0487117432  LPSA10    15             10.0000000000
     10605       339  ARHM      H4             23.8064052497       -2.1850478816       62.1496903561  LPSA10    15             10.0000000000
     10606       339  ARHM      O4             24.4499284079       -0.3544933279       62.9635513464  LPSA10    15             10.0000000000
     10607       339  ARHM      HO4            23.5245729173       -0.1611651762       62.9565205260  LPSA10    15             10.0000000000
     10608       339  ARHM      C6             23.2166405073       -0.0982187236       60.4460959132  LPSA10    15             10.0000000000
     10609       339  ARHM      H61            23.0778987191        0.8063264165       61.0956562646  LPSA10    15             10.0000000000
     10610       339  ARHM      H62            23.0431037182        0.0547101471       59.3910198679  LPSA10    15             10.0000000000
     10611       339  ARHM      H63            22.3441862197       -0.6794111580       60.8578185328  LPSA10    15             10.0000000000
     10612       340  BMANNA    C1             24.6632752220       -4.9469039616       62.5145562334  LPSA10    16             11.0000000000
     10613       340  BMANNA    H1             24.3741191899       -4.1988837830       63.3432051365  LPSA10    16             11.0000000000
     10614       340  BMANNA    C5             25.6321776038       -6.2884190523       64.1851548173  LPSA10    16             11.0000000000
     10615       340  BMANNA    H5             25.3117596417       -5.6022882657       64.9800677769  LPSA10    16             11.0000000000
     10616       340  BMANNA    O5             25.8514330741       -5.6187229337       62.9158851071  LPSA10    16             11.0000000000
     10617       340  BMANNA    C2             23.5138238387       -5.9542690397       62.2781089586  LPSA10    16             11.0000000000
     10618       340  BMANNA    H2             22.6387478635       -5.3139925685       61.9912908466  LPSA10    16             11.0000000000
     10619       340  BMANNA    N              23.6762378172       -6.9621593403       61.2264456342  LPSA10    16             11.0000000000
     10620       340  BMANNA    HN             24.1018292056       -7.7673107289       61.5688724990  LPSA10    16             11.0000000000
     10621       340  BMANNA    C              23.3412160991       -6.8003854092       59.9704010620  LPSA10    16             11.0000000000
     10622       340  BMANNA    O              22.7614633499       -5.7585073001       59.5582221915  LPSA10    16             11.0000000000
     10623       340  BMANNA    CT             23.6843147728       -7.9381710792       59.1331689300  LPSA10    16             11.0000000000
     10624       340  BMANNA    HT1            22.8621146876       -8.5694101903       58.8344492748  LPSA10    16             11.0000000000
     10625       340  BMANNA    HT2            24.4583154985       -8.6092103636       59.5043001239  LPSA10    16             11.0000000000
     10626       340  BMANNA    HT3            24.0807159677       -7.5957672474       58.1231520073  LPSA10    16             11.0000000000
     10627       340  BMANNA    C3             23.2686940356       -6.6141639275       63.6119771117  LPSA10    16             11.0000000000
     10628       340  BMANNA    H3             23.0125810586       -5.8423102463       64.3839812837  LPSA10    16             11.0000000000
     10629       340  BMANNA    O3             22.1766310898       -7.4878854481       63.6122488842  LPSA10    16             11.0000000000
     10630       340  BMANNA    HO3            21.5607642813       -7.2569323816       64.2950500102  LPSA10    16             11.0000000000
     10631       340  BMANNA    C4             24.5201229912       -7.3520639243       64.1045846713  LPSA10    16             11.0000000000
     10632       340  BMANNA    H4             24.8255534513       -8.1598082845       63.4124605202  LPSA10    16             11.0000000000
     10633       340  BMANNA    O4             24.4337662386       -8.0100823829       65.3816866120  LPSA10    16             11.0000000000
     10634       340  BMANNA    HO4            25.0746397696       -8.7176551109       65.4353184152  LPSA10    16             11.0000000000
     10635       340  BMANNA    C6             26.9145685719       -6.9193423410       64.7427751243  LPSA10    16             11.0000000000
     10636       340  BMANNA    H61            26.8276477653       -6.9013673187       65.8875394407  LPSA10    16             11.0000000000
     10637       340  BMANNA    H62            27.0085240561       -7.9641006787       64.4389269682  LPSA10    16             11.0000000000
     10638       340  BMANNA    O6             28.1243982194       -6.2320420166       64.3660927576  LPSA10    16             11.0000000000
     10639       340  BMANNA    HO6            28.6189097506       -6.9443983457       63.9036969990  LPSA10    16             11.0000000000
     10640       341  BGLCNA    C1             27.1861733177       -2.0150438963       64.1715778089  LPSA10    17             11.0000000000
     10641       341  BGLCNA    H1             26.9897061584       -0.8980937012       63.9082176002  LPSA10    17             11.0000000000
     10642       341  BGLCNA    C5             29.5221128303       -1.4092913498       64.5563394407  LPSA10    17             11.0000000000
     10643       341  BGLCNA    H5             29.3737167706       -0.2982163003       64.2825289487  LPSA10    17             11.0000000000
     10644       341  BGLCNA    O5             28.5818810291       -2.1721434657       63.7849982893  LPSA10    17             11.0000000000
     10645       341  BGLCNA    C2             26.9571740715       -2.3895290546       65.5899343931  LPSA10    17             11.0000000000
     10646       341  BGLCNA    H2             27.1837607434       -3.4840077337       65.8249043900  LPSA10    17             11.0000000000
     10647       341  BGLCNA    N              25.5830343947       -2.3232047672       65.8849826081  LPSA10    17             11.0000000000
     10648       341  BGLCNA    HN             25.0203114976       -1.6173086369       65.4150135415  LPSA10    17             11.0000000000
     10649       341  BGLCNA    C              24.8785587066       -2.9587464651       66.8043620798  LPSA10    17             11.0000000000
     10650       341  BGLCNA    O              25.3565602464       -3.8674432802       67.4729873017  LPSA10    17             11.0000000000
     10651       341  BGLCNA    CT             23.4752411113       -2.5149957479       66.9728872304  LPSA10    17             11.0000000000
     10652       341  BGLCNA    HT1            22.6513530029       -3.1199571552       66.5529393721  LPSA10    17             11.0000000000
     10653       341  BGLCNA    HT2            23.4327683297       -1.4417234937       66.7043805047  LPSA10    17             11.0000000000
     10654       341  BGLCNA    HT3            23.2062847023       -2.4635841618       68.1408097225  LPSA10    17             11.0000000000
     10655       341  BGLCNA    C3             27.8644171251       -1.4977178881       66.4076579941  LPSA10    17             11.0000000000
     10656       341  BGLCNA    H3             27.5500692246       -0.4623604899       66.0441361901  LPSA10    17             11.0000000000
     10657       341  BGLCNA    O3             27.4717149664       -1.6434501536       67.8205355914  LPSA10    17             11.0000000000
     10658       341  BGLCNA    C4             29.3109703510       -1.8088729028       66.0496966154  LPSA10    17             11.0000000000
     10659       341  BGLCNA    H4             29.5272714778       -2.9325878983       66.1123142204  LPSA10    17             11.0000000000
     10660       341  BGLCNA    O4             30.2301324798       -1.1786528416       66.9186044206  LPSA10    17             11.0000000000
     10661       341  BGLCNA    HO4            31.1495217668       -1.3101747273       66.7204061560  LPSA10    17             11.0000000000
     10662       341  BGLCNA    C6             30.9572371419       -1.7638335763       64.1200051697  LPSA10    17             11.0000000000
     10663       341  BGLCNA    H61            31.5713941545       -0.8844951052       64.1272946536  LPSA10    17             11.0000000000
     10664       341  BGLCNA    H62            31.4255253212       -2.5214365738       64.8212395067  LPSA10    17             11.0000000000
     10665       341  BGLCNA    O6             31.0091958594       -2.3045846069       62.7926115083  LPSA10    17             11.0000000000
     10666       341  BGLCNA    HO6            30.6511661577       -1.6665445818       62.1856770532  LPSA10    17             11.0000000000
     10667       342  AGAL      C1             27.5632394402       -0.4366346260       68.6198653987  LPSA10    18             12.0000000000
     10668       342  AGAL      H1             28.6610498646       -0.2450608793       68.8082567594  LPSA10    18             12.0000000000
     10669       342  AGAL      C5             25.5256941604        0.5851898580       67.8636918791  LPSA10    18             12.0000000000
     10670       342  AGAL      H5             25.2936808417       -0.3810355900       67.4068928888  LPSA10    18             12.0000000000
     10671       342  AGAL      O5             26.9907061634        0.6848075764       67.9834320655  LPSA10    18             12.0000000000
     10672       342  AGAL      C2             26.8168658097       -0.5859343030       70.0000206359  LPSA10    18             12.0000000000
     10673       342  AGAL      H2             26.9991974721        0.4415519017       70.3908489884  LPSA10    18             12.0000000000
     10674       342  AGAL      O2             27.5098140150       -1.4537518950       70.8342757016  LPSA10    18             12.0000000000
     10675       342  AGAL      C3             25.3402548428       -0.7258157447       69.8682924558  LPSA10    18             12.0000000000
     10676       342  AGAL      H3             25.1228479899       -1.5704577820       69.0958348126  LPSA10    18             12.0000000000
     10677       342  AGAL      O3             24.7207397094       -1.0517639896       71.0758896640  LPSA10    18             12.0000000000
     10678       342  AGAL      HO3            24.0887098320       -1.7647056162       70.9682873819  LPSA10    18             12.0000000000
     10679       342  AGAL      C4             24.8089347463        0.4558545544       69.1634745928  LPSA10    18             12.0000000000
     10680       342  AGAL      H4             23.7247296342        0.4215727344       68.9039691178  LPSA10    18             12.0000000000
     10681       342  AGAL      O4             24.9722280283        1.6494516461       69.9734134928  LPSA10    18             12.0000000000
     10682       342  AGAL      HO4            24.2819402563        1.6369863647       70.7236544006  LPSA10    18             12.0000000000
     10683       342  AGAL      C6             25.1094815897        1.5054298093       66.8042742825  LPSA10    18             12.0000000000
     10684       342  AGAL      H61            25.5951239775        1.1666796111       65.8877991861  LPSA10    18             12.0000000000
     10685       342  AGAL      H62            24.0089789676        1.3378636572       66.6499463921  LPSA10    18             12.0000000000
     10686       342  AGAL      O6             25.4234669792        2.7910204943       66.9803033045  LPSA10    18             12.0000000000
     10687       342  AGAL      HO6            26.0423320785        3.0057170547       67.6707071977  LPSA10    18             12.0000000000
     10688       343  ARHM      C1             27.5565625549       -0.9151423437       72.1803514454  LPSA10    19             13.0000000000
     10689       343  ARHM      H1             26.7883501204       -0.1810627811       72.3185909119  LPSA10    19             13.0000000000
     10690       343  ARHM      C5             29.9252808340       -0.8291310597       72.2512180912  LPSA10    19             13.0000000000
     10691       343  ARHM      H5             29.9068583430       -1.2510454522       71.2133247196  LPSA10    19             13.0000000000
     10692       343  ARHM      O5             28.7104168448       -0.0957545160       72.4162684983  LPSA10    19             13.0000000000
     10693       343  ARHM      C2             27.4998687197       -2.0703444768       73.1100514097  LPSA10    19             13.0000000000
     10694       343  ARHM      H2             26.7158176196       -2.7630025049       72.9420985559  LPSA10    19             13.0000000000
     10695       343  ARHM      O2             27.3885789563       -1.6127764760       74.4131644751  LPSA10    19             13.0000000000
     10696       343  ARHM      C3             28.8458469521       -2.8494902038       72.9859276785  LPSA10    19             13.0000000000
     10697       343  ARHM      H3             28.9400143533       -3.1554517722       71.9471750908  LPSA10    19             13.0000000000
     10698       343  ARHM      O3             28.8369735433       -3.9911356132       73.7644258584  LPSA10    19             13.0000000000
     10699       343  ARHM      HO3            28.5552060261       -3.7238481674       74.6464134549  LPSA10    19             13.0000000000
     10700       343  ARHM      C4             30.0243712750       -2.0091066290       73.2443334127  LPSA10    19             13.0000000000
     10701       343  ARHM      H4             29.9077391609       -1.6376951795       74.2703943704  LPSA10    19             13.0000000000
     10702       343  ARHM      O4             31.2522482726       -2.6624486951       73.1708570575  LPSA10    19             13.0000000000
     10703       343  ARHM      HO4            31.3520389708       -2.9412404046       72.2126258713  LPSA10    19             13.0000000000
     10704       343  ARHM      C6             31.1516636150        0.0997094103       72.3031700958  LPSA10    19             13.0000000000
     10705       343  ARHM      H61            30.9077228556        0.7982860011       71.5186681997  LPSA10    19             13.0000000000
     10706       343  ARHM      H62            31.3054838399        0.6551310883       73.2001761489  LPSA10    19             13.0000000000
     10707       343  ARHM      H63            32.0943311829       -0.4111448575       72.0875448643  LPSA10    19             13.0000000000
     10708       344  ARHM      C1             26.1020184462       -1.1718019295       74.6981797177  LPSA10    20             14.0000000000
     10709       344  ARHM      H1             25.3494576140       -1.4600463726       73.8936196974  LPSA10    20             14.0000000000
     10710       344  ARHM      C5             26.6304844337        0.7723658526       75.9960310464  LPSA10    20             14.0000000000
     10711       344  ARHM      H5             27.6909379375        0.4654989962       75.8071112250  LPSA10    20             14.0000000000
     10712       344  ARHM      O5             25.9201484053        0.2338857476       74.8741575474  LPSA10    20             14.0000000000
     10713       344  ARHM      C2             25.5815492510       -1.8850316017       75.9438944127  LPSA10    20             14.0000000000
     10714       344  ARHM      H2             25.8143937485       -3.0199151235       75.7904987900  LPSA10    20             14.0000000000
     10715       344  ARHM      O2             24.1803923000       -1.6523455705       76.2145535291  LPSA10    20             14.0000000000
     10716       344  ARHM      C3             26.3286491134       -1.3211176423       77.0746584307  LPSA10    20             14.0000000000
     10717       344  ARHM      H3             27.4553755754       -1.5346876731       76.9570890266  LPSA10    20             14.0000000000
     10718       344  ARHM      O3             25.9063535628       -2.0678659116       78.2431898216  LPSA10    20             14.0000000000
     10719       344  ARHM      C4             26.1415160018        0.1524728323       77.2147849866  LPSA10    20             14.0000000000
     10720       344  ARHM      H4             25.1126370649        0.4391023936       77.2882629629  LPSA10    20             14.0000000000
     10721       344  ARHM      O4             26.7915976830        0.5936116956       78.4294019453  LPSA10    20             14.0000000000
     10722       344  ARHM      HO4            26.9946585867        1.4359936091       78.0714846557  LPSA10    20             14.0000000000
     10723       344  ARHM      C6             26.5541895602        2.2419352920       75.9818768401  LPSA10    20             14.0000000000
     10724       344  ARHM      H61            25.5442655787        2.7470486531       76.0487105533  LPSA10    20             14.0000000000
     10725       344  ARHM      H62            27.2094786834        2.6579939850       76.7492574554  LPSA10    20             14.0000000000
     10726       344  ARHM      H63            26.9269876256        2.7228993373       75.0059134709  LPSA10    20             14.0000000000
     10727       345  BMANNA    C1             23.4861702002       -2.5700193591       75.4501725836  LPSA10    21             15.0000000000
     10728       345  BMANNA    H1             24.1678307226       -3.0702114079       74.6495731600  LPSA10    21             15.0000000000
     10729       345  BMANNA    C5             21.9549274267       -2.8913017331       73.6578092950  LPSA10    21             15.0000000000
     10730       345  BMANNA    H5             22.7051907787       -3.5530910680       73.0422409194  LPSA10    21             15.0000000000
     10731       345  BMANNA    O5             22.5527407563       -1.8855548913       74.5460975074  LPSA10    21             15.0000000000
     10732       345  BMANNA    C2             22.7707541749       -3.5461395363       76.3268603500  LPSA10    21             15.0000000000
     10733       345  BMANNA    H2             23.6060250827       -3.9963049526       76.8663433126  LPSA10    21             15.0000000000
     10734       345  BMANNA    N              21.8637881544       -2.8833986875       77.2602735953  LPSA10    21             15.0000000000
     10735       345  BMANNA    HN             21.2267675623       -2.2669529260       76.8630196157  LPSA10    21             15.0000000000
     10736       345  BMANNA    C              21.6535569657       -3.2620130696       78.6142451918  LPSA10    21             15.0000000000
     10737       345  BMANNA    O              22.1090221943       -4.3261639103       79.0340579138  LPSA10    21             15.0000000000
     10738       345  BMANNA    CT             20.7980533110       -2.3411420592       79.5125915666  LPSA10    21             15.0000000000
     10739       345  BMANNA    HT1            19.7231872720       -2.5510233571       79.3040814335  LPSA10    21             15.0000000000
     10740       345  BMANNA    HT2            21.1413485952       -1.3105559314       79.3224353366  LPSA10    21             15.0000000000
     10741       345  BMANNA    HT3            20.9839956991       -2.5785677197       80.6000991146  LPSA10    21             15.0000000000
     10742       345  BMANNA    C3             22.1351255813       -4.5605862326       75.4428482744  LPSA10    21             15.0000000000
     10743       345  BMANNA    H3             23.0119630322       -5.0206275114       75.0091666053  LPSA10    21             15.0000000000
     10744       345  BMANNA    O3             21.4468708752       -5.5617387838       76.1769203835  LPSA10    21             15.0000000000
     10745       345  BMANNA    HO3            20.8307885660       -5.1263751165       76.7354970047  LPSA10    21             15.0000000000
     10746       345  BMANNA    C4             21.1781999282       -3.8962353659       74.4866217523  LPSA10    21             15.0000000000
     10747       345  BMANNA    H4             20.2228892145       -3.3903353665       75.0002820064  LPSA10    21             15.0000000000
     10748       345  BMANNA    O4             20.5757431775       -4.8097939378       73.6152290754  LPSA10    21             15.0000000000
     10749       345  BMANNA    HO4            19.6065757362       -4.8600356979       73.7703874424  LPSA10    21             15.0000000000
     10750       345  BMANNA    C6             21.1416276000       -2.2864396083       72.6348027846  LPSA10    21             15.0000000000
     10751       345  BMANNA    H61            20.8152209646       -2.9994775168       71.8494922130  LPSA10    21             15.0000000000
     10752       345  BMANNA    H62            20.1271848712       -2.0478980427       73.0558617198  LPSA10    21             15.0000000000
     10753       345  BMANNA    O6             21.5971934270       -1.0963892305       72.0654385618  LPSA10    21             15.0000000000
     10754       345  BMANNA    HO6            21.7748669004       -0.4840013116       72.7784055652  LPSA10    21             15.0000000000
     10755       346  BGLCNA    C1             26.8234901867       -2.3994198218       79.2248726046  LPSA10    22             15.0000000000
     10756       346  BGLCNA    H1             27.7186632818       -1.7127167084       79.2753119810  LPSA10    22             15.0000000000
     10757       346  BGLCNA    C5             28.3695482499       -4.0150843164       80.1145289529  LPSA10    22             15.0000000000
     10758       346  BGLCNA    H5             29.1704245724       -3.1620190906       80.0727605020  LPSA10    22             15.0000000000
     10759       346  BGLCNA    O5             27.3828521320       -3.6722728963       79.0803056561  LPSA10    22             15.0000000000
     10760       346  BGLCNA    C2             26.1290280545       -2.3281364441       80.5602818744  LPSA10    22             15.0000000000
     10761       346  BGLCNA    H2             25.3232786724       -3.1390268883       80.4633107900  LPSA10    22             15.0000000000
     10762       346  BGLCNA    N              25.5437164293       -1.0119383973       80.7025670875  LPSA10    22             15.0000000000
     10763       346  BGLCNA    HN             26.1139706216       -0.2599326869       80.4501896382  LPSA10    22             15.0000000000
     10764       346  BGLCNA    C              24.4138673843       -0.7566532463       81.3295640408  LPSA10    22             15.0000000000
     10765       346  BGLCNA    O              23.7419118032       -1.6689000739       81.8448112003  LPSA10    22             15.0000000000
     10766       346  BGLCNA    CT             23.9900864894        0.6647460864       81.4359073222  LPSA10    22             15.0000000000
     10767       346  BGLCNA    HT1            23.4000838418        0.7895588371       80.5353412834  LPSA10    22             15.0000000000
     10768       346  BGLCNA    HT2            24.8957744028        1.2933554671       81.2752873926  LPSA10    22             15.0000000000
     10769       346  BGLCNA    HT3            23.5559304001        0.9597825892       82.3679651303  LPSA10    22             15.0000000000
     10770       346  BGLCNA    C3             27.0753060224       -2.6792462064       81.6855161512  LPSA10    22             15.0000000000
     10771       346  BGLCNA    H3             27.9399396897       -1.9703060076       81.6419517197  LPSA10    22             15.0000000000
     10772       346  BGLCNA    O3             26.3504927959       -2.4500442676       82.8729300216  LPSA10    22             15.0000000000
     10773       346  BGLCNA    C4             27.6722040374       -4.0736082894       81.4704242134  LPSA10    22             15.0000000000
     10774       346  BGLCNA    H4             26.8459639079       -4.7323905116       81.4144045074  LPSA10    22             15.0000000000
     10775       346  BGLCNA    O4             28.5339164392       -4.4709751573       82.5140850489  LPSA10    22             15.0000000000
     10776       346  BGLCNA    HO4            28.3743487425       -5.4096998845       82.7130071916  LPSA10    22             15.0000000000
     10777       346  BGLCNA    C6             28.9647544468       -5.3618555078       79.7284495560  LPSA10    22             15.0000000000
     10778       346  BGLCNA    H61            29.4235875127       -5.7315772672       80.6924177192  LPSA10    22             15.0000000000
     10779       346  BGLCNA    H62            28.1730019903       -6.0947935457       79.4648784538  LPSA10    22             15.0000000000
     10780       346  BGLCNA    O6             30.0027958310       -5.2961097825       78.8100863794  LPSA10    22             15.0000000000
     10781       346  BGLCNA    HO6            29.6850461528       -4.8656593417       78.0328486455  LPSA10    22             15.0000000000
     10782       347  AGAL      C1             27.0260386300       -2.2606316508       84.0628261254  LPSA10    23             16.0000000000
     10783       347  AGAL      H1             27.4081893474       -3.2194996170       84.5106287163  LPSA10    23             16.0000000000
     10784       347  AGAL      C5             27.7305114803       -0.0063889593       83.7583018441  LPSA10    23             16.0000000000
     10785       347  AGAL      H5             27.0381960951        0.0144401375       82.8366412438  LPSA10    23             16.0000000000
     10786       347  AGAL      O5             28.1196483145       -1.3396537508       83.9976212264  LPSA10    23             16.0000000000
     10787       347  AGAL      C2             26.0775464169       -1.7743352134       85.1427633740  LPSA10    23             16.0000000000
     10788       347  AGAL      H2             26.6925764845       -1.6737686963       86.0076373284  LPSA10    23             16.0000000000
     10789       347  AGAL      O2             25.0864957080       -2.7077382657       85.5000844886  LPSA10    23             16.0000000000
     10790       347  AGAL      C3             25.5994106178       -0.3812911419       84.9194901020  LPSA10    23             16.0000000000
     10791       347  AGAL      H3             25.1864213839       -0.3743013837       83.8641570193  LPSA10    23             16.0000000000
     10792       347  AGAL      O3             24.5508635473        0.0412498677       85.7108298168  LPSA10    23             16.0000000000
     10793       347  AGAL      HO3            24.8085835373       -0.2306890477       86.6206525111  LPSA10    23             16.0000000000
     10794       347  AGAL      C4             26.8039762022        0.5111855469       84.8901212015  LPSA10    23             16.0000000000
     10795       347  AGAL      H4             26.5498493944        1.5686912381       84.6506069022  LPSA10    23             16.0000000000
     10796       347  AGAL      O4             27.5099303077        0.6539940244       86.1132943683  LPSA10    23             16.0000000000
     10797       347  AGAL      HO4            28.3638351007        0.7298297460       85.8278371007  LPSA10    23             16.0000000000
     10798       347  AGAL      C6             28.9042798908        0.8320230576       83.3278962909  LPSA10    23             16.0000000000
     10799       347  AGAL      H61            29.4736827871        0.3058275106       82.6074235255  LPSA10    23             16.0000000000
     10800       347  AGAL      H62            28.6039025240        1.7186665737       82.7620574208  LPSA10    23             16.0000000000
     10801       347  AGAL      O6             29.7490006418        1.0768062455       84.3845202183  LPSA10    23             16.0000000000
     10802       347  AGAL      HO6            30.5313737960        1.5646217801       84.1740981585  LPSA10    23             16.0000000000
     10803       348  ARHM      C1             25.3141674921       -3.8659973787       86.2818185944  LPSA10    24             17.0000000000
     10804       348  ARHM      H1             26.3760623078       -3.9929031123       86.3680542693  LPSA10    24             17.0000000000
     10805       348  ARHM      C5             23.3928519982       -5.1437158447       85.6157638072  LPSA10    24             17.0000000000
     10806       348  ARHM      H5             23.0970236485       -4.3157180535       85.0070975499  LPSA10    24             17.0000000000
     10807       348  ARHM      O5             24.7947091215       -5.1831341806       85.8657410059  LPSA10    24             17.0000000000
     10808       348  ARHM      C2             24.7038472457       -3.4941432388       87.5921581840  LPSA10    24             17.0000000000
     10809       348  ARHM      H2             24.9744459958       -2.5007845152       87.8984046741  LPSA10    24             17.0000000000
     10810       348  ARHM      O2             24.9400699185       -4.4880154938       88.6075763533  LPSA10    24             17.0000000000
     10811       348  ARHM      C3             23.1780634380       -3.4825812455       87.4133527752  LPSA10    24             17.0000000000
     10812       348  ARHM      H3             22.9851819440       -2.7080800936       86.6640279609  LPSA10    24             17.0000000000
     10813       348  ARHM      O3             22.4425248075       -2.9841960839       88.5620392964  LPSA10    24             17.0000000000
     10814       348  ARHM      HO3            22.3043151419       -3.7605413136       89.1463757531  LPSA10    24             17.0000000000
     10815       348  ARHM      C4             22.6574020691       -4.8332039802       86.9402325015  LPSA10    24             17.0000000000
     10816       348  ARHM      H4             23.0128744024       -5.6310457623       87.7071552895  LPSA10    24             17.0000000000
     10817       348  ARHM      O4             21.2527316778       -4.9218886099       86.8379508285  LPSA10    24             17.0000000000
     10818       348  ARHM      HO4            20.8998532166       -5.7773875367       87.0219124236  LPSA10    24             17.0000000000
     10819       348  ARHM      C6             22.8502606359       -6.4582373378       84.9175891319  LPSA10    24             17.0000000000
     10820       348  ARHM      H61            21.9324036036       -6.2136199816       84.3853494017  LPSA10    24             17.0000000000
     10821       348  ARHM      H62            23.6093255609       -6.7558979049       84.2649634992  LPSA10    24             17.0000000000
     10822       348  ARHM      H63            22.7579272122       -7.3006301741       85.6811466487  LPSA10    24             17.0000000000
     10823       349  ARHM      C1             26.2446757988       -4.3472620890       89.1588742089  LPSA10    25             18.0000000000
     10824       349  ARHM      H1             26.8685893112       -3.8305990816       88.4722246341  LPSA10    25             18.0000000000
     10825       349  ARHM      C5             26.2999544402       -6.5161753472       90.1670531641  LPSA10    25             18.0000000000
     10826       349  ARHM      H5             25.3112424450       -6.7649399562       89.8870230824  LPSA10    25             18.0000000000
     10827       349  ARHM      O5             26.9293712099       -5.6134517019       89.2315309535  LPSA10    25             18.0000000000
     10828       349  ARHM      C2             26.1449803757       -3.6692659051       90.4685713243  LPSA10    25             18.0000000000
     10829       349  ARHM      H2             25.4877106996       -2.7441771348       90.3413143991  LPSA10    25             18.0000000000
     10830       349  ARHM      O2             27.4785263826       -3.2935978056       90.9328696740  LPSA10    25             18.0000000000
     10831       349  ARHM      C3             25.5037661988       -4.6973598773       91.4562257518  LPSA10    25             18.0000000000
     10832       349  ARHM      H3             24.4773821498       -4.9164797585       91.0689171631  LPSA10    25             18.0000000000
     10833       349  ARHM      O3             25.3874846520       -4.0234763502       92.6920647463  LPSA10    25             18.0000000000
     10834       349  ARHM      C4             26.2296136122       -5.9234369481       91.5960769721  LPSA10    25             18.0000000000
     10835       349  ARHM      H4             27.3457956124       -5.7406448561       91.8876801091  LPSA10    25             18.0000000000
     10836       349  ARHM      O4             25.5520158300       -6.6972378428       92.5862492282  LPSA10    25             18.0000000000
     10837       349  ARHM      HO4            26.2534284856       -7.1534188597       93.0149361445  LPSA10    25             18.0000000000
     10838       349  ARHM      C6             26.9983101888       -7.8745392188       90.2083352735  LPSA10    25             18.0000000000
     10839       349  ARHM      H61            27.1582184051       -8.2933625668       89.1912344565  LPSA10    25             18.0000000000
     10840       349  ARHM      H62            28.0225439311       -7.8367661473       90.6686969550  LPSA10    25             18.0000000000
     10841       349  ARHM      H63            26.4239656709       -8.6666039086       90.8233913566  LPSA10    25             18.0000000000
     10842       350  BMANNA    C1             27.9967643460       -2.1402290085       90.3138108879  LPSA10    26             19.0000000000
     10843       350  BMANNA    H1             27.1846765144       -1.5148189809       89.8388342826  LPSA10    26             19.0000000000
     10844       350  BMANNA    C5             29.3667241905       -1.1459776779       88.6312665858  LPSA10    26             19.0000000000
     10845       350  BMANNA    H5             28.4849507970       -0.6931639978       88.1771240033  LPSA10    26             19.0000000000
     10846       350  BMANNA    O5             28.9419990220       -2.3748229866       89.2346891933  LPSA10    26             19.0000000000
     10847       350  BMANNA    C2             28.6337283558       -1.3486834260       91.3475147821  LPSA10    26             19.0000000000
     10848       350  BMANNA    H2             27.8078222748       -1.1554506672       92.1081287357  LPSA10    26             19.0000000000
     10849       350  BMANNA    N              29.7438579058       -2.1396042623       91.9238920796  LPSA10    26             19.0000000000
     10850       350  BMANNA    HN             30.4063031235       -2.4529179225       91.3050515894  LPSA10    26             19.0000000000
     10851       350  BMANNA    C              29.9328244952       -2.3522282630       93.1798471680  LPSA10    26             19.0000000000
     10852       350  BMANNA    O              29.0495755982       -2.0465287301       94.0003587425  LPSA10    26             19.0000000000
     10853       350  BMANNA    CT             31.2456284462       -2.9569466566       93.6758917343  LPSA10    26             19.0000000000
     10854       350  BMANNA    HT1            31.6742956150       -3.4652709104       92.8666282051  LPSA10    26             19.0000000000
     10855       350  BMANNA    HT2            31.3298894504       -3.5173276782       94.6620984389  LPSA10    26             19.0000000000
     10856       350  BMANNA    HT3            31.9018584362       -2.0953583173       93.8484898219  LPSA10    26             19.0000000000
     10857       350  BMANNA    C3             29.0520407681       -0.0206727925       90.7100883268  LPSA10    26             19.0000000000
     10858       350  BMANNA    H3             28.1262854677        0.4853909074       90.3384445889  LPSA10    26             19.0000000000
     10859       350  BMANNA    O3             29.5814782723        0.8289069001       91.7636866611  LPSA10    26             19.0000000000
     10860       350  BMANNA    HO3            28.7947906780        1.0915556127       92.2265744207  LPSA10    26             19.0000000000
     10861       350  BMANNA    C4             29.9682589775       -0.2865830735       89.6481622736  LPSA10    26             19.0000000000
     10862       350  BMANNA    H4             30.9342791553       -0.8118268435       89.9013799111  LPSA10    26             19.0000000000
     10863       350  BMANNA    O4             30.4167673358        0.9172011735       89.0416847738  LPSA10    26             19.0000000000
     10864       350  BMANNA    HO4            31.1433002612        1.2617968927       89.5591157304  LPSA10    26             19.0000000000
     10865       350  BMANNA    C6             30.1991488556       -1.5882652800       87.3900617492  LPSA10    26             19.0000000000
     10866       350  BMANNA    H61            29.7845715823       -2.4971443815       86.9191763972  LPSA10    26             19.0000000000
     10867       350  BMANNA    H62            30.2407956026       -0.8317469107       86.6504270337  LPSA10    26             19.0000000000
     10868       350  BMANNA    O6             31.5509806527       -1.8727234281       87.7329108337  LPSA10    26             19.0000000000
     10869       350  BMANNA    HO6            31.9276851497       -1.1366798557       88.1688153196  LPSA10    26             19.0000000000
     10870       351  BGLCNA    C1             24.2771608285       -4.0339336080       93.4616184899  LPSA10    27             19.0000000000
     10871       351  BGLCNA    H1             23.8041142622       -5.0107187283       93.4392217979  LPSA10    27             19.0000000000
     10872       351  BGLCNA    C5             22.1078744180       -3.2080841250       93.9656603721  LPSA10    27             19.0000000000
     10873       351  BGLCNA    H5             21.7707309847       -4.2762760495       93.9564344452  LPSA10    27             19.0000000000
     10874       351  BGLCNA    O5             23.2184984114       -3.1410724922       93.0607755266  LPSA10    27             19.0000000000
     10875       351  BGLCNA    C2             24.7545913082       -3.7167094269       94.8806799918  LPSA10    27             19.0000000000
     10876       351  BGLCNA    H2             25.1120256547       -2.6724101623       94.8757458582  LPSA10    27             19.0000000000
     10877       351  BGLCNA    N              25.8508026749       -4.5925095174       95.2501113516  LPSA10    27             19.0000000000
     10878       351  BGLCNA    HN             25.6928592328       -5.6211966226       95.0827132934  LPSA10    27             19.0000000000
     10879       351  BGLCNA    C              26.8932453774       -3.9960774281       95.9523160909  LPSA10    27             19.0000000000
     10880       351  BGLCNA    O              26.8537465900       -2.8644191398       96.5238801166  LPSA10    27             19.0000000000
     10881       351  BGLCNA    CT             28.1820704798       -4.8719464024       96.0293745529  LPSA10    27             19.0000000000
     10882       351  BGLCNA    HT1            28.0882770331       -5.7725750539       95.3635606282  LPSA10    27             19.0000000000
     10883       351  BGLCNA    HT2            28.4795231040       -5.1470429037       97.0167906789  LPSA10    27             19.0000000000
     10884       351  BGLCNA    HT3            29.0602443240       -4.1879140820       95.7039804309  LPSA10    27             19.0000000000
     10885       351  BGLCNA    C3             23.5991153373       -3.7908010187       95.7540348103  LPSA10    27             19.0000000000
     10886       351  BGLCNA    H3             23.1233269395       -4.8028803097       95.7401190096  LPSA10    27             19.0000000000
     10887       351  BGLCNA    O3             24.1707308174       -3.5127700455       97.0775356047  LPSA10    27             19.0000000000
     10888       351  BGLCNA    C4             22.4784880864       -2.8134750167       95.3486864533  LPSA10    27             19.0000000000
     10889       351  BGLCNA    H4             22.8881094656       -1.7779109469       95.3090014479  LPSA10    27             19.0000000000
     10890       351  BGLCNA    O4             21.4063662651       -2.8773910832       96.2156872787  LPSA10    27             19.0000000000
     10891       351  BGLCNA    HO4            21.0196952719       -3.7063860704       96.0162444362  LPSA10    27             19.0000000000
     10892       351  BGLCNA    C6             20.9631434931       -2.3826501388       93.2852949846  LPSA10    27             19.0000000000
     10893       351  BGLCNA    H61            20.0617267665       -2.6251534461       93.8557506920  LPSA10    27             19.0000000000
     10894       351  BGLCNA    H62            21.1231318171       -1.2946842509       93.4725180191  LPSA10    27             19.0000000000
     10895       351  BGLCNA    O6             20.8437639244       -2.6959189223       91.9076175409  LPSA10    27             19.0000000000
     10896       351  BGLCNA    HO6            20.1332808225       -2.1341542280       91.5273290588  LPSA10    27             19.0000000000
     10897       352  AGAL      C1             23.4101907494       -3.8501765113       98.2622020222  LPSA10    28             20.0000000000
     10898       352  AGAL      H1             22.5769357060       -3.2016364086       98.3007149491  LPSA10    28             20.0000000000
     10899       352  AGAL      C5             23.8882720999       -6.2253416669       98.1710438288  LPSA10    28             20.0000000000
     10900       352  AGAL      H5             24.8135136091       -5.9643306615       97.4646141937  LPSA10    28             20.0000000000
     10901       352  AGAL      O5             22.8574681702       -5.1563314413       98.1147365872  LPSA10    28             20.0000000000
     10902       352  AGAL      C2             24.1340725362       -3.8276801275       99.6197190629  LPSA10    28             20.0000000000
     10903       352  AGAL      H2             23.3333364062       -4.1182672475      100.2965066153  LPSA10    28             20.0000000000
     10904       352  AGAL      O2             24.5981923532       -2.5672349411      100.0788731798  LPSA10    28             20.0000000000
     10905       352  AGAL      C3             25.1821603824       -4.8889998387       99.7396972452  LPSA10    28             20.0000000000
     10906       352  AGAL      H3             25.8904004349       -4.7675665426       98.8607737785  LPSA10    28             20.0000000000
     10907       352  AGAL      O3             26.0304361515       -4.9089341091      100.9043404272  LPSA10    28             20.0000000000
     10908       352  AGAL      HO3            26.9308978776       -4.7491827570      100.5606486229  LPSA10    28             20.0000000000
     10909       352  AGAL      C4             24.5582484236       -6.2071061147       99.5102226768  LPSA10    28             20.0000000000
     10910       352  AGAL      H4             25.3339637939       -6.9345956428       99.4798298294  LPSA10    28             20.0000000000
     10911       352  AGAL      O4             23.6208561676       -6.5626316385      100.4757933835  LPSA10    28             20.0000000000
     10912       352  AGAL      HO4            24.0509586734       -7.1661222687      101.0376442747  LPSA10    28             20.0000000000
     10913       352  AGAL      C6             23.4294129408       -7.5847901324       97.6362902244  LPSA10    28             20.0000000000
     10914       352  AGAL      H61            23.1832327756       -7.4870304623       96.5809275898  LPSA10    28             20.0000000000
     10915       352  AGAL      H62            24.1577197806       -8.4669253725       97.7651048223  LPSA10    28             20.0000000000
     10916       352  AGAL      O6             22.2843448837       -8.0102613538       98.3456070822  LPSA10    28             20.0000000000
     10917       352  AGAL      HO6            21.4926642561       -7.6525301816       97.9416813930  LPSA10    28             20.0000000000
     10918       353  ARHM      C1             24.2679358441       -2.4279961947      101.4808913342  LPSA10    29             21.0000000000
     10919       353  ARHM      H1             24.2171988002       -3.4411661753      101.9964955809  LPSA10    29             21.0000000000
     10920       353  ARHM      C5             23.0185649401       -0.4678735626      101.1486206043  LPSA10    29             21.0000000000
     10921       353  ARHM      H5             23.3410141933       -0.5731041839      100.0935446791  LPSA10    29             21.0000000000
     10922       353  ARHM      O5             23.0544865930       -1.7605780566      101.6833506475  LPSA10    29             21.0000000000
     10923       353  ARHM      C2             25.3721030068       -1.7317615584      102.1437305515  LPSA10    29             21.0000000000
     10924       353  ARHM      H2             26.3186536010       -2.1726102199      101.9067628034  LPSA10    29             21.0000000000
     10925       353  ARHM      O2             25.2288675303       -1.7250094679      103.5748524404  LPSA10    29             21.0000000000
     10926       353  ARHM      C3             25.3907700128       -0.3204649784      101.6289418068  LPSA10    29             21.0000000000
     10927       353  ARHM      H3             25.6551595398       -0.3370334712      100.4952263366  LPSA10    29             21.0000000000
     10928       353  ARHM      O3             26.4874413710        0.3404448643      102.1995749427  LPSA10    29             21.0000000000
     10929       353  ARHM      HO3            26.2654743819        1.2089889120      102.2092645043  LPSA10    29             21.0000000000
     10930       353  ARHM      C4             24.1291107194        0.3988564077      101.8247918557  LPSA10    29             21.0000000000
     10931       353  ARHM      H4             23.8872076396        0.5343347710      102.9338171738  LPSA10    29             21.0000000000
     10932       353  ARHM      O4             24.0556205989        1.7606457914      101.3452167393  LPSA10    29             21.0000000000
     10933       353  ARHM      HO4            24.4604798342        1.8974000878      100.4362974805  LPSA10    29             21.0000000000
     10934       353  ARHM      C6             21.5545493034        0.0016960862      101.2162231226  LPSA10    29             21.0000000000
     10935       353  ARHM      H61            20.9835102537       -0.8903399228      100.7685423143  LPSA10    29             21.0000000000
     10936       353  ARHM      H62            21.2600899508        0.1087130719      102.3013153741  LPSA10    29             21.0000000000
     10937       353  ARHM      H63            21.4462329389        0.9057157909      100.6072571094  LPSA10    29             21.0000000000
     10938       354  ARHM      C1             25.8797908238       -2.6430133463      104.3945976075  LPSA10    30             22.0000000000
     10939       354  ARHM      H1             26.9738988085       -2.5683395812      104.2094096401  LPSA10    30             22.0000000000
     10940       354  ARHM      C5             24.0093129454       -4.1956854275      104.5143062533  LPSA10    30             22.0000000000
     10941       354  ARHM      H5             23.5260060857       -3.3669755277      103.8668162917  LPSA10    30             22.0000000000
     10942       354  ARHM      O5             25.4175247722       -3.9971133085      104.2052433351  LPSA10    30             22.0000000000
     10943       354  ARHM      C2             25.6386982257       -2.2737639816      105.8471183130  LPSA10    30             22.0000000000
     10944       354  ARHM      H2             25.9419587495       -1.2944334763      106.0289718167  LPSA10    30             22.0000000000
     10945       354  ARHM      O2             26.3263404359       -3.2289074231      106.5813641610  LPSA10    30             22.0000000000
     10946       354  ARHM      C3             24.2413170149       -2.4662111192      106.2079894766  LPSA10    30             22.0000000000
     10947       354  ARHM      H3             23.6392583567       -1.9281671231      105.5270001340  LPSA10    30             22.0000000000
     10948       354  ARHM      O3             23.9063113252       -1.9776891388      107.5373891676  LPSA10    30             22.0000000000
     10949       354  ARHM      C4             23.7690042994       -3.9044656029      105.9708288384  LPSA10    30             22.0000000000
     10950       354  ARHM      H4             24.3393524222       -4.6413721357      106.5400372406  LPSA10    30             22.0000000000
     10951       354  ARHM      O4             22.4776630981       -4.1679990246      106.2997755749  LPSA10    30             22.0000000000
     10952       354  ARHM      HO4            21.7668964949       -3.9153588983      105.6964454668  LPSA10    30             22.0000000000
     10953       354  ARHM      C6             23.5747082942       -5.5736748480      104.0930490251  LPSA10    30             22.0000000000
     10954       354  ARHM      H61            22.4565379449       -5.6151613719      104.2143179997  LPSA10    30             22.0000000000
     10955       354  ARHM      H62            23.6985273179       -5.6660169741      103.0019050467  LPSA10    30             22.0000000000
     10956       354  ARHM      H63            24.1010941060       -6.4126828862      104.6493652223  LPSA10    30             22.0000000000
     10957       355  BMANNA    C1             27.6458378156       -2.8944108271      106.9502319096  LPSA10    31             23.0000000000
     10958       355  BMANNA    H1             27.6724502853       -1.8006580840      107.1550799008  LPSA10    31             23.0000000000
     10959       355  BMANNA    C5             29.9596140907       -2.7725164315      106.2136717625  LPSA10    31             23.0000000000
     10960       355  BMANNA    H5             29.8750363758       -1.7283918001      106.5467054000  LPSA10    31             23.0000000000
     10961       355  BMANNA    O5             28.6019605854       -3.1800520887      105.8742289322  LPSA10    31             23.0000000000
     10962       355  BMANNA    C2             28.0456910063       -3.6702869366      108.0830629221  LPSA10    31             23.0000000000
     10963       355  BMANNA    H2             27.3766778242       -3.3464922742      108.9031915743  LPSA10    31             23.0000000000
     10964       355  BMANNA    N              27.7915327982       -5.0455355420      107.8252935315  LPSA10    31             23.0000000000
     10965       355  BMANNA    HN             27.7804757214       -5.3447883255      106.8111160773  LPSA10    31             23.0000000000
     10966       355  BMANNA    C              27.5236908672       -5.9328166227      108.7868858964  LPSA10    31             23.0000000000
     10967       355  BMANNA    O              27.4036626554       -5.6046789736      109.9536662434  LPSA10    31             23.0000000000
     10968       355  BMANNA    CT             27.3587767845       -7.3884333254      108.3237946568  LPSA10    31             23.0000000000
     10969       355  BMANNA    HT1            28.0839812832       -7.5778650001      107.5739831696  LPSA10    31             23.0000000000
     10970       355  BMANNA    HT2            26.3408033849       -7.4990630030      107.9347099034  LPSA10    31             23.0000000000
     10971       355  BMANNA    HT3            27.3934205803       -8.0842355728      109.1768357935  LPSA10    31             23.0000000000
     10972       355  BMANNA    C3             29.4299070223       -3.2820969116      108.4884560283  LPSA10    31             23.0000000000
     10973       355  BMANNA    H3             29.5158289405       -2.1509952893      108.6988550870  LPSA10    31             23.0000000000
     10974       355  BMANNA    O3             29.7989164531       -3.8611373787      109.7404994872  LPSA10    31             23.0000000000
     10975       355  BMANNA    HO3            28.9223856018       -4.0631976686      110.0111610137  LPSA10    31             23.0000000000
     10976       355  BMANNA    C4             30.3939675844       -3.6086859312      107.4199857710  LPSA10    31             23.0000000000
     10977       355  BMANNA    H4             30.4282174701       -4.7417566102      107.0572414185  LPSA10    31             23.0000000000
     10978       355  BMANNA    O4             31.7123870062       -3.3066729673      107.8525671122  LPSA10    31             23.0000000000
     10979       355  BMANNA    HO4            31.7914169311       -2.3879305583      108.1943429300  LPSA10    31             23.0000000000
     10980       355  BMANNA    C6             30.9521155975       -2.9387945709      105.0512686782  LPSA10    31             23.0000000000
     10981       355  BMANNA    H61            31.9368900291       -2.3916552780      105.3397811046  LPSA10    31             23.0000000000
     10982       355  BMANNA    H62            31.2168128262       -3.9765180928      104.8698551944  LPSA10    31             23.0000000000
     10983       355  BMANNA    O6             30.4398334316       -2.3833741239      103.8241467834  LPSA10    31             23.0000000000
     10984       355  BMANNA    HO6            30.3995338843       -1.3850676098      103.8134147631  LPSA10    31             23.0000000000
     10985       356  BGLCNA    C1             24.2060921669       -2.8069901289      108.6103969990  LPSA10    32             23.0000000000
     10986       356  BGLCNA    H1             25.1641604787       -3.3918186479      108.4325564695  LPSA10    32             23.0000000000
     10987       356  BGLCNA    C5             23.5557745410       -4.7266742644      109.9277617404  LPSA10    32             23.0000000000
     10988       356  BGLCNA    H5             24.5215338053       -5.2137245053      109.5374749077  LPSA10    32             23.0000000000
     10989       356  BGLCNA    O5             23.1920218571       -3.7563705303      108.9423333575  LPSA10    32             23.0000000000
     10990       356  BGLCNA    C2             24.4744656351       -2.0224464849      109.8194522937  LPSA10    32             23.0000000000
     10991       356  BGLCNA    H2             23.5218420000       -1.6431468780      110.1044894257  LPSA10    32             23.0000000000
     10992       356  BGLCNA    N              25.3900728880       -0.9556909636      109.5956973249  LPSA10    32             23.0000000000
     10993       356  BGLCNA    HN             26.0606440824       -1.2399848540      108.8809076996  LPSA10    32             23.0000000000
     10994       356  BGLCNA    C              25.3852250231        0.3043568320      110.0864625708  LPSA10    32             23.0000000000
     10995       356  BGLCNA    O              24.5709129061        0.6788855372      110.9304085025  LPSA10    32             23.0000000000
     10996       356  BGLCNA    CT             26.4879487201        1.2624538476      109.5841031968  LPSA10    32             23.0000000000
     10997       356  BGLCNA    HT1            26.8348217684        0.6803570530      108.6281101354  LPSA10    32             23.0000000000
     10998       356  BGLCNA    HT2            27.3542034863        1.3534372148      110.1898124037  LPSA10    32             23.0000000000
     10999       356  BGLCNA    HT3            26.0927653767        2.2715541728      109.3122359934  LPSA10    32             23.0000000000
     11000       356  BGLCNA    C3             24.9539182237       -2.9537264774      110.8930231790  LPSA10    32             23.0000000000
     11001       356  BGLCNA    H3             25.7475791544       -3.4926954625      110.4606187373  LPSA10    32             23.0000000000
     11002       356  BGLCNA    O3             25.4616442890       -2.2965865812      112.0657798240  LPSA10    32             23.0000000000
     11003       356  BGLCNA    C4             23.8386248593       -3.9242293250      111.1707572500  LPSA10    32             23.0000000000
     11004       356  BGLCNA    H4             22.9599274706       -3.3235202151      111.5318289610  LPSA10    32             23.0000000000
     11005       356  BGLCNA    O4             24.1697009592       -4.8107330195      112.2070236435  LPSA10    32             23.0000000000
     11006       356  BGLCNA    HO4            23.8984517488       -4.4777448530      113.0745323218  LPSA10    32             23.0000000000
     11007       356  BGLCNA    C6             22.4842289760       -5.7926224479      110.0229508171  LPSA10    32             23.0000000000
     11008       356  BGLCNA    H61            22.8059747777       -6.6521278828      110.7194343748  LPSA10    32             23.0000000000
     11009       356  BGLCNA    H62            21.5598382699       -5.3518456715      110.5717638480  LPSA10    32             23.0000000000
     11010       356  BGLCNA    O6             22.1957805230       -6.3804476702      108.7709294272  LPSA10    32             23.0000000000
     11011       356  BGLCNA    HO6            23.0266538380       -6.4571849651      108.2360311317  LPSA10    32             23.0000000000
     11012       357  AGAL      C1             26.6037646071       -2.9473436531      112.6842874521  LPSA10    33             24.0000000000
     11013       357  AGAL      H1             26.4289645940       -4.0225786384      112.5979959475  LPSA10    33             24.0000000000
     11014       357  AGAL      C5             28.1234091847       -1.1857664552      112.2149219831  LPSA10    33             24.0000000000
     11015       357  AGAL      H5             27.1951696646       -0.6899610532      111.8792915250  LPSA10    33             24.0000000000
     11016       357  AGAL      O5             27.8773259618       -2.5694566091      112.0726784748  LPSA10    33             24.0000000000
     11017       357  AGAL      C2             26.6289313147       -2.5135659561      114.1482787662  LPSA10    33             24.0000000000
     11018       357  AGAL      H2             27.6054046623       -2.9668313820      114.5751854976  LPSA10    33             24.0000000000
     11019       357  AGAL      O2             25.5998014845       -3.1868470211      114.8486222260  LPSA10    33             24.0000000000
     11020       357  AGAL      C3             26.9214070385       -1.0409081578      114.2945545625  LPSA10    33             24.0000000000
     11021       357  AGAL      H3             26.1344437412       -0.4234259357      113.7405815065  LPSA10    33             24.0000000000
     11022       357  AGAL      O3             26.7771056972       -0.5614624689      115.5672660328  LPSA10    33             24.0000000000
     11023       357  AGAL      HO3            27.2438276866       -1.0106124776      116.2400186851  LPSA10    33             24.0000000000
     11024       357  AGAL      C4             28.2537066348       -0.6945964145      113.6708488317  LPSA10    33             24.0000000000
     11025       357  AGAL      H4             28.4252622030        0.3886475711      113.6729875792  LPSA10    33             24.0000000000
     11026       357  AGAL      O4             29.4495085725       -1.2721926992      114.2435538900  LPSA10    33             24.0000000000
     11027       357  AGAL      HO4            29.2661952011       -1.9253155989      114.9085525172  LPSA10    33             24.0000000000
     11028       357  AGAL      C6             29.2256915011       -0.7086790081      111.2992528405  LPSA10    33             24.0000000000
     11029       357  AGAL      H61            28.8433693534       -0.9116269175      110.2783408757  LPSA10    33             24.0000000000
     11030       357  AGAL      H62            29.4824936434        0.3665075472      111.3458027743  LPSA10    33             24.0000000000
     11031       357  AGAL      O6             30.4771125893       -1.3101856197      111.4129476537  LPSA10    33             24.0000000000
     11032       357  AGAL      HO6            30.5806018657       -2.1150496834      110.8444757795  LPSA10    33             24.0000000000
     11033       358  ARHM      C1             26.0086204284       -3.8324205025      116.0109133884  LPSA10    34             25.0000000000
     11034       358  ARHM      H1             26.6589478037       -3.1998001201      116.6389743656  LPSA10    34             25.0000000000
     11035       358  ARHM      C5             26.1008891236       -6.0594819533      115.0727799907  LPSA10    34             25.0000000000
     11036       358  ARHM      H5             25.9043858377       -5.6204823219      114.0209633333  LPSA10    34             25.0000000000
     11037       358  ARHM      O5             26.7819335575       -5.0441019813      115.8926868953  LPSA10    34             25.0000000000
     11038       358  ARHM      C2             24.7331272495       -4.0989948870      116.7601555753  LPSA10    34             25.0000000000
     11039       358  ARHM      H2             24.0368119497       -3.2238503216      116.8710959342  LPSA10    34             25.0000000000
     11040       358  ARHM      O2             24.9206034352       -4.6092908153      118.1592972339  LPSA10    34             25.0000000000
     11041       358  ARHM      C3             23.9482940782       -5.1574395433      115.9988665506  LPSA10    34             25.0000000000
     11042       358  ARHM      H3             23.7266161798       -4.8281837412      114.9724172480  LPSA10    34             25.0000000000
     11043       358  ARHM      O3             22.6846990052       -5.5501172299      116.5878695042  LPSA10    34             25.0000000000
     11044       358  ARHM      HO3            21.9898629237       -5.7055567550      115.9559434517  LPSA10    34             25.0000000000
     11045       358  ARHM      C4             24.7669216439       -6.4619843463      115.7987835878  LPSA10    34             25.0000000000
     11046       358  ARHM      H4             25.1531775155       -6.8649602436      116.7495315617  LPSA10    34             25.0000000000
     11047       358  ARHM      O4             24.0649431871       -7.4483858108      115.1362621200  LPSA10    34             25.0000000000
     11048       358  ARHM      HO4            23.4245589629       -7.8823936001      115.6953140327  LPSA10    34             25.0000000000
     11049       358  ARHM      C6             27.0068237844       -7.3216676925      114.8413279703  LPSA10    34             25.0000000000
     11050       358  ARHM      H61            27.2585768463       -7.8826575907      115.7172490283  LPSA10    34             25.0000000000
     11051       358  ARHM      H62            26.3631844704       -8.1026691159      114.3996926230  LPSA10    34             25.0000000000
     11052       358  ARHM      H63            27.8678127193       -7.1958174063      114.1590834060  LPSA10    34             25.0000000000
     11053       359  ARHM      C1             25.6618093964       -3.7820553377      119.0795908573  LPSA10    35             26.0000000000
     11054       359  ARHM      H1             25.3743701177       -2.6673557659      118.8787348947  LPSA10    35             26.0000000000
     11055       359  ARHM      C5             27.5537771372       -5.2973036959      119.2408916176  LPSA10    35             26.0000000000
     11056       359  ARHM      H5             27.0394240286       -6.0582915683      118.5254732223  LPSA10    35             26.0000000000
     11057       359  ARHM      O5             27.1383220663       -3.9126913415      118.9290334222  LPSA10    35             26.0000000000
     11058       359  ARHM      C2             25.2669530542       -4.1193024587      120.5365485050  LPSA10    35             26.0000000000
     11059       359  ARHM      H2             24.1732293946       -3.9124764433      120.7134209997  LPSA10    35             26.0000000000
     11060       359  ARHM      O2             25.9565447237       -3.3071615862      121.4126203716  LPSA10    35             26.0000000000
     11061       359  ARHM      C3             25.6354644725       -5.5819432387      120.8720061906  LPSA10    35             26.0000000000
     11062       359  ARHM      H3             25.0500890063       -6.2229020232      120.1344793452  LPSA10    35             26.0000000000
     11063       359  ARHM      O3             25.1723256960       -5.9520211804      122.1540075829  LPSA10    35             26.0000000000
     11064       359  ARHM      HO3            25.2198534043       -5.1850144319      122.7288731339  LPSA10    35             26.0000000000
     11065       359  ARHM      C4             27.1203699988       -5.7230333225      120.6788917534  LPSA10    35             26.0000000000
     11066       359  ARHM      H4             27.7334741748       -5.0414016910      121.3307119103  LPSA10    35             26.0000000000
     11067       359  ARHM      O4             27.4392926656       -7.1014889277      120.9693790153  LPSA10    35             26.0000000000
     11068       359  ARHM      HO4            26.8201476611       -7.7488032402      120.5581709812  LPSA10    35             26.0000000000
     11069       359  ARHM      C6             29.0638235493       -5.4843055194      118.8642347863  LPSA10    35             26.0000000000
     11070       359  ARHM      H61            29.2194145151       -5.3887846721      117.7433556958  LPSA10    35             26.0000000000
     11071       359  ARHM      H62            29.5336153068       -4.6860011536      119.4176110492  LPSA10    35             26.0000000000
     11072       359  ARHM      H63            29.3175606906       -6.5651454701      119.0633705917  LPSA10    35             26.0000000000
     11073       360  BMANNA    C1             25.5784481743       -1.9639620773      121.4471464502  LPSA10    36             27.0000000000
     11074       360  BMANNA    H1             24.5275272881       -1.8277748292      121.0972061898  LPSA10    36             27.0000000000
     11075       360  BMANNA    C5             25.7400412167        0.3412513837      120.7299884793  LPSA10    36             27.0000000000
     11076       360  BMANNA    H5             24.6878273143        0.2658387432      120.4610684421  LPSA10    36             27.0000000000
     11077       360  BMANNA    O5             26.3311059497       -0.9957436708      120.6641532654  LPSA10    36             27.0000000000
     11078       360  BMANNA    C2             25.6207546568       -1.4910426358      122.8920138725  LPSA10    36             27.0000000000
     11079       360  BMANNA    H2             24.9727647355       -2.1745758174      123.4719477421  LPSA10    36             27.0000000000
     11080       360  BMANNA    N              26.9726197816       -1.5998980721      123.4395449790  LPSA10    36             27.0000000000
     11081       360  BMANNA    HN             27.7558743709       -1.3228854768      122.8746519580  LPSA10    36             27.0000000000
     11082       360  BMANNA    C              27.1726383158       -1.7748964660      124.7737151700  LPSA10    36             27.0000000000
     11083       360  BMANNA    O              26.3049598432       -2.0163300603      125.6190347561  LPSA10    36             27.0000000000
     11084       360  BMANNA    CT             28.5501608845       -1.6253549507      125.3570716528  LPSA10    36             27.0000000000
     11085       360  BMANNA    HT1            29.0779109339       -0.7936046957      124.8802869227  LPSA10    36             27.0000000000
     11086       360  BMANNA    HT2            29.2160779696       -2.5151053125      125.1731404614  LPSA10    36             27.0000000000
     11087       360  BMANNA    HT3            28.6039002330       -1.5208937088      126.4547536948  LPSA10    36             27.0000000000
     11088       360  BMANNA    C3             25.0629771464       -0.0934396798      122.9763638711  LPSA10    36             27.0000000000
     11089       360  BMANNA    H3             24.0183702798       -0.0755675094      122.6403873786  LPSA10    36             27.0000000000
     11090       360  BMANNA    O3             25.0225199918        0.3979702792      124.3414054450  LPSA10    36             27.0000000000
     11091       360  BMANNA    HO3            24.1666445550        0.5754023573      124.7171830083  LPSA10    36             27.0000000000
     11092       360  BMANNA    C4             25.8148741915        0.8506162828      122.1146940524  LPSA10    36             27.0000000000
     11093       360  BMANNA    H4             26.8294387963        0.9617752128      122.4263894750  LPSA10    36             27.0000000000
     11094       360  BMANNA    O4             25.2966103977        2.1753166001      122.2172873890  LPSA10    36             27.0000000000
     11095       360  BMANNA    HO4            25.3897703465        2.2682087136      123.1985163392  LPSA10    36             27.0000000000
     11096       360  BMANNA    C6             26.4095174705        1.2089922677      119.7412642597  LPSA10    36             27.0000000000
     11097       360  BMANNA    H61            26.2627578101        0.8384285801      118.6946701192  LPSA10    36             27.0000000000
     11098       360  BMANNA    H62            25.8092656569        2.1233761702      119.7045442506  LPSA10    36             27.0000000000
     11099       360  BMANNA    O6             27.8143684040        1.4802315588      120.0914698020  LPSA10    36             27.0000000000
     11100       360  BMANNA    HO6            27.7959717585        2.2675967815      120.6476247167  LPSA10    36             27.0000000000
     11101       361  ECLIPA    HB6S           18.3821870193      -15.9527312750       20.4612168218  LPSA11    1               0.0000000000
     11102       361  ECLIPA    OB6            19.6944272402      -15.0749551302       21.7140249152  LPSA11    1               0.0000000000
     11103       361  ECLIPA    CB6            18.6281837630      -14.9542798179       20.7042159014  LPSA11    1               0.0000000000
     11104       361  ECLIPA    HB6R           17.8356958939      -14.3183170843       21.0541931349  LPSA11    1               0.0000000000
     11105       361  ECLIPA    CB5            19.1175998323      -14.1971306452       19.3988764877  LPSA11    1               0.0000000000
     11106       361  ECLIPA    OB5            20.3238077003      -14.9490087910       18.9716901872  LPSA11    1               0.0000000000
     11107       361  ECLIPA    HB5            19.4438147676      -13.2101907441       19.7771798410  LPSA11    1               0.0000000000
     11108       361  ECLIPA    CB1            20.8728986083      -14.3563178578       17.7717324898  LPSA11    1               0.0000000000
     11109       361  ECLIPA    HB1            21.1787816963      -13.2948136567       17.9003641080  LPSA11    1               0.0000000000
     11110       361  ECLIPA    OA6            21.9691724549      -15.0940783299       17.3217246577  LPSA11    1               0.0000000000
     11111       361  ECLIPA    CA6            22.0238788497      -16.5142628018       17.5745106853  LPSA11    1               0.0000000000
     11112       361  ECLIPA    HA6R           20.9879362179      -16.8811028336       17.7226451425  LPSA11    1               0.0000000000
     11113       361  ECLIPA    HA6S           22.7578484882      -16.6844716310       18.4598965841  LPSA11    1               0.0000000000
     11114       361  ECLIPA    CB4            18.0177462498      -14.1411321432       18.3206521937  LPSA11    1               0.0000000000
     11115       361  ECLIPA    HB4            17.7034434381      -15.1592791626       18.0085584641  LPSA11    1               0.0000000000
     11116       361  ECLIPA    OB4            17.0487546976      -13.2412697391       18.9017319965  LPSA11    1               0.0000000000
     11117       361  ECLIPA    PB             15.5998663865      -13.8022414817       19.3234616795  LPSA11    1               0.0000000000
     11118       361  ECLIPA    OPB4           15.1458371018      -13.0012525033       20.5579515876  LPSA11    1               0.0000000000
     11119       361  ECLIPA    OPB3           15.9401781554      -15.2741655079       19.6614545037  LPSA11    1               0.0000000000
     11120       361  ECLIPA    OPB2           14.6986598133      -13.7125328903       18.0829495795  LPSA11    1               0.0000000000
     11121       361  ECLIPA    CB3            18.6624867767      -13.5219360111       17.0955893951  LPSA11    1               0.0000000000
     11122       361  ECLIPA    OB3            17.8376617852      -13.4598185502       15.9186528231  LPSA11    1               0.0000000000
     11123       361  ECLIPA    HB3            19.1744666584      -12.5389857978       17.3284540628  LPSA11    1               0.0000000000
     11124       361  ECLIPA    C71            17.1599923815      -12.3842436100       15.6929469039  LPSA11    1               0.0000000000
     11125       361  ECLIPA    O71            17.2492812295      -11.3424771106       16.3832172580  LPSA11    1               0.0000000000
     11126       361  ECLIPA    C72            16.3998128328      -12.5791821674       14.3548430386  LPSA11    1               0.0000000000
     11127       361  ECLIPA    H72R           17.1281741678      -12.8036257890       13.5774555414  LPSA11    1               0.0000000000
     11128       361  ECLIPA    H72S           15.7448117315      -11.6315386222       14.1464415926  LPSA11    1               0.0000000000
     11129       361  ECLIPA    CB2            19.8683669594      -14.3839444741       16.6720734084  LPSA11    1               0.0000000000
     11130       361  ECLIPA    HB2            19.4472078623      -15.4792017221       16.5298168153  LPSA11    1               0.0000000000
     11131       361  ECLIPA    NB2            20.5417628277      -13.8759804101       15.4577284722  LPSA11    1               0.0000000000
     11132       361  ECLIPA    HNB2           21.2273099417      -13.1626655962       15.5965609326  LPSA11    1               0.0000000000
     11133       361  ECLIPA    CA4            23.7811818999      -16.4820027886       15.7929312798  LPSA11    1               0.0000000000
     11134       361  ECLIPA    HA4            23.4866239028      -15.4448315701       15.4903430209  LPSA11    1               0.0000000000
     11135       361  ECLIPA    OA4            24.7444758345      -16.4241231938       16.8012065728  LPSA11    1               0.0000000000
     11136       361  ECLIPA    HOA4           24.4030538079      -16.1210073386       17.5928838569  LPSA11    1               0.0000000000
     11137       361  ECLIPA    CA5            22.6100896829      -17.1733990506       16.3547806008  LPSA11    1               0.0000000000
     11138       361  ECLIPA    HA5            22.7184408659      -18.3123662449       16.5880746347  LPSA11    1               0.0000000000
     11139       361  ECLIPA    OA5            21.5690171621      -17.1336612802       15.3689671688  LPSA11    1               0.0000000000
     11140       361  ECLIPA    CA1            21.9933450097      -17.7627787592       14.1076640156  LPSA11    1               0.0000000000
     11141       361  ECLIPA    HA1            21.2170243397      -17.3401882212       13.4118188108  LPSA11    1               0.0000000000
     11142       361  ECLIPA    OA1            21.8971794326      -19.1733852001       14.1359876212  LPSA11    1               0.0000000000
     11143       361  ECLIPA    OPA2           21.1199740332      -20.5286300753       15.9734101064  LPSA11    1               0.0000000000
     11144       361  ECLIPA    OPA3           19.4520997539      -18.9759130385       14.8300177673  LPSA11    1               0.0000000000
     11145       361  ECLIPA    OPA4           20.2603453995      -20.9746892720       13.6615320840  LPSA11    1               0.0000000000
     11146       361  ECLIPA    PA             20.6153562107      -19.9113747109       14.6765383084  LPSA11    1               0.0000000000
     11147       361  ECLIPA    CA3            24.3175792863      -17.1248394688       14.5219348229  LPSA11    1               0.0000000000
     11148       361  ECLIPA    HA3            24.7062922342      -18.1961695734       14.7377032538  LPSA11    1               0.0000000000
     11149       361  ECLIPA    OA3            25.5108385174      -16.4124154262       14.2498111976  LPSA11    1               0.0000000000
     11150       361  ECLIPA    C31            25.3773209449      -15.2716797363       13.5006246295  LPSA11    1               0.0000000000
     11151       361  ECLIPA    O31            25.2219320686      -15.2117070164       12.2941239937  LPSA11    1               0.0000000000
     11152       361  ECLIPA    C32            25.9803193907      -14.0927264872       14.2780289507  LPSA11    1               0.0000000000
     11153       361  ECLIPA    H32R           26.8558820931      -13.7179554541       13.7149713840  LPSA11    1               0.0000000000
     11154       361  ECLIPA    H32S           26.2756066557      -14.4163204980       15.2729523512  LPSA11    1               0.0000000000
     11155       361  ECLIPA    CA2            23.1989556280      -17.0857322976       13.4984733916  LPSA11    1               0.0000000000
     11156       361  ECLIPA    HA2            22.8873219394      -16.0427987081       13.3982259915  LPSA11    1               0.0000000000
     11157       361  ECLIPA    NA2            23.5599571684      -17.7006153486       12.2035087571  LPSA11    1               0.0000000000
     11158       361  ECLIPA    HNA2           24.4976173362      -17.9230430817       12.0865030408  LPSA11    1               0.0000000000
     11159       361  ECLIPA    C73            15.4124126213      -13.7171502194       14.3319064372  LPSA11    1               0.0000000000
     11160       361  ECLIPA    H73R           14.7968787121      -13.7611202767       15.2227416964  LPSA11    1               0.0000000000
     11161       361  ECLIPA    O73            16.1929032527      -14.9364372911       14.2644256719  LPSA11    1               0.0000000000
     11162       361  ECLIPA    C81            15.8485913368      -16.0927087860       14.8555734565  LPSA11    1               0.0000000000
     11163       361  ECLIPA    O81            14.8719687285      -16.0966044657       15.6690894779  LPSA11    1               0.0000000000
     11164       361  ECLIPA    C82            16.7054946309      -17.2714719463       14.3536111794  LPSA11    1               0.0000000000
     11165       361  ECLIPA    H82R           16.4419378583      -18.1982803036       14.8531840528  LPSA11    1               0.0000000000
     11166       361  ECLIPA    H82S           17.7907257917      -17.0925845158       14.5323473422  LPSA11    1               0.0000000000
     11167       361  ECLIPA    C83            16.5236102300      -17.4419757538       12.8301722806  LPSA11    1               0.0000000000
     11168       361  ECLIPA    H83R           17.1842977066      -16.7057350549       12.2351841548  LPSA11    1               0.0000000000
     11169       361  ECLIPA    H83S           15.5118763102      -17.1095773919       12.5911296392  LPSA11    1               0.0000000000
     11170       361  ECLIPA    C84            16.9305748053      -18.8340264867       12.3050927261  LPSA11    1               0.0000000000
     11171       361  ECLIPA    H84R           16.1437987748      -19.5484562903       12.5767117503  LPSA11    1               0.0000000000
     11172       361  ECLIPA    H84S           17.8940678003      -19.0020317188       12.7369555497  LPSA11    1               0.0000000000
     11173       361  ECLIPA    C85            17.1126474140      -18.8207163922       10.7695484051  LPSA11    1               0.0000000000
     11174       361  ECLIPA    H85R           17.6648158779      -17.8977153650       10.5503608829  LPSA11    1               0.0000000000
     11175       361  ECLIPA    H85S           16.1195573776      -18.7082460102       10.2367999955  LPSA11    1               0.0000000000
     11176       361  ECLIPA    C86            17.9988702992      -20.0090471849       10.3034592726  LPSA11    1               0.0000000000
     11177       361  ECLIPA    H86R           17.3996080957      -20.9284383352        9.9932223571  LPSA11    1               0.0000000000
     11178       361  ECLIPA    H86S           18.6624175147      -20.3391249155       11.0807540114  LPSA11    1               0.0000000000
     11179       361  ECLIPA    C87            18.9896501307      -19.5993895702        9.1601018854  LPSA11    1               0.0000000000
     11180       361  ECLIPA    H87R           19.5577722061      -20.4530889985        8.8049419625  LPSA11    1               0.0000000000
     11181       361  ECLIPA    H87S           19.7604866014      -18.8759637483        9.5406723883  LPSA11    1               0.0000000000
     11182       361  ECLIPA    C88            18.2869101078      -18.8855302343        8.0318999685  LPSA11    1               0.0000000000
     11183       361  ECLIPA    H88R           18.0169182990      -17.8251007314        8.3479828359  LPSA11    1               0.0000000000
     11184       361  ECLIPA    H88S           17.2403718609      -19.2949604675        7.9254521495  LPSA11    1               0.0000000000
     11185       361  ECLIPA    C89            19.1152231871      -18.7717462830        6.7101000712  LPSA11    1               0.0000000000
     11186       361  ECLIPA    H89R           20.1996989215      -18.9503932812        6.8746682686  LPSA11    1               0.0000000000
     11187       361  ECLIPA    H89S           19.0660694005      -17.8124408454        6.2317001698  LPSA11    1               0.0000000000
     11188       361  ECLIPA    C810           18.5496020426      -19.7905197202        5.7047246593  LPSA11    1               0.0000000000
     11189       361  ECLIPA    H810R          17.4885049357      -19.8358587450        6.0108430704  LPSA11    1               0.0000000000
     11190       361  ECLIPA    H810S          19.0280104821      -20.7391029681        5.8554647029  LPSA11    1               0.0000000000
     11191       361  ECLIPA    C811           18.6876699499      -19.4194368165        4.2179945741  LPSA11    1               0.0000000000
     11192       361  ECLIPA    H811R          18.6097400724      -20.1959111246        3.5081125689  LPSA11    1               0.0000000000
     11193       361  ECLIPA    H811S          19.6922206455      -18.8540221516        4.1819101877  LPSA11    1               0.0000000000
     11194       361  ECLIPA    C812           17.7651874688      -18.2868533061        3.7413673409  LPSA11    1               0.0000000000
     11195       361  ECLIPA    H812R          18.0993528707      -18.0132360922        2.6403157337  LPSA11    1               0.0000000000
     11196       361  ECLIPA    H812S          17.7196768001      -17.4398199950        4.4144737196  LPSA11    1               0.0000000000
     11197       361  ECLIPA    C813           16.2740278795      -18.6657315887        3.6785234959  LPSA11    1               0.0000000000
     11198       361  ECLIPA    H813R          16.1917705060      -19.4979118620        2.9398073555  LPSA11    1               0.0000000000
     11199       361  ECLIPA    H813S          15.8101983794      -19.0510470571        4.6616087352  LPSA11    1               0.0000000000
     11200       361  ECLIPA    C814           15.3889235440      -17.5617599204        3.1377409857  LPSA11    1               0.0000000000
     11201       361  ECLIPA    H814R          15.7690169176      -17.0186974801        2.1719074593  LPSA11    1               0.0000000000
     11202       361  ECLIPA    H814S          15.2474056060      -16.8002437161        3.9166242729  LPSA11    1               0.0000000000
     11203       361  ECLIPA    H814T          14.3736745530      -17.9511496039        2.8964685373  LPSA11    1               0.0000000000
     11204       361  ECLIPA    C74            14.4425244022      -13.8278440390       13.1792855021  LPSA11    1               0.0000000000
     11205       361  ECLIPA    H74R           13.7296287826      -13.0264246210       12.9935747315  LPSA11    1               0.0000000000
     11206       361  ECLIPA    H74S           13.8155142772      -14.7950530407       13.3086690609  LPSA11    1               0.0000000000
     11207       361  ECLIPA    C75            15.2063385613      -14.1175808782       11.8151371119  LPSA11    1               0.0000000000
     11208       361  ECLIPA    H75R           14.5275142329      -14.8216053920       11.2107603889  LPSA11    1               0.0000000000
     11209       361  ECLIPA    H75S           16.1577237585      -14.6494667578       12.0082837783  LPSA11    1               0.0000000000
     11210       361  ECLIPA    C76            15.5068142254      -12.8802302153       10.9251453624  LPSA11    1               0.0000000000
     11211       361  ECLIPA    H76R           16.3982156589      -12.3460548069       11.3555905686  LPSA11    1               0.0000000000
     11212       361  ECLIPA    H76S           14.6608317048      -12.0758425425       10.9731137071  LPSA11    1               0.0000000000
     11213       361  ECLIPA    C77            15.7772534113      -13.1250591793        9.4191603634  LPSA11    1               0.0000000000
     11214       361  ECLIPA    H77R           14.8933531428      -13.5779895768        9.0408775908  LPSA11    1               0.0000000000
     11215       361  ECLIPA    H77S           16.5289831819      -13.9368064339        9.2852383479  LPSA11    1               0.0000000000
     11216       361  ECLIPA    C78            16.2996728144      -11.8088452616        8.8297405752  LPSA11    1               0.0000000000
     11217       361  ECLIPA    H78R           15.6258071473      -11.0175008268        9.1562620580  LPSA11    1               0.0000000000
     11218       361  ECLIPA    H78S           17.3041909233      -11.6695979424        9.3169442960  LPSA11    1               0.0000000000
     11219       361  ECLIPA    C79            16.6716932833      -11.9145884313        7.2570767761  LPSA11    1               0.0000000000
     11220       361  ECLIPA    H79R           17.7862986196      -12.1024796539        7.1763205913  LPSA11    1               0.0000000000
     11221       361  ECLIPA    H79S           16.4584389156      -10.9491092108        6.7882549413  LPSA11    1               0.0000000000
     11222       361  ECLIPA    C710           15.7998735093      -12.8174286948        6.3785096220  LPSA11    1               0.0000000000
     11223       361  ECLIPA    H710R          15.8786884576      -13.8266956161        6.8460783027  LPSA11    1               0.0000000000
     11224       361  ECLIPA    H710S          14.8315588243      -12.5008467500        6.4843026416  LPSA11    1               0.0000000000
     11225       361  ECLIPA    C711           16.2593453368      -12.9129887896        4.9384125046  LPSA11    1               0.0000000000
     11226       361  ECLIPA    H711R          16.1638858475      -11.8906497951        4.5670708729  LPSA11    1               0.0000000000
     11227       361  ECLIPA    H711S          17.3099002067      -13.3002873943        4.9306188492  LPSA11    1               0.0000000000
     11228       361  ECLIPA    C712           15.3624312355      -13.9014626676        4.2148670498  LPSA11    1               0.0000000000
     11229       361  ECLIPA    H712R          14.3420492772      -13.5148185455        4.3130666899  LPSA11    1               0.0000000000
     11230       361  ECLIPA    H712S          15.3888354201      -14.8011714992        4.8522839389  LPSA11    1               0.0000000000
     11231       361  ECLIPA    C713           15.8718209823      -14.1900800668        2.7357390519  LPSA11    1               0.0000000000
     11232       361  ECLIPA    H713R          16.8896921536      -14.6484930000        2.8800411466  LPSA11    1               0.0000000000
     11233       361  ECLIPA    H713S          15.1126444568      -14.9245465421        2.2750064041  LPSA11    1               0.0000000000
     11234       361  ECLIPA    C714           15.8101241973      -12.9061383030        1.8879763961  LPSA11    1               0.0000000000
     11235       361  ECLIPA    H714R          14.7752181224      -12.5577060587        1.7626189762  LPSA11    1               0.0000000000
     11236       361  ECLIPA    H714S          16.5457336072      -12.1581670830        2.2081901572  LPSA11    1               0.0000000000
     11237       361  ECLIPA    H714T          16.1032451689      -13.2798629005        0.9249202435  LPSA11    1               0.0000000000
     11238       361  ECLIPA    C51            20.0770201539      -14.1922464288       14.2380633031  LPSA11    1               0.0000000000
     11239       361  ECLIPA    O51            19.3426199258      -15.1975264491       14.1304636378  LPSA11    1               0.0000000000
     11240       361  ECLIPA    C52            20.3919540350      -13.2554077209       13.0157035712  LPSA11    1               0.0000000000
     11241       361  ECLIPA    H52R           19.7037156331      -12.4311835234       12.8950255930  LPSA11    1               0.0000000000
     11242       361  ECLIPA    H52S           21.3760048002      -12.8980629437       13.2222025935  LPSA11    1               0.0000000000
     11243       361  ECLIPA    C53            20.5349551666      -14.1873219816       11.7526064304  LPSA11    1               0.0000000000
     11244       361  ECLIPA    H53R           20.8267383811      -15.2006489642       12.0082431084  LPSA11    1               0.0000000000
     11245       361  ECLIPA    O53            21.3918400131      -13.4782955366       10.8431816314  LPSA11    1               0.0000000000
     11246       361  ECLIPA    C61            22.5471794966      -14.0292368471       10.5090573566  LPSA11    1               0.0000000000
     11247       361  ECLIPA    O61            22.9488745081      -15.0921840734       10.8659713306  LPSA11    1               0.0000000000
     11248       361  ECLIPA    C62            23.3066761313      -13.0768051246        9.5765835255  LPSA11    1               0.0000000000
     11249       361  ECLIPA    H62R           23.7728327277      -12.2971087742       10.2152837125  LPSA11    1               0.0000000000
     11250       361  ECLIPA    H62S           22.5296680779      -12.4847231653        9.0470049452  LPSA11    1               0.0000000000
     11251       361  ECLIPA    C63            24.3192039359      -13.8349426150        8.6803029234  LPSA11    1               0.0000000000
     11252       361  ECLIPA    H63R           23.7939949339      -14.7171076587        8.2798705976  LPSA11    1               0.0000000000
     11253       361  ECLIPA    H63S           25.2226020764      -14.2246453574        9.3252199642  LPSA11    1               0.0000000000
     11254       361  ECLIPA    C64            24.9057163108      -13.1156739764        7.5279067597  LPSA11    1               0.0000000000
     11255       361  ECLIPA    H64R           25.6994336856      -13.7224165219        6.9620099216  LPSA11    1               0.0000000000
     11256       361  ECLIPA    H64S           25.3744548406      -12.1595258690        7.9657393466  LPSA11    1               0.0000000000
     11257       361  ECLIPA    C65            23.7682775909      -12.6737484311        6.5414948800  LPSA11    1               0.0000000000
     11258       361  ECLIPA    H65R           23.1698960323      -12.0383728678        7.2423230371  LPSA11    1               0.0000000000
     11259       361  ECLIPA    H65S           23.2198145393      -13.5725042478        6.1828980290  LPSA11    1               0.0000000000
     11260       361  ECLIPA    C66            24.2028170047      -11.8869899093        5.2222643966  LPSA11    1               0.0000000000
     11261       361  ECLIPA    H66R           24.7027465346      -10.9743291728        5.5395647249  LPSA11    1               0.0000000000
     11262       361  ECLIPA    H66S           23.1757690279      -11.6552176782        4.8113963288  LPSA11    1               0.0000000000
     11263       361  ECLIPA    C67            24.9994325491      -12.6155749130        4.1696839457  LPSA11    1               0.0000000000
     11264       361  ECLIPA    H67R           25.8755064094      -13.1234345382        4.5058181646  LPSA11    1               0.0000000000
     11265       361  ECLIPA    H67S           25.2915105213      -11.9015733223        3.3478820057  LPSA11    1               0.0000000000
     11266       361  ECLIPA    C68            24.2583919054      -13.7476505524        3.5077075145  LPSA11    1               0.0000000000
     11267       361  ECLIPA    H68R           23.2822674507      -13.5321778786        3.0112508411  LPSA11    1               0.0000000000
     11268       361  ECLIPA    H68S           24.1795712435      -14.4604783192        4.3087918325  LPSA11    1               0.0000000000
     11269       361  ECLIPA    C69            25.0470950504      -14.2426412026        2.2963532923  LPSA11    1               0.0000000000
     11270       361  ECLIPA    H69R           26.1426947450      -14.0848473694        2.3203210098  LPSA11    1               0.0000000000
     11271       361  ECLIPA    H69S           24.7611716692      -13.5958022548        1.4693744207  LPSA11    1               0.0000000000
     11272       361  ECLIPA    C610           24.7824263248      -15.6597700399        1.9396251084  LPSA11    1               0.0000000000
     11273       361  ECLIPA    H610R          23.6881218196      -15.8906299000        2.0603347121  LPSA11    1               0.0000000000
     11274       361  ECLIPA    H610S          25.2905589563      -16.3458734295        2.6933643884  LPSA11    1               0.0000000000
     11275       361  ECLIPA    C611           25.3432370177      -16.0648000464        0.5312153135  LPSA11    1               0.0000000000
     11276       361  ECLIPA    H611R          26.4332463251      -15.8734276952        0.5735373188  LPSA11    1               0.0000000000
     11277       361  ECLIPA    H611S          25.3747950111      -17.1305023014        0.3609598123  LPSA11    1               0.0000000000
     11278       361  ECLIPA    C612           24.5767328644      -15.3655691363       -0.5788949292  LPSA11    1               0.0000000000
     11279       361  ECLIPA    H612R          23.5325268479      -15.7867074959       -0.6060949542  LPSA11    1               0.0000000000
     11280       361  ECLIPA    H612S          24.4410569123      -14.3098576945       -0.3132441764  LPSA11    1               0.0000000000
     11281       361  ECLIPA    H612T          25.0431998031      -15.5103000765       -1.5574606966  LPSA11    1               0.0000000000
     11282       361  ECLIPA    C54            19.1072841738      -14.2286625026       11.1776054589  LPSA11    1               0.0000000000
     11283       361  ECLIPA    H54R           18.8115209469      -13.1767122655       10.8869876633  LPSA11    1               0.0000000000
     11284       361  ECLIPA    H54S           18.3855822975      -14.5208882221       11.9574517429  LPSA11    1               0.0000000000
     11285       361  ECLIPA    C55            18.8130610184      -15.1393732709        9.9916770240  LPSA11    1               0.0000000000
     11286       361  ECLIPA    H55R           17.7313755413      -15.3053705507        9.7856946516  LPSA11    1               0.0000000000
     11287       361  ECLIPA    H55S           19.2572123228      -16.1674891121       10.2436295858  LPSA11    1               0.0000000000
     11288       361  ECLIPA    C56            19.3271110016      -14.4578862964        8.7515486822  LPSA11    1               0.0000000000
     11289       361  ECLIPA    H56R           20.4438225174      -14.2874171508        8.8382497819  LPSA11    1               0.0000000000
     11290       361  ECLIPA    H56S           18.8930511472      -13.5450189268        8.4741334449  LPSA11    1               0.0000000000
     11291       361  ECLIPA    C57            19.3740178578      -15.3287444575        7.4395707935  LPSA11    1               0.0000000000
     11292       361  ECLIPA    H57R           18.4065899420      -15.7639600465        7.1827428724  LPSA11    1               0.0000000000
     11293       361  ECLIPA    H57S           20.0505794022      -16.2058682311        7.5196553379  LPSA11    1               0.0000000000
     11294       361  ECLIPA    C58            19.9638622341      -14.4876424950        6.2350750625  LPSA11    1               0.0000000000
     11295       361  ECLIPA    H58R           19.5230691731      -13.4527139885        6.2095761879  LPSA11    1               0.0000000000
     11296       361  ECLIPA    H58S           21.0207733835      -14.2329118522        6.5224540661  LPSA11    1               0.0000000000
     11297       361  ECLIPA    C59            19.7102779044      -15.1801997023        4.8667186835  LPSA11    1               0.0000000000
     11298       361  ECLIPA    H59R           18.6380657096      -15.3468259766        4.6589989540  LPSA11    1               0.0000000000
     11299       361  ECLIPA    H59S           20.2450580437      -16.1260367495        5.0825555512  LPSA11    1               0.0000000000
     11300       361  ECLIPA    C510           20.1496519466      -14.3097383287        3.6752379292  LPSA11    1               0.0000000000
     11301       361  ECLIPA    H510R          21.1688465283      -13.8042458248        3.7937959224  LPSA11    1               0.0000000000
     11302       361  ECLIPA    H510S          19.3812493594      -13.4376755120        3.4613250382  LPSA11    1               0.0000000000
     11303       361  ECLIPA    C511           20.1986596429      -15.0092438756        2.3004848829  LPSA11    1               0.0000000000
     11304       361  ECLIPA    H511R          21.1561020865      -15.5638268389        2.2679211996  LPSA11    1               0.0000000000
     11305       361  ECLIPA    H511S          19.3974283339      -15.7970763372        2.1940961976  LPSA11    1               0.0000000000
     11306       361  ECLIPA    C512           20.1886781533      -14.0971221806        1.0189424135  LPSA11    1               0.0000000000
     11307       361  ECLIPA    H512R          20.0005229101      -14.7191242308        0.0815295424  LPSA11    1               0.0000000000
     11308       361  ECLIPA    H512S          19.3973862116      -13.3431021888        1.1129704346  LPSA11    1               0.0000000000
     11309       361  ECLIPA    C513           21.5956070677      -13.4424579602        0.6457389972  LPSA11    1               0.0000000000
     11310       361  ECLIPA    H513R          22.3930945871      -14.2357683465        0.5010832175  LPSA11    1               0.0000000000
     11311       361  ECLIPA    H513S          21.9296815139      -12.8462030006        1.4088770719  LPSA11    1               0.0000000000
     11312       361  ECLIPA    C514           21.5057872540      -12.6953419853       -0.6567184026  LPSA11    1               0.0000000000
     11313       361  ECLIPA    H514R          20.6997691003      -11.9624620516       -0.6273993866  LPSA11    1               0.0000000000
     11314       361  ECLIPA    H514S          22.4308988630      -12.1164666666       -0.7024724270  LPSA11    1               0.0000000000
     11315       361  ECLIPA    H514T          21.3548993019      -13.4137395360       -1.5427815912  LPSA11    1               0.0000000000
     11316       361  ECLIPA    C33            25.0608671351      -12.8054912298       14.4880792826  LPSA11    1               0.0000000000
     11317       361  ECLIPA    H33R           25.7343929168      -11.9742915141       14.8828993596  LPSA11    1               0.0000000000
     11318       361  ECLIPA    O33            24.0702681369      -13.0483128009       15.4699768821  LPSA11    1               0.0000000000
     11319       361  ECLIPA    HO33           24.4810656975      -13.0629093300       16.2926205744  LPSA11    1               0.0000000000
     11320       361  ECLIPA    C34            24.3542655935      -12.2452660898       13.2255459338  LPSA11    1               0.0000000000
     11321       361  ECLIPA    H34R           23.7138909519      -13.0106360852       12.8010908313  LPSA11    1               0.0000000000
     11322       361  ECLIPA    H34S           25.1222212642      -12.0657069325       12.3772221142  LPSA11    1               0.0000000000
     11323       361  ECLIPA    C35            23.5069220204      -10.9754971029       13.4256256262  LPSA11    1               0.0000000000
     11324       361  ECLIPA    H35R           24.1777109357      -10.1633000455       13.6963698038  LPSA11    1               0.0000000000
     11325       361  ECLIPA    H35S           22.8210065965      -11.1392021883       14.2668166019  LPSA11    1               0.0000000000
     11326       361  ECLIPA    C36            22.7776575141      -10.4170923678       12.1865608177  LPSA11    1               0.0000000000
     11327       361  ECLIPA    H36R           22.5647712787      -11.4115371061       11.7430812241  LPSA11    1               0.0000000000
     11328       361  ECLIPA    H36S           23.4096732904       -9.7927428737       11.4785220412  LPSA11    1               0.0000000000
     11329       361  ECLIPA    C37            21.4204182343       -9.8302043305       12.5255831563  LPSA11    1               0.0000000000
     11330       361  ECLIPA    H37R           21.6482220961       -8.6800848903       12.6765215637  LPSA11    1               0.0000000000
     11331       361  ECLIPA    H37S           21.0506921368      -10.1641641909       13.5128993321  LPSA11    1               0.0000000000
     11332       361  ECLIPA    C38            20.3231395855       -9.9511904489       11.4317274953  LPSA11    1               0.0000000000
     11333       361  ECLIPA    H38R           19.8388486177      -10.9415386015       11.4067421357  LPSA11    1               0.0000000000
     11334       361  ECLIPA    H38S           19.4997024089       -9.2742629815       11.7230999881  LPSA11    1               0.0000000000
     11335       361  ECLIPA    C39            20.8913768930       -9.6938702814       10.0213367345  LPSA11    1               0.0000000000
     11336       361  ECLIPA    H39R           21.7601408226      -10.3731731716        9.8128797222  LPSA11    1               0.0000000000
     11337       361  ECLIPA    H39S           21.1260302009       -8.5975754571        9.9697980947  LPSA11    1               0.0000000000
     11338       361  ECLIPA    C310           19.9090474895       -9.8428848377        8.8401719124  LPSA11    1               0.0000000000
     11339       361  ECLIPA    H310R          19.1320774134       -9.0200936445        9.0626900142  LPSA11    1               0.0000000000
     11340       361  ECLIPA    H310S          19.4008852316      -10.8497256188        8.8945759064  LPSA11    1               0.0000000000
     11341       361  ECLIPA    C311           20.6146343936       -9.9521169222        7.5676235846  LPSA11    1               0.0000000000
     11342       361  ECLIPA    H311R          21.4988641291       -9.2654251215        7.5507520616  LPSA11    1               0.0000000000
     11343       361  ECLIPA    H311S          20.9988114679      -10.9806681455        7.2851462164  LPSA11    1               0.0000000000
     11344       361  ECLIPA    C312           19.7379509563       -9.6676997267        6.3280121142  LPSA11    1               0.0000000000
     11345       361  ECLIPA    H312R          18.6944988914      -10.0403915261        6.4861373960  LPSA11    1               0.0000000000
     11346       361  ECLIPA    H312S          19.7106913229       -8.5586563545        6.1820758986  LPSA11    1               0.0000000000
     11347       361  ECLIPA    C313           20.2790029057      -10.2675015973        4.9895779706  LPSA11    1               0.0000000000
     11348       361  ECLIPA    H313R          21.1093818103       -9.6658334141        4.7825120466  LPSA11    1               0.0000000000
     11349       361  ECLIPA    H313S          20.6335532846      -11.3228495873        5.1572698764  LPSA11    1               0.0000000000
     11350       361  ECLIPA    C314           19.3613186436      -10.2538731176        3.8116661598  LPSA11    1               0.0000000000
     11351       361  ECLIPA    H314R          19.0402275935       -9.1963777164        3.6067793993  LPSA11    1               0.0000000000
     11352       361  ECLIPA    H314S          19.7634950066      -10.6714712316        2.8849361441  LPSA11    1               0.0000000000
     11353       361  ECLIPA    H314T          18.3941117361      -10.8230966925        4.0446347774  LPSA11    1               0.0000000000
     11354       361  ECLIPA    C11            22.7253291842      -18.1308395938       11.2900808200  LPSA11    1               0.0000000000
     11355       361  ECLIPA    O11            21.5378653518      -17.8708813780       11.1394597694  LPSA11    1               0.0000000000
     11356       361  ECLIPA    C12            23.3305513532      -19.1555972569       10.2853014675  LPSA11    1               0.0000000000
     11357       361  ECLIPA    H12R           22.9528213094      -20.1907029865       10.4852637814  LPSA11    1               0.0000000000
     11358       361  ECLIPA    H12S           24.4264831006      -19.1078449147       10.5222272274  LPSA11    1               0.0000000000
     11359       361  ECLIPA    C13            23.1217319939      -18.8361258280        8.8110583416  LPSA11    1               0.0000000000
     11360       361  ECLIPA    H13R           22.0454660253      -18.4846576100        8.5839874118  LPSA11    1               0.0000000000
     11361       361  ECLIPA    O13            23.3092294702      -20.1046730838        8.1311342176  LPSA11    1               0.0000000000
     11362       361  ECLIPA    HO13           22.8594127587      -20.0958107820        7.3064966676  LPSA11    1               0.0000000000
     11363       361  ECLIPA    C14            24.0860467149      -17.7278357900        8.4581579993  LPSA11    1               0.0000000000
     11364       361  ECLIPA    H14R           25.1084677652      -17.8559059401        8.9706443184  LPSA11    1               0.0000000000
     11365       361  ECLIPA    H14S           23.5950557231      -16.7686282917        8.7243868424  LPSA11    1               0.0000000000
     11366       361  ECLIPA    C15            24.3937748059      -17.6210401464        6.9526486677  LPSA11    1               0.0000000000
     11367       361  ECLIPA    H15R           24.6960536968      -18.5734328171        6.5500123177  LPSA11    1               0.0000000000
     11368       361  ECLIPA    H15S           25.1844338755      -16.8726731365        6.8782608049  LPSA11    1               0.0000000000
     11369       361  ECLIPA    C16            23.1352474595      -17.1832882297        6.1622847334  LPSA11    1               0.0000000000
     11370       361  ECLIPA    H16R           22.9445018068      -16.0538605520        6.2733383262  LPSA11    1               0.0000000000
     11371       361  ECLIPA    H16S           22.2547268549      -17.5485292926        6.7182496574  LPSA11    1               0.0000000000
     11372       361  ECLIPA    C17            23.1994110698      -17.5450369584        4.6801229578  LPSA11    1               0.0000000000
     11373       361  ECLIPA    H17R           24.2597565985      -17.2383920821        4.4246758429  LPSA11    1               0.0000000000
     11374       361  ECLIPA    H17S           22.5459520259      -16.9831621921        4.0046542873  LPSA11    1               0.0000000000
     11375       361  ECLIPA    C18            22.9748711539      -19.0147570295        4.4504458171  LPSA11    1               0.0000000000
     11376       361  ECLIPA    H18R           23.6990620830      -19.4495582660        5.0865821920  LPSA11    1               0.0000000000
     11377       361  ECLIPA    H18S           21.9228593491      -19.2582743017        4.7749867078  LPSA11    1               0.0000000000
     11378       361  ECLIPA    C19            23.1783698670      -19.4123661551        3.0097966450  LPSA11    1               0.0000000000
     11379       361  ECLIPA    H19R           23.1284018141      -20.4887491914        2.9245509529  LPSA11    1               0.0000000000
     11380       361  ECLIPA    H19S           24.1834053842      -19.0380148391        2.6238151240  LPSA11    1               0.0000000000
     11381       361  ECLIPA    C110           22.0449109996      -18.8706774947        2.1045801788  LPSA11    1               0.0000000000
     11382       361  ECLIPA    H110R          21.0287740553      -19.0819805123        2.4416701971  LPSA11    1               0.0000000000
     11383       361  ECLIPA    H110S          22.2683668203      -17.7824316841        2.1583327743  LPSA11    1               0.0000000000
     11384       361  ECLIPA    C111           22.2622524667      -19.3627057136        0.7563571155  LPSA11    1               0.0000000000
     11385       361  ECLIPA    H111R          23.3297014023      -19.3308187122        0.3999767799  LPSA11    1               0.0000000000
     11386       361  ECLIPA    H111S          22.0413601850      -20.3975861122        0.7977177860  LPSA11    1               0.0000000000
     11387       361  ECLIPA    C112           21.3338433412      -18.7327544836       -0.2937360943  LPSA11    1               0.0000000000
     11388       361  ECLIPA    H112R          20.3517236736      -18.9603727714        0.1973446929  LPSA11    1               0.0000000000
     11389       361  ECLIPA    H112S          21.3342314694      -17.6424803701       -0.2177998937  LPSA11    1               0.0000000000
     11390       361  ECLIPA    C113           21.6950108214      -19.0812890675       -1.7468031795  LPSA11    1               0.0000000000
     11391       361  ECLIPA    H113R          22.6782028357      -18.6111423186       -1.9802017524  LPSA11    1               0.0000000000
     11392       361  ECLIPA    H113S          21.8916735244      -20.1528656868       -1.8531093719  LPSA11    1               0.0000000000
     11393       361  ECLIPA    C114           20.6813788179      -18.8300186515       -2.8344928043  LPSA11    1               0.0000000000
     11394       361  ECLIPA    H114R          19.6585952035      -19.1931840446       -2.7829422503  LPSA11    1               0.0000000000
     11395       361  ECLIPA    H114S          20.5730774522      -17.7209022316       -2.9951089580  LPSA11    1               0.0000000000
     11396       361  ECLIPA    H114T          20.9763048445      -19.3954373129       -3.7399523103  LPSA11    1               0.0000000000
     11397       362  AKDO      C1             19.6746514939      -12.8495439609       22.4410509549  LPSA11    2               0.0000000000
     11398       362  AKDO      O11            18.6021652434      -12.1549148026       22.4913720772  LPSA11    2               0.0000000000
     11399       362  AKDO      O12            20.8407920434      -12.5251568151       22.0800765534  LPSA11    2               0.0000000000
     11400       362  AKDO      C2             19.5216679529      -14.3057794111       22.8913181237  LPSA11    2               0.0000000000
     11401       362  AKDO      C6             17.9464522904      -15.8186981316       23.8039205188  LPSA11    2               0.0000000000
     11402       362  AKDO      H6             18.0266534151      -16.4374368742       22.9487387861  LPSA11    2               0.0000000000
     11403       362  AKDO      O6             18.2464964519      -14.4149412768       23.4267274814  LPSA11    2               0.0000000000
     11404       362  AKDO      C3             20.4706606567      -14.6898517452       23.9587385105  LPSA11    2               0.0000000000
     11405       362  AKDO      H31            20.4919904102      -14.0470995023       24.7868435866  LPSA11    2               0.0000000000
     11406       362  AKDO      H32            21.5319688714      -14.7399354626       23.4151264596  LPSA11    2               0.0000000000
     11407       362  AKDO      C4             20.2173599577      -16.1334491117       24.3842593775  LPSA11    2               0.0000000000
     11408       362  AKDO      H4             20.2286164145      -16.8206866060       23.5563617270  LPSA11    2               0.0000000000
     11409       362  AKDO      O4             21.1977500867      -16.5231474381       25.3355834555  LPSA11    2               0.0000000000
     11410       362  AKDO      C5             18.8767822066      -16.3427037967       24.9292437177  LPSA11    2               0.0000000000
     11411       362  AKDO      H5             18.6501102073      -17.4384590826       25.0107888161  LPSA11    2               0.0000000000
     11412       362  AKDO      O5             18.7785478664      -15.5840369545       26.2083878813  LPSA11    2               0.0000000000
     11413       362  AKDO      C7             16.4124651515      -16.0273451898       24.1981149098  LPSA11    2               0.0000000000
     11414       362  AKDO      H7             16.2145903152      -15.4421209331       25.0939202098  LPSA11    2               0.0000000000
     11415       362  AKDO      O7             16.0800839245      -17.4328366104       24.3482682347  LPSA11    2               0.0000000000
     11416       362  AKDO      HO7            16.0114666971      -17.7656259390       23.4945166536  LPSA11    2               0.0000000000
     11417       362  AKDO      C8             15.5819326745      -15.4820339002       22.9864433882  LPSA11    2               0.0000000000
     11418       362  AKDO      H81            15.8742844269      -14.4070025585       22.9153150275  LPSA11    2               0.0000000000
     11419       362  AKDO      H82            15.8762694069      -16.1224451367       22.0745354517  LPSA11    2               0.0000000000
     11420       362  AKDO      O8             14.1425271652      -15.5787017596       23.3537996748  LPSA11    2               0.0000000000
     11421       362  AKDO      HO8            13.6662919693      -14.8250278928       22.9179804014  LPSA11    2               0.0000000000
     11422       363  AKDO      C1             22.3469610357      -17.9205148205       23.8027969005  LPSA11    3               1.0000000000
     11423       363  AKDO      O11            22.6170207421      -17.4742903264       22.6471489042  LPSA11    3               1.0000000000
     11424       363  AKDO      O12            21.9838896590      -19.0917600268       24.0656860145  LPSA11    3               1.0000000000
     11425       363  AKDO      C2             22.4837801397      -17.0124111502       25.0166033796  LPSA11    3               1.0000000000
     11426       363  AKDO      C6             23.4445645405      -14.9410792890       25.7688829792  LPSA11    3               1.0000000000
     11427       363  AKDO      H6             22.4157586624      -14.5020814218       25.9810553331  LPSA11    3               1.0000000000
     11428       363  AKDO      O6             23.3597559774      -15.8725260017       24.7076657818  LPSA11    3               1.0000000000
     11429       363  AKDO      C3             22.9924799765      -17.6867198008       26.3187707743  LPSA11    3               1.0000000000
     11430       363  AKDO      H31            24.0677719587      -18.1079320364       26.1504935106  LPSA11    3               1.0000000000
     11431       363  AKDO      H32            22.3567781013      -18.5399341385       26.5929217108  LPSA11    3               1.0000000000
     11432       363  AKDO      C4             23.0317000767      -16.6409008666       27.4036122013  LPSA11    3               1.0000000000
     11433       363  AKDO      H4             22.0581628991      -16.1411578732       27.4051754129  LPSA11    3               1.0000000000
     11434       363  AKDO      O4             23.2756083375      -17.1072167877       28.7388570077  LPSA11    3               1.0000000000
     11435       363  AKDO      HO4            22.6016733731      -16.8912158447       29.3717785514  LPSA11    3               1.0000000000
     11436       363  AKDO      C5             23.9191661773      -15.6029256039       27.0369167275  LPSA11    3               1.0000000000
     11437       363  AKDO      H5             24.0066241536      -14.8683598931       27.9236884022  LPSA11    3               1.0000000000
     11438       363  AKDO      O5             25.2514010588      -16.1163989198       26.8495261943  LPSA11    3               1.0000000000
     11439       363  AKDO      HO5            25.2480503385      -16.7776156960       26.1887877298  LPSA11    3               1.0000000000
     11440       363  AKDO      C7             24.3726218812      -13.8379103143       25.3258859863  LPSA11    3               1.0000000000
     11441       363  AKDO      H7             25.4147533396      -14.2270698131       25.1324849511  LPSA11    3               1.0000000000
     11442       363  AKDO      O7             24.4089124784      -12.8224944858       26.3661029982  LPSA11    3               1.0000000000
     11443       363  AKDO      HO7            25.1338318024      -12.1936490931       26.1647669547  LPSA11    3               1.0000000000
     11444       363  AKDO      C8             23.7564524825      -13.1947853686       24.1539635864  LPSA11    3               1.0000000000
     11445       363  AKDO      H81            23.6265117965      -13.9222768942       23.3419478721  LPSA11    3               1.0000000000
     11446       363  AKDO      H82            22.7796300908      -12.7054115120       24.2853144505  LPSA11    3               1.0000000000
     11447       363  AKDO      O8             24.6109962955      -12.1909160235       23.6541307456  LPSA11    3               1.0000000000
     11448       363  AKDO      HO8            25.2562986283      -12.7991572569       23.2473452835  LPSA11    3               1.0000000000
     11449       364  AHEP      C1             18.0212303886      -16.1237289242       27.2793229502  LPSA11    4               2.0000000000
     11450       364  AHEP      H1             17.0231241998      -15.7800047724       26.8517192453  LPSA11    4               2.0000000000
     11451       364  AHEP      C5             19.0777757551      -18.1754334427       28.0185271385  LPSA11    4               2.0000000000
     11452       364  AHEP      H5             20.0180652439      -17.6754409041       27.5619054335  LPSA11    4               2.0000000000
     11453       364  AHEP      O5             17.9612898071      -17.5474430173       27.3942805697  LPSA11    4               2.0000000000
     11454       364  AHEP      C2             18.0645848103      -15.5752691748       28.6827861277  LPSA11    4               2.0000000000
     11455       364  AHEP      H2             18.1584205119      -14.4854022724       28.7442425996  LPSA11    4               2.0000000000
     11456       364  AHEP      O2             16.8936463172      -15.8998889689       29.3407203943  LPSA11    4               2.0000000000
     11457       364  AHEP      HO2            16.6078428574      -15.1657583188       29.8507927467  LPSA11    4               2.0000000000
     11458       364  AHEP      C3             19.2358343464      -16.1763903617       29.4857672188  LPSA11    4               2.0000000000
     11459       364  AHEP      H3             20.2377926683      -15.8073204089       29.2269906369  LPSA11    4               2.0000000000
     11460       364  AHEP      O3             19.1417217411      -15.8041807091       30.7882097304  LPSA11    4               2.0000000000
     11461       364  AHEP      C4             19.1392571762      -17.6801232944       29.4546205599  LPSA11    4               2.0000000000
     11462       364  AHEP      H4             18.2542752999      -18.1200565450       29.9788637739  LPSA11    4               2.0000000000
     11463       364  AHEP      O4             20.2993153123      -18.2212773621       30.0145912217  LPSA11    4               2.0000000000
     11464       364  AHEP      P4             20.3136123269      -18.9708388959       31.4978499249  LPSA11    4               2.0000000000
     11465       364  AHEP      OP42           21.6101785324      -18.7088678989       32.1560374192  LPSA11    4               2.0000000000
     11466       364  AHEP      OP43           20.1680824224      -20.3921664425       31.0397938518  LPSA11    4               2.0000000000
     11467       364  AHEP      OP44           19.0504734993      -18.5453076007       32.3098937101  LPSA11    4               2.0000000000
     11468       364  AHEP      C6             19.0673112044      -19.7309298817       27.7982482844  LPSA11    4               2.0000000000
     11469       364  AHEP      H6             20.1044136242      -20.0851594915       28.0833143566  LPSA11    4               2.0000000000
     11470       364  AHEP      O6             18.1151413315      -20.2844369713       28.7103505027  LPSA11    4               2.0000000000
     11471       364  AHEP      HO6            18.4903057721      -21.0514342802       29.2203787365  LPSA11    4               2.0000000000
     11472       364  AHEP      C7             18.7986730530      -20.1598709709       26.3054198206  LPSA11    4               2.0000000000
     11473       364  AHEP      H71            18.9660900860      -21.2784118696       26.1576126064  LPSA11    4               2.0000000000
     11474       364  AHEP      H72            19.3859210707      -19.5034960406       25.6323487339  LPSA11    4               2.0000000000
     11475       364  AHEP      O7             17.4262811737      -19.9670103547       25.9755159574  LPSA11    4               2.0000000000
     11476       364  AHEP      HO7            16.9309168295      -20.7244096772       26.3256794122  LPSA11    4               2.0000000000
     11477       365  AHEP      C1             20.1907128349      -15.0475225993       31.4342177374  LPSA11    5               3.0000000000
     11478       365  AHEP      H1             21.1923315649      -15.2664337643       30.9794447437  LPSA11    5               3.0000000000
     11479       365  AHEP      C5             18.7570932667      -13.2067922430       31.9165413065  LPSA11    5               3.0000000000
     11480       365  AHEP      H5             17.9188467127      -13.9173125771       31.6031509785  LPSA11    5               3.0000000000
     11481       365  AHEP      O5             19.9629975817      -13.6324789507       31.3013865768  LPSA11    5               3.0000000000
     11482       365  AHEP      C2             20.3216920131      -15.3120413240       32.9718957084  LPSA11    5               3.0000000000
     11483       365  AHEP      H2             20.4336361232      -16.4375806775       33.0921707216  LPSA11    5               3.0000000000
     11484       365  AHEP      O2             21.4884428866      -14.6838047453       33.4691025827  LPSA11    5               3.0000000000
     11485       365  AHEP      HO2            22.1633324489      -15.3329600861       33.6403503244  LPSA11    5               3.0000000000
     11486       365  AHEP      C3             19.0251963196      -14.9016299221       33.7004304811  LPSA11    5               3.0000000000
     11487       365  AHEP      H3             18.1741639547      -15.4884942588       33.3375632548  LPSA11    5               3.0000000000
     11488       365  AHEP      O3             19.0222172077      -15.0704440153       35.1462238331  LPSA11    5               3.0000000000
     11489       365  AHEP      C4             18.8380647477      -13.4442684628       33.4524658705  LPSA11    5               3.0000000000
     11490       365  AHEP      H4             19.7013068032      -12.8368993855       33.8188816395  LPSA11    5               3.0000000000
     11491       365  AHEP      O4             17.5864968534      -13.0351709556       34.0881196202  LPSA11    5               3.0000000000
     11492       365  AHEP      P4             17.5884172571      -11.9773062665       35.2810123301  LPSA11    5               3.0000000000
     11493       365  AHEP      OP42           16.1775160353      -11.9661955455       35.8202965042  LPSA11    5               3.0000000000
     11494       365  AHEP      OP43           17.9656163501      -10.6297141041       34.6107506294  LPSA11    5               3.0000000000
     11495       365  AHEP      OP44           18.6650494793      -12.4078923685       36.2417033353  LPSA11    5               3.0000000000
     11496       365  AHEP      C6             18.3588515510      -11.7689914399       31.5493607386  LPSA11    5               3.0000000000
     11497       365  AHEP      H6             17.3681115658      -11.5015931832       31.9533288164  LPSA11    5               3.0000000000
     11498       365  AHEP      O6             19.3273457822      -10.8497638224       32.0428602265  LPSA11    5               3.0000000000
     11499       365  AHEP      HO6            20.1810430629      -10.7971780675       31.5367188277  LPSA11    5               3.0000000000
     11500       365  AHEP      C7             18.1085111650      -11.6705450437       30.0822725317  LPSA11    5               3.0000000000
     11501       365  AHEP      H71            17.3060556715      -10.9185437590       29.9169108581  LPSA11    5               3.0000000000
     11502       365  AHEP      H72            17.7661224827      -12.6143910855       29.6179339851  LPSA11    5               3.0000000000
     11503       365  AHEP      O7             19.3014396741      -11.1084825828       29.4957736452  LPSA11    5               3.0000000000
     11504       366  AHEP      C1             20.0766370177      -12.0321628933       28.7926622005  LPSA11    6               4.0000000000
     11505       366  AHEP      H1             19.7473803896      -13.1001117917       29.0422981953  LPSA11    6               4.0000000000
     11506       366  AHEP      C5             20.3464568709      -10.5722299123       26.9237617191  LPSA11    6               4.0000000000
     11507       366  AHEP      H5             19.7763265305       -9.8165503707       27.4818042043  LPSA11    6               4.0000000000
     11508       366  AHEP      O5             19.9629306615      -11.8875923458       27.3547530115  LPSA11    6               4.0000000000
     11509       366  AHEP      C2             21.5064445425      -11.9037988991       29.2397872647  LPSA11    6               4.0000000000
     11510       366  AHEP      H2             21.5249624544      -12.1124036359       30.3523091474  LPSA11    6               4.0000000000
     11511       366  AHEP      O2             22.3248899996      -12.9230909281       28.7267108980  LPSA11    6               4.0000000000
     11512       366  AHEP      HO2            22.5072016758      -13.4682753223       29.4669064354  LPSA11    6               4.0000000000
     11513       366  AHEP      C3             22.0005944425      -10.4889471069       28.8468391403  LPSA11    6               4.0000000000
     11514       366  AHEP      H3             21.4092334826       -9.7731004357       29.4311808254  LPSA11    6               4.0000000000
     11515       366  AHEP      O3             23.4396363139      -10.2253951516       29.2225362108  LPSA11    6               4.0000000000
     11516       366  AHEP      HO3            23.5899773923       -9.7375967074       29.9865592523  LPSA11    6               4.0000000000
     11517       366  AHEP      C4             21.8215944368      -10.3690869038       27.2761740859  LPSA11    6               4.0000000000
     11518       366  AHEP      H4             22.5383622411      -11.0191440021       26.7944950683  LPSA11    6               4.0000000000
     11519       366  AHEP      O4             22.2232292235       -9.0779648145       26.7938835778  LPSA11    6               4.0000000000
     11520       366  AHEP      HO4            21.4729385223       -8.4686089716       27.1589530594  LPSA11    6               4.0000000000
     11521       366  AHEP      C6             20.0033947481      -10.2937581095       25.4906533340  LPSA11    6               4.0000000000
     11522       366  AHEP      H6             20.2513983848       -9.2482054868       25.3442628137  LPSA11    6               4.0000000000
     11523       366  AHEP      O6             20.9142696480      -10.9897222950       24.6375675438  LPSA11    6               4.0000000000
     11524       366  AHEP      HO6            20.4454146038      -11.5334492921       23.9977784313  LPSA11    6               4.0000000000
     11525       366  AHEP      C7             18.5429471610      -10.4465888745       25.1799756221  LPSA11    6               4.0000000000
     11526       366  AHEP      H71            18.3792906665      -10.0518336411       24.1408078076  LPSA11    6               4.0000000000
     11527       366  AHEP      H72            18.0086560644       -9.8306599853       25.9252229174  LPSA11    6               4.0000000000
     11528       366  AHEP      O7             18.0785863174      -11.7622143600       25.2517430265  LPSA11    6               4.0000000000
     11529       366  AHEP      HO7            17.8790133550      -11.8940355189       26.2011285002  LPSA11    6               4.0000000000
     11530       367  AGLC      C1             18.6193362577      -16.3349355622       35.6520976122  LPSA11    7               4.0000000000
     11531       367  AGLC      H1             17.6013469045      -16.6050177748       35.2047739589  LPSA11    7               4.0000000000
     11532       367  AGLC      C5             20.7749373660      -17.1823599789       36.0987679218  LPSA11    7               4.0000000000
     11533       367  AGLC      H5             21.2414302710      -16.2229260951       35.8327124756  LPSA11    7               4.0000000000
     11534       367  AGLC      O5             19.5644265293      -17.3429321506       35.4366254460  LPSA11    7               4.0000000000
     11535       367  AGLC      C2             18.4103893024      -16.2897413396       37.1582745954  LPSA11    7               4.0000000000
     11536       367  AGLC      H2             18.1584067032      -17.3609059217       37.4887389927  LPSA11    7               4.0000000000
     11537       367  AGLC      O2             17.2004416061      -15.5871393664       37.5024056006  LPSA11    7               4.0000000000
     11538       367  AGLC      HO2            17.4680503087      -14.6817387035       37.6430208865  LPSA11    7               4.0000000000
     11539       367  AGLC      C3             19.5789565767      -16.0839211496       37.9903802326  LPSA11    7               4.0000000000
     11540       367  AGLC      H3             19.9592027930      -15.1122129617       37.6727250444  LPSA11    7               4.0000000000
     11541       367  AGLC      O3             19.3612987764      -15.9118003210       39.4204481292  LPSA11    7               4.0000000000
     11542       367  AGLC      C4             20.4944799746      -17.2048440850       37.5928595998  LPSA11    7               4.0000000000
     11543       367  AGLC      H4             20.0724965021      -18.2131424679       37.9560286200  LPSA11    7               4.0000000000
     11544       367  AGLC      O4             21.7556309060      -16.8957488005       38.2243117391  LPSA11    7               4.0000000000
     11545       367  AGLC      HO4            22.1730220729      -17.6342374201       38.6132003238  LPSA11    7               4.0000000000
     11546       367  AGLC      C6             21.8215846946      -18.1697814002       35.5245160098  LPSA11    7               4.0000000000
     11547       367  AGLC      H61            21.8127709591      -18.0287755013       34.4135318240  LPSA11    7               4.0000000000
     11548       367  AGLC      H62            22.8725727480      -18.0756589695       35.8722646349  LPSA11    7               4.0000000000
     11549       367  AGLC      O6             21.2907984185      -19.5199549426       35.6892983147  LPSA11    7               4.0000000000
     11550       367  AGLC      HO6            21.7611615916      -19.7709885938       36.4386090630  LPSA11    7               4.0000000000
     11551       368  AGLC      C1             19.6606855703      -14.6621123005       39.9328324507  LPSA11    8               5.0000000000
     11552       368  AGLC      H1             20.6594282220      -14.3416306076       39.5884769495  LPSA11    8               5.0000000000
     11553       368  AGLC      C5             17.3590670076      -13.7751389797       40.2153373402  LPSA11    8               5.0000000000
     11554       368  AGLC      H5             16.9737480282      -14.7309166867       39.8400606936  LPSA11    8               5.0000000000
     11555       368  AGLC      O5             18.6760256769      -13.6184903612       39.6195505863  LPSA11    8               5.0000000000
     11556       368  AGLC      C2             19.7588226533      -14.7060550963       41.4170311384  LPSA11    8               5.0000000000
     11557       368  AGLC      H2             20.1679534902      -13.6977087401       41.6529594578  LPSA11    8               5.0000000000
     11558       368  AGLC      O2             20.7754376626      -15.5509499697       41.9438754185  LPSA11    8               5.0000000000
     11559       368  AGLC      C3             18.4715806035      -14.9146513651       42.1297388169  LPSA11    8               5.0000000000
     11560       368  AGLC      H3             18.1768034817      -15.9012461287       41.6567950186  LPSA11    8               5.0000000000
     11561       368  AGLC      O3             18.7016809717      -15.0510861301       43.5370978028  LPSA11    8               5.0000000000
     11562       368  AGLC      C4             17.5884712030      -13.8175043245       41.7603093222  LPSA11    8               5.0000000000
     11563       368  AGLC      H4             18.0150320482      -12.8720760060       42.0401368658  LPSA11    8               5.0000000000
     11564       368  AGLC      O4             16.3359572094      -13.9434836661       42.3914819843  LPSA11    8               5.0000000000
     11565       368  AGLC      HO4            16.0954081443      -14.8374612903       42.3800652601  LPSA11    8               5.0000000000
     11566       368  AGLC      C6             16.2680491776      -12.7888536876       39.7357334439  LPSA11    8               5.0000000000
     11567       368  AGLC      H61            16.2472876520      -12.6366859868       38.6468043611  LPSA11    8               5.0000000000
     11568       368  AGLC      H62            15.2666453126      -13.0451526478       40.0276014644  LPSA11    8               5.0000000000
     11569       368  AGLC      O6             16.3606543955      -11.5158226385       40.3040784562  LPSA11    8               5.0000000000
     11570       368  AGLC      HO6            16.0005284005      -11.4857199941       41.2121845210  LPSA11    8               5.0000000000
     11571       369  AGAL      C1             22.0791400938      -15.4444055414       41.4573847493  LPSA11    9               6.0000000000
     11572       369  AGAL      H1             22.0709430320      -15.3970287739       40.3420235153  LPSA11    9               6.0000000000
     11573       369  AGAL      C5             23.0977068564      -14.2959747504       43.2125447641  LPSA11    9               6.0000000000
     11574       369  AGAL      H5             22.0962617012      -14.5432503162       43.7424973645  LPSA11    9               6.0000000000
     11575       369  AGAL      O5             22.8651013231      -14.2753570979       41.8451689838  LPSA11    9               6.0000000000
     11576       369  AGAL      C2             22.8264160717      -16.6945604212       41.8393925249  LPSA11    9               6.0000000000
     11577       369  AGAL      H2             23.8180824972      -16.6588652367       41.4115621152  LPSA11    9               6.0000000000
     11578       369  AGAL      O2             22.3167931751      -17.8579827338       41.1608705954  LPSA11    9               6.0000000000
     11579       369  AGAL      C3             23.0999485813      -16.7535601313       43.3264191845  LPSA11    9               6.0000000000
     11580       369  AGAL      H3             22.1028705456      -16.8420397215       43.9424563891  LPSA11    9               6.0000000000
     11581       369  AGAL      O3             23.7056797419      -17.9379746961       43.7491515633  LPSA11    9               6.0000000000
     11582       369  AGAL      HO3            23.3728258383      -18.6296147875       43.1585960960  LPSA11    9               6.0000000000
     11583       369  AGAL      C4             23.8799390495      -15.5431102323       43.6505755014  LPSA11    9               6.0000000000
     11584       369  AGAL      H4             24.0575915300      -15.4172194135       44.7734818408  LPSA11    9               6.0000000000
     11585       369  AGAL      O4             25.1360665874      -15.4706427456       43.0499075873  LPSA11    9               6.0000000000
     11586       369  AGAL      HO4            25.7043566692      -14.9781638719       43.6622427513  LPSA11    9               6.0000000000
     11587       369  AGAL      C6             23.4675734810      -12.9488291066       43.8349081587  LPSA11    9               6.0000000000
     11588       369  AGAL      H61            22.7126172180      -12.1436843553       43.6417203355  LPSA11    9               6.0000000000
     11589       369  AGAL      H62            23.5434196364      -12.9541751350       44.9292747136  LPSA11    9               6.0000000000
     11590       369  AGAL      O6             24.7234107096      -12.5160999304       43.4062227539  LPSA11    9               6.0000000000
     11591       369  AGAL      HO6            24.5713923215      -11.8696537030       42.6923548993  LPSA11    9               6.0000000000
     11592       370  AGAL      C1             21.9676048973      -19.1318257053       41.7517281777  LPSA11    10              7.0000000000
     11593       370  AGAL      H1             22.9386855645      -19.6367994497       41.8429972083  LPSA11    10              7.0000000000
     11594       370  AGAL      C5             20.0040601951      -18.6629790288       43.0613392294  LPSA11    10              7.0000000000
     11595       370  AGAL      H5             20.0985826418      -17.5730748326       42.6233508762  LPSA11    10              7.0000000000
     11596       370  AGAL      O5             21.3176475155      -19.2539744090       43.0470213554  LPSA11    10              7.0000000000
     11597       370  AGAL      C2             21.0782952703      -19.8537451426       40.7227968417  LPSA11    10              7.0000000000
     11598       370  AGAL      H2             21.0948506734      -20.9667781486       41.0433947026  LPSA11    10              7.0000000000
     11599       370  AGAL      O2             21.7191454419      -20.1262572688       39.5532095562  LPSA11    10              7.0000000000
     11600       370  AGAL      HO2            21.6628910373      -21.0492837282       39.3379401176  LPSA11    10              7.0000000000
     11601       370  AGAL      C3             19.6983660916      -19.3006507260       40.6928251787  LPSA11    10              7.0000000000
     11602       370  AGAL      H3             19.8564287300      -18.2478532318       40.4679648945  LPSA11    10              7.0000000000
     11603       370  AGAL      O3             18.8342797933      -19.8979199959       39.7732034444  LPSA11    10              7.0000000000
     11604       370  AGAL      HO3            18.7233142545      -19.2724515447       39.0151094934  LPSA11    10              7.0000000000
     11605       370  AGAL      C4             19.0982331636      -19.4142400322       42.0524071915  LPSA11    10              7.0000000000
     11606       370  AGAL      H4             18.1099662090      -18.9184945161       42.1099272557  LPSA11    10              7.0000000000
     11607       370  AGAL      O4             18.9228816273      -20.7281189399       42.4965010455  LPSA11    10              7.0000000000
     11608       370  AGAL      HO4            19.7998523441      -21.0599351642       42.5675127347  LPSA11    10              7.0000000000
     11609       370  AGAL      C6             19.3551184610      -18.4806027703       44.3959537205  LPSA11    10              7.0000000000
     11610       370  AGAL      H61            20.0048231901      -17.9759004984       45.1044438806  LPSA11    10              7.0000000000
     11611       370  AGAL      H62            18.4438815393      -17.7202535698       44.2564473849  LPSA11    10              7.0000000000
     11612       370  AGAL      O6             18.8238648312      -19.6160787196       45.1112340130  LPSA11    10              7.0000000000
     11613       370  AGAL      HO6            19.3498405959      -19.7291373013       45.9237589285  LPSA11    10              7.0000000000
     11614       371  BGLC      C1             18.6261193015      -14.0171297443       44.5018065681  LPSA11    11              6.0000000000
     11615       371  BGLC      H1             17.5605792236      -13.8640559881       44.5883763758  LPSA11    11              6.0000000000
     11616       371  BGLC      C5             19.3775870669      -11.7094316939       45.1248117688  LPSA11    11              6.0000000000
     11617       371  BGLC      H5             18.3221821739      -11.3479148183       45.3871201921  LPSA11    11              6.0000000000
     11618       371  BGLC      O5             19.4010412140      -12.8238014452       44.0830650888  LPSA11    11              6.0000000000
     11619       371  BGLC      C2             19.2189572689      -14.5087373008       45.7977571702  LPSA11    11              6.0000000000
     11620       371  BGLC      H2             20.2740302063      -14.8758970983       45.7293388291  LPSA11    11              6.0000000000
     11621       371  BGLC      O2             18.4984821019      -15.6975075757       46.0886391483  LPSA11    11              6.0000000000
     11622       371  BGLC      HO2            19.1093719556      -16.3832180485       46.2788110113  LPSA11    11              6.0000000000
     11623       371  BGLC      C3             19.2398360992      -13.5039499790       46.8736276645  LPSA11    11              6.0000000000
     11624       371  BGLC      H3             18.1358528754      -13.2897554680       47.1984917368  LPSA11    11              6.0000000000
     11625       371  BGLC      O3             19.8659212725      -14.0967297479       48.0056213318  LPSA11    11              6.0000000000
     11626       371  BGLC      C4             19.9521458875      -12.3203630949       46.4390836423  LPSA11    11              6.0000000000
     11627       371  BGLC      H4             21.0145070057      -12.6649452105       46.2001611147  LPSA11    11              6.0000000000
     11628       371  BGLC      O4             20.0764362779      -11.3618114653       47.4766894645  LPSA11    11              6.0000000000
     11629       371  BGLC      HO4            20.7044486889      -11.7023222210       48.1247908570  LPSA11    11              6.0000000000
     11630       371  BGLC      C6             20.0331800421      -10.4515542288       44.5291127165  LPSA11    11              6.0000000000
     11631       371  BGLC      H61            20.3654796190       -9.7151123582       45.2481190913  LPSA11    11              6.0000000000
     11632       371  BGLC      H62            20.8823157539      -10.8030445538       43.8913252379  LPSA11    11              6.0000000000
     11633       371  BGLC      O6             19.2132443672       -9.7382224720       43.5637942269  LPSA11    11              6.0000000000
     11634       371  BGLC      HO6            19.0207460256       -8.9449049520       44.0054369298  LPSA11    11              6.0000000000
     11635       372  BGLCNA    C1             19.2715742051      -14.0888715610       49.3238540420  LPSA11    12              7.0000000000
     11636       372  BGLCNA    H1             18.5807363606      -14.9960255402       49.3874222992  LPSA11    12              7.0000000000
     11637       372  BGLCNA    C5             17.8391986694      -12.9554421481       50.8763077070  LPSA11    12              7.0000000000
     11638       372  BGLCNA    H5             17.1235079152      -13.8891954966       50.9814236466  LPSA11    12              7.0000000000
     11639       372  BGLCNA    O5             18.5024369921      -12.8940954214       49.5875345322  LPSA11    12              7.0000000000
     11640       372  BGLCNA    C2             20.3752750441      -14.1798462386       50.3245054808  LPSA11    12              7.0000000000
     11641       372  BGLCNA    H2             20.8965854172      -13.1303795666       50.3375086743  LPSA11    12              7.0000000000
     11642       372  BGLCNA    N              21.2405359884      -15.3398666091       50.0347611965  LPSA11    12              7.0000000000
     11643       372  BGLCNA    HN             20.6961459741      -16.1110756845       49.9972643287  LPSA11    12              7.0000000000
     11644       372  BGLCNA    C              22.5231921135      -15.1993349343       49.8903426450  LPSA11    12              7.0000000000
     11645       372  BGLCNA    O              23.0425046263      -14.1094863576       50.0855928044  LPSA11    12              7.0000000000
     11646       372  BGLCNA    CT             23.3070817439      -16.4349881363       49.5677689528  LPSA11    12              7.0000000000
     11647       372  BGLCNA    HT1            23.9818866693      -16.7288339739       50.3918503408  LPSA11    12              7.0000000000
     11648       372  BGLCNA    HT2            24.0831377636      -16.2017710420       48.7104760971  LPSA11    12              7.0000000000
     11649       372  BGLCNA    HT3            22.5671817426      -17.2029641942       49.2316245990  LPSA11    12              7.0000000000
     11650       372  BGLCNA    C3             19.8325191067      -14.2720368120       51.6995695120  LPSA11    12              7.0000000000
     11651       372  BGLCNA    H3             19.2247674864      -15.2775572803       51.8605307917  LPSA11    12              7.0000000000
     11652       372  BGLCNA    O3             20.8511100857      -14.4137639650       52.7272334264  LPSA11    12              7.0000000000
     11653       372  BGLCNA    C4             18.9823276139      -13.0693913581       51.9591692987  LPSA11    12              7.0000000000
     11654       372  BGLCNA    H4             19.5480510138      -12.0637210209       51.9037868612  LPSA11    12              7.0000000000
     11655       372  BGLCNA    O4             18.4214381151      -13.0927765525       53.2294962294  LPSA11    12              7.0000000000
     11656       372  BGLCNA    HO4            17.6577592964      -13.7386803452       53.2834945119  LPSA11    12              7.0000000000
     11657       372  BGLCNA    C6             16.9044261361      -11.7312332649       50.9528560558  LPSA11    12              7.0000000000
     11658       372  BGLCNA    H61            16.4497899773      -11.6687179409       51.9144325068  LPSA11    12              7.0000000000
     11659       372  BGLCNA    H62            17.5848841095      -10.8960347656       50.8287962869  LPSA11    12              7.0000000000
     11660       372  BGLCNA    O6             16.0213047827      -11.7182262720       49.8597561973  LPSA11    12              7.0000000000
     11661       372  BGLCNA    HO6            15.2776575244      -12.2034370672       50.1903398796  LPSA11    12              7.0000000000
     11662       373  AGAL      C1             20.5491100533      -15.3481121216       53.8132743488  LPSA11    13              8.0000000000
     11663       373  AGAL      H1             19.5243468489      -15.1436143467       54.1959401301  LPSA11    13              8.0000000000
     11664       373  AGAL      C5             22.2775792768      -16.9459222522       53.2950732168  LPSA11    13              8.0000000000
     11665       373  AGAL      H5             22.5906522120      -16.2035688391       52.5641412600  LPSA11    13              8.0000000000
     11666       373  AGAL      O5             20.8684353127      -16.7488147715       53.4918445955  LPSA11    13              8.0000000000
     11667       373  AGAL      C2             21.3835689756      -15.1045461688       55.1010141246  LPSA11    13              8.0000000000
     11668       373  AGAL      H2             21.2174018665      -15.9554825854       55.7917211299  LPSA11    13              8.0000000000
     11669       373  AGAL      O2             21.0124117201      -13.9175007693       55.7701983428  LPSA11    13              8.0000000000
     11670       373  AGAL      C3             22.9012892117      -15.3306789871       54.8979691660  LPSA11    13              8.0000000000
     11671       373  AGAL      H3             23.2227605190      -14.7375510713       54.0477453328  LPSA11    13              8.0000000000
     11672       373  AGAL      O3             23.6878003866      -14.8283219271       55.9888739531  LPSA11    13              8.0000000000
     11673       373  AGAL      HO3            24.4870972241      -14.4105170197       55.6848713412  LPSA11    13              8.0000000000
     11674       373  AGAL      C4             23.1545465630      -16.6846315496       54.5514025965  LPSA11    13              8.0000000000
     11675       373  AGAL      H4             24.2451852896      -16.8266801883       54.1954731349  LPSA11    13              8.0000000000
     11676       373  AGAL      O4             22.8432530501      -17.6052185172       55.5743212917  LPSA11    13              8.0000000000
     11677       373  AGAL      HO4            22.0105273535      -17.4687466886       56.0499681296  LPSA11    13              8.0000000000
     11678       373  AGAL      C6             22.6605059807      -18.1976870202       52.5301443486  LPSA11    13              8.0000000000
     11679       373  AGAL      H61            22.0422710059      -18.2798493475       51.6253596531  LPSA11    13              8.0000000000
     11680       373  AGAL      H62            23.7670758384      -18.1807379585       52.3684678279  LPSA11    13              8.0000000000
     11681       373  AGAL      O6             22.4240000991      -19.3593991751       53.2985910507  LPSA11    13              8.0000000000
     11682       373  AGAL      HO6            23.1527544336      -19.4645733228       53.9299633642  LPSA11    13              8.0000000000
     11683       374  ARHM      C1             20.3692108238      -13.9785154083       57.0117786358  LPSA11    14              9.0000000000
     11684       374  ARHM      H1             19.8261055485      -14.9462211450       56.9981767125  LPSA11    14              9.0000000000
     11685       374  ARHM      C5             19.9981590891      -11.6875213090       57.1930138837  LPSA11    14              9.0000000000
     11686       374  ARHM      H5             20.5703942501      -11.5717429759       56.1976867078  LPSA11    14              9.0000000000
     11687       374  ARHM      O5             19.4180044498      -12.9380980526       57.1718909996  LPSA11    14              9.0000000000
     11688       374  ARHM      C2             21.4207175012      -13.9153268877       58.1413490634  LPSA11    14              9.0000000000
     11689       374  ARHM      H2             22.1245170567      -14.6979049588       57.8875987320  LPSA11    14              9.0000000000
     11690       374  ARHM      O2             20.9174947625      -14.0724312904       59.4330148990  LPSA11    14              9.0000000000
     11691       374  ARHM      C3             22.0920519907      -12.5728199104       58.1095432995  LPSA11    14              9.0000000000
     11692       374  ARHM      H3             22.4101200329      -12.3727124001       57.0440121713  LPSA11    14              9.0000000000
     11693       374  ARHM      O3             23.2660847534      -12.4852280073       58.8567888868  LPSA11    14              9.0000000000
     11694       374  ARHM      HO3            22.9632567719      -12.4534551554       59.8104957846  LPSA11    14              9.0000000000
     11695       374  ARHM      C4             21.0333023167      -11.5583636668       58.3490442956  LPSA11    14              9.0000000000
     11696       374  ARHM      H4             20.4441775673      -11.6628842698       59.2902338481  LPSA11    14              9.0000000000
     11697       374  ARHM      O4             21.6481278323      -10.2439905971       58.4446785014  LPSA11    14              9.0000000000
     11698       374  ARHM      HO4            21.6113613527       -9.8129959121       59.2969967688  LPSA11    14              9.0000000000
     11699       374  ARHM      C6             18.9063798694      -10.6056179746       57.2492155848  LPSA11    14              9.0000000000
     11700       374  ARHM      H61            18.0248569498      -10.7775761901       56.5358243550  LPSA11    14              9.0000000000
     11701       374  ARHM      H62            18.6157123923      -10.5338816520       58.3170764683  LPSA11    14              9.0000000000
     11702       374  ARHM      H63            19.1425405274       -9.5839862026       56.9421594120  LPSA11    14              9.0000000000
     11703       375  ARHM      C1             20.1219863300      -15.1107475861       59.7267990175  LPSA11    15             10.0000000000
     11704       375  ARHM      H1             20.3096902794      -15.9688628749       59.0458905905  LPSA11    15             10.0000000000
     11705       375  ARHM      C5             18.1998806232      -13.8354536765       60.6468530148  LPSA11    15             10.0000000000
     11706       375  ARHM      H5             18.6110661140      -12.7964114717       60.4457705401  LPSA11    15             10.0000000000
     11707       375  ARHM      O5             18.7082185067      -14.7952842476       59.6688136410  LPSA11    15             10.0000000000
     11708       375  ARHM      C2             20.4254773336      -15.6016253550       61.1407671534  LPSA11    15             10.0000000000
     11709       375  ARHM      H2             21.5706228750      -15.7407672659       61.2133420761  LPSA11    15             10.0000000000
     11710       375  ARHM      O2             19.7031272255      -16.8553082341       61.3234079317  LPSA11    15             10.0000000000
     11711       375  ARHM      C3             20.0049661064      -14.5493020545       62.1677656617  LPSA11    15             10.0000000000
     11712       375  ARHM      H3             20.5104667279      -13.5910094284       61.8628392879  LPSA11    15             10.0000000000
     11713       375  ARHM      O3             20.6464581964      -14.9462344832       63.4092175029  LPSA11    15             10.0000000000
     11714       375  ARHM      C4             18.5729298099      -14.3393369985       62.0487117432  LPSA11    15             10.0000000000
     11715       375  ARHM      H4             18.0458972399      -15.3711523570       62.1496903561  LPSA11    15             10.0000000000
     11716       375  ARHM      O4             17.9507908772      -13.4331103531       62.9635513464  LPSA11    15             10.0000000000
     11717       375  ARHM      HO4            17.0209197449      -13.6033990361       62.9565205260  LPSA11    15             10.0000000000
     11718       375  ARHM      C6             16.7120085169      -13.6613514152       60.4460959132  LPSA11    15             10.0000000000
     11719       375  ARHM      H61            16.2420743488      -12.8761042745       61.0956562646  LPSA11    15             10.0000000000
     11720       375  ARHM      H62            16.4935818989      -13.5852457701       59.3910198679  LPSA11    15             10.0000000000
     11721       375  ARHM      H63            16.1234989585      -14.5288867916       60.8578185328  LPSA11    15             10.0000000000
     11722       376  BMANNA    C1             19.8819453894      -17.6052074925       62.5145562334  LPSA11    16             11.0000000000
     11723       376  BMANNA    H1             19.3318123467      -17.0216845420       63.3432051365  LPSA11    16             11.0000000000
     11724       376  BMANNA    C5             21.2855714679      -18.4817167029       64.1851548173  LPSA11    16             11.0000000000
     11725       376  BMANNA    H5             20.7298521332      -17.9673052452       64.9800677769  LPSA11    16             11.0000000000
     11726       376  BMANNA    O5             21.2358008751      -17.7788022411       62.9158851071  LPSA11    16             11.0000000000
     11727       376  BMANNA    C2             19.1978090494      -18.9719482696       62.2781089586  LPSA11    16             11.0000000000
     11728       376  BMANNA    H2             18.1457785657      -18.7093767872       61.9912908466  LPSA11    16             11.0000000000
     11729       376  BMANNA    N              19.7286758236      -19.8439583765       61.2264456342  LPSA11    16             11.0000000000
     11730       376  BMANNA    HN             20.4267163316      -20.4288825062       61.5688724990  LPSA11    16             11.0000000000
     11731       376  BMANNA    C              19.3573730759      -19.8206211535       59.9704010620  LPSA11    16             11.0000000000
     11732       376  BMANNA    O              18.4272149426      -19.0746794055       59.5582221915  LPSA11    16             11.0000000000
     11733       376  BMANNA    CT             20.1045905910      -20.7447093072       59.1331689300  LPSA11    16             11.0000000000
     11734       376  BMANNA    HT1            19.5815092526      -21.6396180784       58.8344492748  LPSA11    16             11.0000000000
     11735       376  BMANNA    HT2            21.0746367209      -21.0739225368       59.5043001239  LPSA11    16             11.0000000000
     11736       376  BMANNA    HT3            20.3424091145      -20.2780010030       58.1231520073  LPSA11    16             11.0000000000
     11737       376  BMANNA    C3             19.2199197906      -19.6755539819       63.6119771117  LPSA11    16             11.0000000000
     11738       376  BMANNA    H3             18.6913881316      -19.0574874420       64.3839812837  LPSA11    16             11.0000000000
     11739       376  BMANNA    O3             18.5384767041      -20.8968754355       63.6122488842  LPSA11    16             11.0000000000
     11740       376  BMANNA    HO3            17.8809931681      -20.9154938316       64.2950500102  LPSA11    16             11.0000000000
     11741       376  BMANNA    C4             20.6573101385      -19.8864563859       64.1045846713  LPSA11    16             11.0000000000
     11742       376  BMANNA    H4             21.2450588446      -20.5191412805       63.4124605202  LPSA11    16             11.0000000000
     11743       376  BMANNA    O4             20.8257385104      -20.5283891425       65.3816866120  LPSA11    16             11.0000000000
     11744       376  BMANNA    HO4            21.6862981166      -20.9416871129       65.4353184152  LPSA11    16             11.0000000000
     11745       376  BMANNA    C6             22.7112503357      -18.5818693732       64.7427751243  LPSA11    16             11.0000000000
     11746       376  BMANNA    H61            22.6239751032      -18.5980360625       65.8875394407  LPSA11    16             11.0000000000
     11747       376  BMANNA    H62            23.1926409725      -19.5138622229       64.4389269682  LPSA11    16             11.0000000000
     11748       376  BMANNA    O6             23.5721192371      -17.4887205973       64.3660927576  LPSA11    16             11.0000000000
     11749       376  BMANNA    HO6            24.2989514418      -17.9616985464       63.9036969990  LPSA11    16             11.0000000000
     11750       377  BGLCNA    C1             21.1114326831      -13.9378952290       64.1715778089  LPSA11    17             11.0000000000
     11751       377  BGLCNA    H1             20.5078631078      -12.9777489637       63.9082176002  LPSA11    17             11.0000000000
     11752       377  BGLCNA    C5             23.0458778926      -12.4951647324       64.5563394407  LPSA11    17             11.0000000000
     11753       377  BGLCNA    H5             22.4890406107      -11.5223125353       64.2825289487  LPSA11    17             11.0000000000
     11754       377  BGLCNA    O5             22.4631802998      -13.5565047845       63.7849982893  LPSA11    17             11.0000000000
     11755       377  BGLCNA    C2             21.0407410039      -14.3711185837       65.5899343931  LPSA11    17             11.0000000000
     11756       377  BGLCNA    H2             21.6637188609      -15.2990860878       65.8249043900  LPSA11    17             11.0000000000
     11757       377  BGLCNA    N              19.7432325042      -14.8284264184       65.8849826081  LPSA11    17             11.0000000000
     11758       377  BGLCNA    HN             18.9556743289      -14.3871798589       65.4150135415  LPSA11    17             11.0000000000
     11759       377  BGLCNA    C              19.3307897165      -15.6828795720       66.8043620798  LPSA11    17             11.0000000000
     11760       377  BGLCNA    O              20.1164501650      -16.3439038028       67.4729873017  LPSA11    17             11.0000000000
     11761       377  BGLCNA    CT             17.8637870904      -15.8016998856       66.9728872304  LPSA11    17             11.0000000000
     11762       377  BGLCNA    HT1            17.3292230299      -16.6729123653       66.5529393721  LPSA11    17             11.0000000000
     11763       377  BGLCNA    HT2            17.4193063842      -14.8238685246       66.7043805047  LPSA11    17             11.0000000000
     11764       377  BGLCNA    HT3            17.5953224652      -15.8556206255       68.1408097225  LPSA11    17             11.0000000000
     11765       377  BGLCNA    C3             21.5442097276      -13.2028136752       66.4076579941  LPSA11    17             11.0000000000
     11766       377  BGLCNA    H3             20.8622815372      -12.3627223185       66.0441361901  LPSA11    17             11.0000000000
     11767       377  BGLCNA    O3             21.2355748649      -13.4860051301       67.8205355914  LPSA11    17             11.0000000000
     11768       377  BGLCNA    C4             23.0011954747      -12.9448869196       66.0496966154  LPSA11    17             11.0000000000
     11769       377  BGLCNA    H4             23.6256852184      -13.9038103412       66.1123142204  LPSA11    17             11.0000000000
     11770       377  BGLCNA    O4             23.6144496427      -12.0143195281       66.9186044206  LPSA11    17             11.0000000000
     11771       377  BGLCNA    HO4            24.5154646973      -11.7890496038       66.7204061560  LPSA11    17             11.0000000000
     11772       377  BGLCNA    C6             24.5086585833      -12.2817294239       64.1200051697  LPSA11    17             11.0000000000
     11773       377  BGLCNA    H61            24.7454340454      -11.2356116659       64.1272946536  LPSA11    17             11.0000000000
     11774       377  BGLCNA    H62            25.2282878124      -12.8065054650       64.8212395067  LPSA11    17             11.0000000000
     11775       377  BGLCNA    O6             24.7609015593      -12.7628581660       62.7926115083  LPSA11    17             11.0000000000
     11776       377  BGLCNA    HO6            24.1885070687      -12.3071774794       62.1856770532  LPSA11    17             11.0000000000
     11777       378  AGAL      C1             20.8647660572      -12.3339281904       68.6198653987  LPSA11    18             12.0000000000
     11778       378  AGAL      H1             21.8090358571      -11.7421150668       68.8082567594  LPSA11    18             12.0000000000
     11779       378  AGAL      C5             18.5922426268      -12.1568595560       67.8636918791  LPSA11    18             12.0000000000
     11780       378  AGAL      H5             18.7421363591      -13.1391801072       67.4068928888  LPSA11    18             12.0000000000
     11781       378  AGAL      O5             19.9112585429      -11.5115837453       67.9834320655  LPSA11    18             12.0000000000
     11782       378  AGAL      C2             20.2299733524      -12.7539308235       70.0000206359  LPSA11    18             12.0000000000
     11783       378  AGAL      H2             20.0109483741      -11.7336363588       70.3908489884  LPSA11    18             12.0000000000
     11784       378  AGAL      O2             21.1992457558      -13.2959599707       70.8342757016  LPSA11    18             12.0000000000
     11785       378  AGAL      C3             18.9154158238      -13.4408698813       69.8682924558  LPSA11    18             12.0000000000
     11786       378  AGAL      H3             19.0329387262      -14.3050887646       69.0958348126  LPSA11    18             12.0000000000
     11787       378  AGAL      O3             18.4647789813      -13.9765635391       71.0758896640  LPSA11    18             12.0000000000
     11788       378  AGAL      HO3            18.1486397388      -14.8753424375       70.9682873819  LPSA11    18             12.0000000000
     11789       378  AGAL      C4             17.9773367157      -12.5471958200       69.1634745928  LPSA11    18             12.0000000000
     11790       378  AGAL      H4             16.9862893700      -12.9882186390       68.9039691178  LPSA11    18             12.0000000000
     11791       378  AGAL      O4             17.6779766203      -11.3802672676       69.9734134928  LPSA11    18             12.0000000000
     11792       378  AGAL      HO4            17.0434664516      -11.6523875301       70.7236544006  LPSA11    18             12.0000000000
     11793       378  AGAL      C6             17.8594421619      -11.4618214629       66.8042742825  LPSA11    18             12.0000000000
     11794       378  AGAL      H61            18.4370285645      -11.5921831643       65.8877991861  LPSA11    18             12.0000000000
     11795       378  AGAL      H62            16.9036167061      -12.0324195130       66.6499463921  LPSA11    18             12.0000000000
     11796       378  AGAL      O6             17.6648982407      -10.1528207384       66.9803033045  LPSA11    18             12.0000000000
     11797       378  AGAL      HO6            18.1569296242       -9.7203930082       67.6707071977  LPSA11    18             12.0000000000
     11798       379  ARHM      C1             21.0392154073      -12.7795531908       72.1803514454  LPSA11    19             13.0000000000
     11799       379  ARHM      H1             20.0507321907      -12.3897787952       72.3185909119  LPSA11    19             13.0000000000
     11800       379  ARHM      C5             23.2002117088      -11.8057363645       72.2512180912  LPSA11    19             13.0000000000
     11801       379  ARHM      H5             23.3424210146      -12.2033890472       71.2133247196  LPSA11    19             13.0000000000
     11802       379  ARHM      O5             21.7983885699      -11.5852198020       72.4162684983  LPSA11    19             13.0000000000
     11803       379  ARHM      C2             21.4227942728      -13.8706871942       73.1100514097  LPSA11    19             13.0000000000
     11804       379  ARHM      H2             20.9582244767      -14.8080698140       72.9420985559  LPSA11    19             13.0000000000
     11805       379  ARHM      O2             21.1470107797      -13.4889839694       74.4131644751  LPSA11    19             13.0000000000
     11806       379  ARHM      C3             22.9633083953      -14.0840922182       72.9859276785  LPSA11    19             13.0000000000
     11807       379  ARHM      H3             23.1660063270      -14.3318693949       71.9471750908  LPSA11    19             13.0000000000
     11808       379  ARHM      O3             23.3860520766      -15.1446207459       73.7644258584  LPSA11    19             13.0000000000
     11809       379  ARHM      HO3            23.0242330550      -15.0034736311       74.6464134549  LPSA11    19             13.0000000000
     11810       379  ARHM      C4             23.7374006378      -12.8610037781       73.2443334127  LPSA11    19             13.0000000000
     11811       379  ARHM      H4             23.4891933574      -12.5610993586       74.2703943704  LPSA11    19             13.0000000000
     11812       379  ARHM      O4             25.1210617217      -13.0024950550       73.1708570575  LPSA11    19             13.0000000000
     11813       379  ARHM      HO4            25.3187105313      -13.2229898368       72.2126258713  LPSA11    19             13.0000000000
     11814       379  ARHM      C6             23.9852298635      -10.4826695328       72.3031700958  LPSA11    19             13.0000000000
     11815       379  ARHM      H61            23.4956312641       -9.9278636580       71.5186681997  LPSA11    19             13.0000000000
     11816       379  ARHM      H62            23.9180029031       -9.9102759289       73.2001761489  LPSA11    19             13.0000000000
     11817       379  ARHM      H63            25.0509953808      -10.5998791255       72.0875448643  LPSA11    19             13.0000000000
     11818       380  ARHM      C1             19.7891747527      -13.5663003351       74.6981797177  LPSA11    20             14.0000000000
     11819       380  ARHM      H1             19.2011029798      -14.1173032889       73.8936196974  LPSA11    20             14.0000000000
     11820       380  ARHM      C5             19.5446359707      -11.5664839812       75.9960310464  LPSA11    20             14.0000000000
     11821       380  ARHM      H5             20.6424694780      -11.4503354055       75.8071112250  LPSA11    20             14.0000000000
     11822       380  ARHM      O5             19.0901265767      -12.3332690276       74.8741575474  LPSA11    20             14.0000000000
     11823       380  ARHM      C2             19.5764509265      -14.4232328424       75.9438944127  LPSA11    20             14.0000000000
     11824       380  ARHM      H2             20.2204760678      -15.3862534993       75.7904987900  LPSA11    20             14.0000000000
     11825       380  ARHM      O2             18.1911240514      -14.7366862513       76.2145535291  LPSA11    20             14.0000000000
     11826       380  ARHM      C3             20.0554030773      -13.6190177001       77.0746584307  LPSA11    20             14.0000000000
     11827       380  ARHM      H3             21.1793875408      -13.3914575893       76.9570890266  LPSA11    20             14.0000000000
     11828       380  ARHM      O3             19.9462423175      -14.4699292338       78.2431898216  LPSA11    20             14.0000000000
     11829       380  ARHM      C4             19.3258485499      -12.3250942557       77.2147849866  LPSA11    20             14.0000000000
     11830       380  ARHM      H4             18.2648929050      -12.4480637301       77.2882629629  LPSA11    20             14.0000000000
     11831       380  ARHM      O4             19.7613070315      -11.6711939577       78.4294019453  LPSA11    20             14.0000000000
     11832       380  ARHM      HO4            19.6313527643      -10.8144834422       78.0714846557  LPSA11    20             14.0000000000
     11833       380  ARHM      C6             18.9192370359      -10.2344436600       75.9818768401  LPSA11    20             14.0000000000
     11834       380  ARHM      H61            17.7933583204      -10.1479388973       76.0487105533  LPSA11    20             14.0000000000
     11835       380  ARHM      H62            19.3689852106       -9.6018021736       76.7492574554  LPSA11    20             14.0000000000
     11836       380  ARHM      H63            19.0828935480       -9.6483367104       75.0059134709  LPSA11    20             14.0000000000
     11837       381  BMANNA    C1             17.8946784766      -15.8485268547       75.4501725836  LPSA11    21             15.0000000000
     11838       381  BMANNA    H1             18.7147230946      -16.0543908343       74.6495731600  LPSA11    21             15.0000000000
     11839       381  BMANNA    C5             16.5980083385      -16.7240686001       73.6578092950  LPSA11    21             15.0000000000
     11840       381  BMANNA    H5             17.5425815729      -17.0536768918       73.0422409194  LPSA11    21             15.0000000000
     11841       381  BMANNA    O5             16.7719313418      -15.5670645916       74.5460975074  LPSA11    21             15.0000000000
     11842       381  BMANNA    C2             17.6006700147      -17.0224901053       76.3268603500  LPSA11    21             15.0000000000
     11843       381  BMANNA    H2             18.5440753104      -17.1240422562       76.8663433126  LPSA11    21             15.0000000000
     11844       381  BMANNA    N              16.5106288284      -16.7511545061       77.2602735953  LPSA11    21             15.0000000000
     11845       381  BMANNA    HN             15.6880366815      -16.4207868753       76.8630196157  LPSA11    21             15.0000000000
     11846       381  BMANNA    C              16.4588753649      -17.1811168092       78.6142451918  LPSA11    21             15.0000000000
     11847       381  BMANNA    O              17.2823493442      -17.9946007929       79.0340579138  LPSA11    21             15.0000000000
     11848       381  BMANNA    CT             15.3190472697      -16.6513226657       79.5125915666  LPSA11    21             15.0000000000
     11849       381  BMANNA    HT1            14.4029352082      -17.2514275331       79.3040814335  LPSA11    21             15.0000000000
     11850       381  BMANNA    HT2            15.2479065628      -15.5673953533       79.3224353366  LPSA11    21             15.0000000000
     11851       381  BMANNA    HT3            15.5808583942      -16.8009904680       80.6000991146  LPSA11    21             15.0000000000
     11852       381  BMANNA    C3             17.3950136864      -18.2018252075       75.4428482744  LPSA11    21             15.0000000000
     11853       381  BMANNA    H3             18.3806382030      -18.2968315536       75.0091666053  LPSA11    21             15.0000000000
     11854       381  BMANNA    O3             17.1356064582      -19.3887156242       76.1769203835  LPSA11    21             15.0000000000
     11855       381  BMANNA    HO3            16.4007602556      -19.2181284232       76.7354970047  LPSA11    21             15.0000000000
     11856       381  BMANNA    C4             16.2581014462      -17.9478580092       74.4866217523  LPSA11    21             15.0000000000
     11857       381  BMANNA    H4             15.1824983974      -17.8400088057       75.0002820064  LPSA11    21             15.0000000000
     11858       381  BMANNA    O4             16.0450783542      -19.0212472970       73.6152290754  LPSA11    21             15.0000000000
     11859       381  BMANNA    HO4            15.1665821579      -19.4336235776       73.7703874424  LPSA11    21             15.0000000000
     11860       381  BMANNA    C6             15.6165519815      -16.4709713511       72.6348027846  LPSA11    21             15.0000000000
     11861       381  BMANNA    H61            15.5834602888      -17.2544694625       71.8494922130  LPSA11    21             15.0000000000
     11862       381  BMANNA    H62            14.5871172314      -16.6330214170       73.0558617198  LPSA11    21             15.0000000000
     11863       381  BMANNA    O6             15.5891790182      -15.1969969223       72.0654385618  LPSA11    21             15.0000000000
     11864       381  BMANNA    HO6            15.5225362558      -14.5628474379       72.7784055652  LPSA11    21             15.0000000000
     11865       382  BGLCNA    C1             20.9206816141      -14.4307419955       79.2248726046  LPSA11    22             15.0000000000
     11866       382  BGLCNA    H1             21.4903997869      -13.4569261814       79.2753119810  LPSA11    22             15.0000000000
     11867       382  BGLCNA    C5             22.9622504254      -15.3432462873       80.1145289529  LPSA11    22             15.0000000000
     11868       382  BGLCNA    H5             23.3818483694      -14.2509730940       80.0727605020  LPSA11    22             15.0000000000
     11869       382  BGLCNA    O5             21.9191485025      -15.3982669864       79.0803056561  LPSA11    22             15.0000000000
     11870       382  BGLCNA    C2             20.2506915884      -14.6268856635       80.5602818744  LPSA11    22             15.0000000000
     11871       382  BGLCNA    H2             19.8106605363      -15.6819439806       80.4633107900  LPSA11    22             15.0000000000
     11872       382  BGLCNA    N              19.2118326239      -13.6290184133       80.7025670875  LPSA11    22             15.0000000000
     11873       382  BGLCNA    HN             19.4560204267      -12.7173854010       80.4501896382  LPSA11    22             15.0000000000
     11874       382  BGLCNA    C              18.0692095349      -13.8191285118       81.3295640408  LPSA11    22             15.0000000000
     11875       382  BGLCNA    O              17.7913344264      -14.9175382720       81.8448112003  LPSA11    22             15.0000000000
     11876       382  BGLCNA    CT             17.1402176724      -12.6628671101       81.4359073222  LPSA11    22             15.0000000000
     11877       382  BGLCNA    HT1            16.5467516818      -12.7700093749       80.5353412834  LPSA11    22             15.0000000000
     11878       382  BGLCNA    HT2            17.7416025539      -11.7388776217       81.2752873926  LPSA11    22             15.0000000000
     11879       382  BGLCNA    HT3            16.6268097854      -12.5535492733       82.3679651303  LPSA11    22             15.0000000000
     11880       382  BGLCNA    C3             21.2594983119      -14.5948068178       81.6855161512  LPSA11    22             15.0000000000
     11881       382  BGLCNA    H3             21.7925422726      -13.6119275170       81.6419517197  LPSA11    22             15.0000000000
     11882       382  BGLCNA    O3             20.5017899722      -14.6561730461       82.8729300216  LPSA11    22             15.0000000000
     11883       382  BGLCNA    C4             22.3385926284      -15.6606812546       81.4704242134  LPSA11    22             15.0000000000
     11884       382  BGLCNA    H4             21.8221674245      -16.5826203939       81.4144045074  LPSA11    22             15.0000000000
     11885       382  BGLCNA    O4             23.2865521374      -15.7033598251       82.5140850489  LPSA11    22             15.0000000000
     11886       382  BGLCNA    HO4            23.4931502158      -16.6328667897       82.7130071916  LPSA11    22             15.0000000000
     11887       382  BGLCNA    C6             24.0218129746      -16.3656895685       79.7284495560  LPSA11    22             15.0000000000
     11888       382  BGLCNA    H61            24.5862650647      -16.5348516200       80.6924177192  LPSA11    22             15.0000000000
     11889       382  BGLCNA    H62            23.5653169506      -17.3432792062       79.4648784538  LPSA11    22             15.0000000000
     11890       382  BGLCNA    O6             24.9582347586      -15.9129571330       78.8100863794  LPSA11    22             15.0000000000
     11891       382  BGLCNA    HO6            24.5015032547      -15.6343018381       78.0328486455  LPSA11    22             15.0000000000
     11892       383  AGAL      C1             21.0558529279      -14.2257621326       84.0628261254  LPSA11    23             16.0000000000
     11893       383  AGAL      H1             21.7716933798      -14.9694283177       84.5106287163  LPSA11    23             16.0000000000
     11894       383  AGAL      C5             20.8572484433      -11.8723713092       83.7583018441  LPSA11    23             16.0000000000
     11895       383  AGAL      H5             20.2082923581      -12.1144259380       82.8366412438  LPSA11    23             16.0000000000
     11896       383  AGAL      O5             21.7208894691      -12.9600967609       83.9976212264  LPSA11    23             16.0000000000
     11897       383  AGAL      C2             19.9939640650      -14.1334921686       85.1427633740  LPSA11    23             16.0000000000
     11898       383  AGAL      H2             20.5255271931      -13.8081980719       86.0076373284  LPSA11    23             16.0000000000
     11899       383  AGAL      O2             19.4285888850      -15.3719483331       85.5000844886  LPSA11    23             16.0000000000
     11900       383  AGAL      C3             19.0253426839      -13.0240065907       84.9194901020  LPSA11    23             16.0000000000
     11901       383  AGAL      H3             18.6402705680      -13.1734335949       83.8641570193  LPSA11    23             16.0000000000
     11902       383  AGAL      O3             17.8948687706      -13.0285447870       85.7108298168  LPSA11    23             16.0000000000
     11903       383  AGAL      HO3            18.2361753475      -13.1830769438       86.6206525111  LPSA11    23             16.0000000000
     11904       383  AGAL      C4             19.8038848140      -11.7428488959       84.8901212015  LPSA11    23             16.0000000000
     11905       383  AGAL      H4             19.1693613841      -10.8595150189       84.6506069022  LPSA11    23             16.0000000000
     11906       383  AGAL      O4             20.4036988664      -11.3441151968       86.1132943683  LPSA11    23             16.0000000000
     11907       383  AGAL      HO4            21.1657988272      -10.9515491489       85.8278371007  LPSA11    23             16.0000000000
     11908       383  AGAL      C6             21.6276808922      -10.6529038709       83.3278962909  LPSA11    23             16.0000000000
     11909       383  AGAL      H61            22.3535895289      -10.9252236521       82.6074235255  LPSA11    23             16.0000000000
     11910       383  AGAL      H62            21.0148277167       -9.9452498082       82.7620574208  LPSA11    23             16.0000000000
     11911       383  AGAL      O6             22.3175002025      -10.1073571035       84.3845202183  LPSA11    23             16.0000000000
     11912       383  AGAL      HO6            22.8578423437       -9.3602947776       84.1740981585  LPSA11    23             16.0000000000
     11913       384  ARHM      C1             20.0766480938      -16.3585677510       86.2818185944  LPSA11    24             17.0000000000
     11914       384  ARHM      H1             21.1078826169      -16.0752286901       86.3680542693  LPSA11    24             17.0000000000
     11915       384  ARHM      C5             18.7798111797      -18.2670309347       85.6157638072  LPSA11    24             17.0000000000
     11916       384  ARHM      H5             18.1933086732      -17.6119663847       85.0070975499  LPSA11    24             17.0000000000
     11917       384  ARHM      O5             20.0928296574      -17.7743447500       85.8657410059  LPSA11    24             17.0000000000
     11918       384  ARHM      C2             19.3711118973      -16.2446160953       87.5921581840  LPSA11    24             17.0000000000
     11919       384  ARHM      H2             19.2467062294      -15.2226041252       87.8984046741  LPSA11    24             17.0000000000
     11920       384  ARHM      O2             19.9650348258      -17.0757832057       88.6075763533  LPSA11    24             17.0000000000
     11921       384  ARHM      C3             17.9538511661      -16.8098788018       87.4133527752  LPSA11    24             17.0000000000
     11922       384  ARHM      H3             17.4828733093      -16.1654913691       86.6640279609  LPSA11    24             17.0000000000
     11923       384  ARHM      O3             17.0845967836      -16.6260265111       88.5620392964  LPSA11    24             17.0000000000
     11924       384  ARHM      HO3            17.2496759266      -17.3971054330       89.1463757531  LPSA11    24             17.0000000000
     11925       384  ARHM      C4             17.9815593667      -18.2571183425       86.9402325015  LPSA11    24             17.0000000000
     11926       384  ARHM      H4             18.6119093843      -18.8617429735       87.7071552895  LPSA11    24             17.0000000000
     11927       384  ARHM      O4             16.7142934493      -18.8694915671       86.8379508285  LPSA11    24             17.0000000000
     11928       384  ARHM      HO4            16.7104662083      -19.7949033534       87.0219124236  LPSA11    24             17.0000000000
     11929       384  ARHM      C6             18.7735840289      -19.6891186130       84.9175891319  LPSA11    24             17.0000000000
     11930       384  ARHM      H61            17.8312953691      -19.8090822090       84.3853494017  LPSA11    24             17.0000000000
     11931       384  ARHM      H62            19.5888523975      -19.6782162897       84.2649634992  LPSA11    24             17.0000000000
     11932       384  ARHM      H63            19.0060775448      -20.5040406441       85.6811466487  LPSA11    24             17.0000000000
     11933       385  ARHM      C1             21.1199841888      -16.4529670269       89.1588742089  LPSA11    25             18.0000000000
     11934       385  ARHM      H1             21.5027009312      -15.7390086041       88.4722246341  LPSA11    25             18.0000000000
     11935       385  ARHM      C5             21.9899176314      -18.4405424985       90.1670531641  LPSA11    25             18.0000000000
     11936       385  ARHM      H5             21.1682634553      -19.0441314771       89.8870230824  LPSA11    25             18.0000000000
     11937       385  ARHM      O5             22.2319961456      -17.3670093398       89.2315309535  LPSA11    25             18.0000000000
     11938       385  ARHM      C2             20.7717276106      -15.8627676042       90.4685713243  LPSA11    25             18.0000000000
     11939       385  ARHM      H2             19.8138746621      -15.2542362664       90.3413143991  LPSA11    25             18.0000000000
     11940       385  ARHM      O2             21.8647977943      -15.0114926503       90.9328696740  LPSA11    25             18.0000000000
     11941       385  ARHM      C3             20.5660506780      -17.0568487722       91.4562257518  LPSA11    25             18.0000000000
     11942       385  ARHM      H3             19.6983210665      -17.6472071885       91.0689171631  LPSA11    25             18.0000000000
     11943       385  ARHM      O3             20.2039876176      -16.4767188328       92.6920647463  LPSA11    25             18.0000000000
     11944       385  ARHM      C4             21.7010278251      -17.9182118353       91.5960769721  LPSA11    25             18.0000000000
     11945       385  ARHM      H4             22.6656249430      -17.3275955415       91.8876801091  LPSA11    25             18.0000000000
     11946       385  ARHM      O4             21.3656659045      -18.8905486912       92.5862492282  LPSA11    25             18.0000000000
     11947       385  ARHM      HO4            22.1873875044      -19.0482016199       93.0149361445  LPSA11    25             18.0000000000
     11948       385  ARHM      C6             23.1493741727      -19.4347827551       90.2083352735  LPSA11    25             18.0000000000
     11949       385  ARHM      H61            23.4555532547      -19.7622548978       89.1912344565  LPSA11    25             18.0000000000
     11950       385  ARHM      H62            24.0835693138      -19.0131656277       90.6686969550  LPSA11    25             18.0000000000
     11951       385  ARHM      H63            22.9165205676      -20.3850549775       90.8233913566  LPSA11    25             18.0000000000
     11952       386  BMANNA    C1             21.9093070236      -13.7478277036       90.3138108879  LPSA11    26             19.0000000000
     11953       386  BMANNA    H1             20.9212163472      -13.4752453052       89.8388342826  LPSA11    26             19.0000000000
     11954       386  BMANNA    C5             22.8025874624      -12.3099905286       88.6312665858  LPSA11    26             19.0000000000
     11955       386  BMANNA    H5             21.8151205486      -12.2235403081       88.1771240033  LPSA11    26             19.0000000000
     11956       386  BMANNA    O5             22.8731640147      -13.6082475185       89.2346891933  LPSA11    26             19.0000000000
     11957       386  BMANNA    C2             22.2003430728      -12.7743979029       91.3475147821  LPSA11    26             19.0000000000
     11958       386  BMANNA    H2             21.3625994320      -12.9072336893       92.1081287357  LPSA11    26             19.0000000000
     11959       386  BMANNA    N              23.5269031600      -13.0877375303       91.9238920796  LPSA11    26             19.0000000000
     11960       386  BMANNA    HN             24.2586092869      -13.1278032257       91.3050515894  LPSA11    26             19.0000000000
     11961       386  BMANNA    C              23.7821523382      -13.2132970564       93.1798471680  LPSA11    26             19.0000000000
     11962       386  BMANNA    O              22.8488533177      -13.2636334901       94.0003587425  LPSA11    26             19.0000000000
     11963       386  BMANNA    CT             25.2261019290      -13.2777030241       93.6758917343  LPSA11    26             19.0000000000
     11964       386  BMANNA    HT1            25.8149411544      -13.5866001838       92.8666282051  LPSA11    26             19.0000000000
     11965       386  BMANNA    HT2            25.5156673938      -13.7648155859       94.6620984389  LPSA11    26             19.0000000000
     11966       386  BMANNA    HT3            25.5085380406      -12.2321399658       93.8484898219  LPSA11    26             19.0000000000
     11967       386  BMANNA    C3             22.0863942302      -11.3867332537       90.7100883268  LPSA11    26             19.0000000000
     11968       386  BMANNA    H3             21.0380980935      -11.2675755665       90.3384445889  LPSA11    26             19.0000000000
     11969       386  BMANNA    O3             22.2559519594      -10.4001533526       91.7636866611  LPSA11    26             19.0000000000
     11970       386  BMANNA    HO3            21.4283212810      -10.4539044228       92.2265744207  LPSA11    26             19.0000000000
     11971       386  BMANNA    C4             23.0352032001      -11.2871058311       89.6481622736  LPSA11    26             19.0000000000
     11972       386  BMANNA    H4             24.1280254500      -11.4088249009       89.9013799111  LPSA11    26             19.0000000000
     11973       386  BMANNA    O4             22.9961105180      -10.0030777850       89.0416847738  LPSA11    26             19.0000000000
     11974       386  BMANNA    HO4            23.5388080163       -9.4097180908       89.5591157304  LPSA11    26             19.0000000000
     11975       386  BMANNA    C6             23.7403832974      -12.4053221486       87.3900617492  LPSA11    26             19.0000000000
     11976       386  BMANNA    H61            23.6995726543      -13.4034554202       86.9191763972  LPSA11    26             19.0000000000
     11977       386  BMANNA    H62            23.4933700584      -11.6890547722       86.6504270337  LPSA11    26             19.0000000000
     11978       386  BMANNA    O6             25.0995779162      -12.1584302007       87.7329108337  LPSA11    26             19.0000000000
     11979       386  BMANNA    HO6            25.1705616753      -11.3346415600       88.1688153196  LPSA11    26             19.0000000000
     11980       387  BGLCNA    C1             19.1797604445      -16.9055393608       93.4616184899  LPSA11    27             19.0000000000
     11981       387  BGLCNA    H1             19.1104403487      -17.9886261299       93.4392217979  LPSA11    27             19.0000000000
     11982       387  BGLCNA    C5             16.8592217166      -16.9596772525       93.9656603721  LPSA11    27             19.0000000000
     11983       387  BGLCNA    H5             16.9502549598      -18.0761057683       93.9564344452  LPSA11    27             19.0000000000
     11984       387  BGLCNA    O5             17.8623780977      -16.4783733065       93.0607755266  LPSA11    27             19.0000000000
     11985       387  BGLCNA    C2             19.5021182532      -16.4315599444       94.8806799918  LPSA11    27             19.0000000000
     11986       387  BGLCNA    H2             19.4388939246      -15.3295967188       94.8757458582  LPSA11    27             19.0000000000
     11987       387  BGLCNA    N              20.8478310497      -16.8287528804       95.2501113516  LPSA11    27             19.0000000000
     11988       387  BGLCNA    HN             21.0898931746      -17.8409530676       95.0827132934  LPSA11    27             19.0000000000
     11989       387  BGLCNA    C              21.5879993221      -15.8829363265       95.9523160909  LPSA11    27             19.0000000000
     11990       387  BGLCNA    O              21.1242323867      -14.8499160627       96.5238801166  LPSA11    27             19.0000000000
     11991       387  BGLCNA    CT             23.1121010136      -16.2074831472       96.0293745529  LPSA11    27             19.0000000000
     11992       387  BGLCNA    HT1            23.3652260100      -17.0768834662       95.3635606282  LPSA11    27             19.0000000000
     11993       387  BGLCNA    HT2            23.4913925000      -16.3499405691       97.0167906789  LPSA11    27             19.0000000000
     11994       387  BGLCNA    HT3            23.6670858526      -15.2425575830       95.7039804309  LPSA11    27             19.0000000000
     11995       387  BGLCNA    C3             18.4601009607      -16.9363512334       95.7540348103  LPSA11    27             19.0000000000
     11996       387  BGLCNA    H3             18.4015651151      -18.0531558920       95.7401190096  LPSA11    27             19.0000000000
     11997       387  BGLCNA    O3             18.8844704110      -16.4631112850       97.0775356047  LPSA11    27             19.0000000000
     11998       387  BGLCNA    C4             17.0534536374      -16.4543607175       95.3486864533  LPSA11    27             19.0000000000
     11999       387  BGLCNA    H4             17.0418526533      -15.3407862772       95.3090014479  LPSA11    27             19.0000000000
     12000       387  BGLCNA    O4             16.0847822342      -16.9182639142       96.2156872787  LPSA11    27             19.0000000000
     12001       387  BGLCNA    HO4            16.0396576653      -17.8318890666       96.0162444362  LPSA11    27             19.0000000000
     12002       387  BGLCNA    C6             15.4875918993      -16.6274396860       93.2852949846  LPSA11    27             19.0000000000
     12003       387  BGLCNA    H61            14.7444107245      -17.1922774596       93.8557506920  LPSA11    27             19.0000000000
     12004       387  BGLCNA    H62            15.2250461705      -15.5595746302       93.4725180191  LPSA11    27             19.0000000000
     12005       387  BGLCNA    O6             15.4953008908      -16.9625954462       91.9076175409  LPSA11    27             19.0000000000
     12006       387  BGLCNA    HO6            14.6253230754      -16.7105946314       91.5273290588  LPSA11    27             19.0000000000
     12007       388  AGAL      C1             18.3075679678      -17.0626510161       98.2622020222  LPSA11    28             20.0000000000
     12008       388  AGAL      H1             17.2911447812      -16.7766402858       98.3007149491  LPSA11    28             20.0000000000
     12009       388  AGAL      C5             19.6468805488      -19.0816143899       98.1710438288  LPSA11    28             20.0000000000
     12010       388  AGAL      H5             20.4051373057      -18.4906446057       97.4646141937  LPSA11    28             20.0000000000
     12011       388  AGAL      O5             18.2888008747      -18.4808155859       98.1147365872  LPSA11    28             20.0000000000
     12012       388  AGAL      C2             18.9693999945      -16.7685603890       99.6197190629  LPSA11    28             20.0000000000
     12013       388  AGAL      H2             18.3376015913      -17.3399184220      100.2965066153  LPSA11    28             20.0000000000
     12014       388  AGAL      O2             18.9233747515      -15.4261703751      100.0788731798  LPSA11    28             20.0000000000
     12015       388  AGAL      C3             20.3405817081      -17.3557131555       99.7396972452  LPSA11    28             20.0000000000
     12016       388  AGAL      H3             20.9505815112      -16.9759102360       98.8607737785  LPSA11    28             20.0000000000
     12017       388  AGAL      O3             21.1336214033      -17.0539563038      100.9043404272  LPSA11    28             20.0000000000
     12018       388  AGAL      HO3            21.9071563321      -16.5661084499      100.5606486229  LPSA11    28             20.0000000000
     12019       388  AGAL      C4             20.2604038212      -18.8118181632       99.5102226768  LPSA11    28             20.0000000000
     12020       388  AGAL      H4             21.2533471794      -19.1926578100       99.4798298294  LPSA11    28             20.0000000000
     12021       388  AGAL      O4             19.5265736664      -19.4948964483      100.4757933835  LPSA11    28             20.0000000000
     12022       388  AGAL      HO4            20.1526664593      -19.8913771172      101.0376442747  LPSA11    28             20.0000000000
     12023       388  AGAL      C6             19.7351500530      -20.5136969129       97.6362902244  LPSA11    28             20.0000000000
     12024       388  AGAL      H61            19.4702805610      -20.5161008867       96.5809275898  LPSA11    28             20.0000000000
     12025       388  AGAL      H62            20.7425698038      -21.0556368361       97.7651048223  LPSA11    28             20.0000000000
     12026       388  AGAL      O6             18.8354131859      -21.3399415412       98.3456070822  LPSA11    28             20.0000000000
     12027       388  AGAL      HO6            17.9672661435      -21.3075298077       97.9416813930  LPSA11    28             20.0000000000
     12028       389  ARHM      C1             18.5649914747      -15.4219022119      101.4808913342  LPSA11    29             21.0000000000
     12029       389  ARHM      H1             18.9004705855      -16.3792639112      101.9964955809  LPSA11    29             21.0000000000
     12030       389  ARHM      C5             16.6681291767      -14.0784284270      101.1486206043  LPSA11    29             21.0000000000
     12031       389  ARHM      H5             17.0064450777      -14.0541517790      100.0935446791  LPSA11    29             21.0000000000
     12032       389  ARHM      O5             17.1893770899      -15.2619299636      101.6833506475  LPSA11    29             21.0000000000
     12033       389  ARHM      C2             19.3246428840      -14.3603667540      102.1437305515  LPSA11    29             21.0000000000
     12034       389  ARHM      H2             20.3675776670      -14.4112844137      101.9067628034  LPSA11    29             21.0000000000
     12035       389  ARHM      O2             19.1894560679      -14.4081842947      103.5748524404  LPSA11    29             21.0000000000
     12036       389  ARHM      C3             18.8091773831      -13.0464406483      101.6289418068  LPSA11    29             21.0000000000
     12037       389  ARHM      H3             19.0602600693      -12.9619786943      100.4952263366  LPSA11    29             21.0000000000
     12038       389  ARHM      O3             19.5752223599      -12.0204460178      102.1995749427  LPSA11    29             21.0000000000
     12039       389  ARHM      HO3            19.0418106233      -11.2999531128      102.2092645043  LPSA11    29             21.0000000000
     12040       389  ARHM      C4             17.3693268594      -12.8566041438      101.8247918557  LPSA11    29             21.0000000000
     12041       389  ARHM      H4             17.0941795480      -12.8224655436      102.9338171738  LPSA11    29             21.0000000000
     12042       389  ARHM      O4             16.7872111368      -11.6233108255      101.3452167393  LPSA11    29             21.0000000000
     12043       389  ARHM      HO4            17.1104927151      -11.3438439059      100.4362974805  LPSA11    29             21.0000000000
     12044       389  ARHM      C6             15.1351729456      -14.1962530140      101.2162231226  LPSA11    29             21.0000000000
     12045       389  ARHM      H61            14.9431184961      -15.2378522297      100.7685423143  LPSA11    29             21.0000000000
     12046       389  ARHM      H62            14.8221017303      -14.2083095363      102.3013153741  LPSA11    29             21.0000000000
     12047       389  ARHM      H63            14.6936114732      -13.4000071176      100.6072571094  LPSA11    29             21.0000000000
     12048       390  ARHM      C1             20.1387577002      -15.0125506287      104.3945976075  LPSA11    30             22.0000000000
     12049       390  ARHM      H1             21.1237276527      -14.5303860862      104.2094096401  LPSA11    30             22.0000000000
     12050       390  ARHM      C5             18.9927895420      -17.1564338032      104.5143062533  LPSA11    30             22.0000000000
     12051       390  ARHM      H5             18.2324106168      -16.5714812335      103.8668162917  LPSA11    30             22.0000000000
     12052       390  ARHM      O5             20.2218533659      -16.4409664367      104.2052433351  LPSA11    30             22.0000000000
     12053       390  ARHM      C2             19.7761145162      -14.7616310095      105.8471183130  LPSA11    30             22.0000000000
     12054       390  ARHM      H2             19.6872496096      -13.7402798396      106.0289718167  LPSA11    30             22.0000000000
     12055       390  ARHM      O2             20.7734381972      -15.3865280237      106.5813641610  LPSA11    30             22.0000000000
     12056       390  ARHM      C3             18.5547678636      -15.4673381041      106.2079894766  LPSA11    30             22.0000000000
     12057       390  ARHM      H3             17.7941468754      -15.1963737486      105.5270001340  LPSA11    30             22.0000000000
     12058       390  ARHM      O3             18.0601355939      -15.1414217726      107.5373891676  LPSA11    30             22.0000000000
     12059       390  ARHM      C4             18.6603277374      -16.9774746457      105.9708288384  LPSA11    30             22.0000000000
     12060       390  ARHM      H4             19.4666531135      -17.4445587999      106.5400372406  LPSA11    30             22.0000000000
     12061       390  ARHM      O4             17.5640099644      -17.7089794667      106.2997755749  LPSA11    30             22.0000000000
     12062       390  ARHM      HO4            16.8104612866      -17.7433391499      105.6964454668  LPSA11    30             22.0000000000
     12063       390  ARHM      C6             19.1105180833      -18.5965296460      104.0930490251  LPSA11    30             22.0000000000
     12064       390  ARHM      H61            18.0907381834      -19.0570456797      104.2143179997  LPSA11    30             22.0000000000
     12065       390  ARHM      H62            19.2600344511      -18.6352991526      103.0019050467  LPSA11    30             22.0000000000
     12066       390  ARHM      H63            19.9146761456      -19.1747565235      104.6493652223  LPSA11    30             22.0000000000
     12067       391  BMANNA    C1             21.8690410260      -14.5786816587      106.9502319096  LPSA11    31             23.0000000000
     12068       391  BMANNA    H1             21.4808029902      -13.5558060483      107.1550799008  LPSA11    31             23.0000000000
     12069       391  BMANNA    C5             23.9656147554      -13.5923766898      106.2136717625  LPSA11    31             23.0000000000
     12070       391  BMANNA    H5             23.4931472765      -12.6574306394      106.5467054000  LPSA11    31             23.0000000000
     12071       391  BMANNA    O5             22.8622504144      -14.4822617853      105.8742289322  LPSA11    31             23.0000000000
     12072       391  BMANNA    C2             22.5321964722      -15.1462124205      108.0830629221  LPSA11    31             23.0000000000
     12073       391  BMANNA    H2             21.7904518411      -15.0989205229      108.9031915743  LPSA11    31             23.0000000000
     12074       391  BMANNA    N              22.8159861977      -16.5156533696      107.8252935315  LPSA11    31             23.0000000000
     12075       391  BMANNA    HN             22.9187123531      -16.7969393884      106.8111160773  LPSA11    31             23.0000000000
     12076       391  BMANNA    C              22.9029013885      -17.4383953518      108.7868858964  LPSA11    31             23.0000000000
     12077       391  BMANNA    O              22.6678847354      -17.1798450450      109.9536662434  LPSA11    31             23.0000000000
     12078       391  BMANNA    CT             23.2996705791      -18.8485694011      108.3237946568  LPSA11    31             23.0000000000
     12079       391  BMANNA    HT1            24.0427283354      -18.7502276754      107.5739831696  LPSA11    31             23.0000000000
     12080       391  BMANNA    HT2            22.3987752934      -19.3352894975      107.9347099034  LPSA11    31             23.0000000000
     12081       391  BMANNA    HT3            23.5944101057      -19.4798138637      109.1768357935  LPSA11    31             23.0000000000
     12082       391  BMANNA    C3             23.6674608501      -14.2642145368      108.4884560283  LPSA11    31             23.0000000000
     12083       391  BMANNA    H3             23.3200452996      -13.1843645976      108.6988550870  LPSA11    31             23.0000000000
     12084       391  BMANNA    O3             24.2277509293      -14.6611160985      109.7404994872  LPSA11    31             23.0000000000
     12085       391  BMANNA    HO3            23.4923475426      -15.1791089101      110.0111610137  LPSA11    31             23.0000000000
     12086       391  BMANNA    C4             24.6834781399      -14.2027163911      107.4199857710  LPSA11    31             23.0000000000
     12087       391  BMANNA    H4             25.1429176866      -15.2390259593      107.0572414185  LPSA11    31             23.0000000000
     12088       391  BMANNA    O4             25.7903450357      -13.4253572224      107.8525671122  LPSA11    31             23.0000000000
     12089       391  BMANNA    HO4            25.5167110451      -12.5447564149      108.1943429300  LPSA11    31             23.0000000000
     12090       391  BMANNA    C6             24.9474528663      -13.3716923344      105.0512686782  LPSA11    31             23.0000000000
     12091       391  BMANNA    H61            25.6528271241      -12.4932908069      105.3397811046  LPSA11    31             23.0000000000
     12092       391  BMANNA    H62            25.5842970613      -14.2327174223      104.8698551944  LPSA11    31             23.0000000000
     12093       391  BMANNA    O6             24.2634066596      -13.0507473583      103.8241467834  LPSA11    31             23.0000000000
     12094       391  BMANNA    HO6            23.8492372706      -12.1415148980      103.8134147631  LPSA11    31             23.0000000000
     12095       392  BGLCNA    C1             18.6507901062      -15.7962010730      108.6103969990  LPSA11    32             23.0000000000
     12096       392  BGLCNA    H1             19.7587415133      -15.9760981720      108.4325564695  LPSA11    32             23.0000000000
     12097       392  BGLCNA    C5             18.7732502935      -17.8193431088      109.9277617404  LPSA11    32             23.0000000000
     12098       392  BGLCNA    H5             19.8514132302      -17.9057929530      109.5374749077  LPSA11    32             23.0000000000
     12099       392  BGLCNA    O5             18.0701297698      -17.0581421624      108.9423333575  LPSA11    32             23.0000000000
     12100       392  BGLCNA    C2             18.6031495576      -14.9683946790      109.8194522937  LPSA11    32             23.0000000000
     12101       392  BGLCNA    H2             17.5778252561      -14.9767647826      110.1044894257  LPSA11    32             23.0000000000
     12102       392  BGLCNA    N              19.0483237667      -13.6349315534      109.5956973249  LPSA11    32             23.0000000000
     12103       392  BGLCNA    HN             19.7765999621      -13.6450570733      108.8809076996  LPSA11    32             23.0000000000
     12104       392  BGLCNA    C              18.5681781976      -12.4699404884      110.0864625708  LPSA11    32             23.0000000000
     12105       392  BGLCNA    O              17.6727331806      -12.4305171927      110.9304085025  LPSA11    32             23.0000000000
     12106       392  BGLCNA    CT             19.2276423136      -11.1664618645      109.5841031968  LPSA11    32             23.0000000000
     12107       392  BGLCNA    HT1            19.7685875424      -11.5745499058      108.6281101354  LPSA11    32             23.0000000000
     12108       392  BGLCNA    HT2            19.9954604186      -10.7552068940      110.1898124037  LPSA11    32             23.0000000000
     12109       392  BGLCNA    HT3            18.4807712254      -10.3811995397      109.3122359934  LPSA11    32             23.0000000000
     12110       392  BGLCNA    C3             19.3986786371      -15.6497834761      110.8930231790  LPSA11    32             23.0000000000
     12111       392  BGLCNA    H3             20.3370750637      -15.8492762991      110.4606187373  LPSA11    32             23.0000000000
     12112       392  BGLCNA    O3             19.6207755260      -14.8496012641      112.0657798240  LPSA11    32             23.0000000000
     12113       392  BGLCNA    C4             18.7322579280      -16.9694949993      111.1707572500  LPSA11    32             23.0000000000
     12114       392  BGLCNA    H4             17.6918102797      -16.7449304720      111.5318289610  LPSA11    32             23.0000000000
     12115       392  BGLCNA    O4             19.3734857590      -17.6654310976      112.2070236435  LPSA11    32             23.0000000000
     12116       392  BGLCNA    HO4            18.9966054160      -17.4594736744      113.0745323218  LPSA11    32             23.0000000000
     12117       392  BGLCNA    C6             18.1833703618      -19.2109238984      110.0229508171  LPSA11    32             23.0000000000
     12118       392  BGLCNA    H61            18.8057666190      -19.8853813491      110.7194343748  LPSA11    32             23.0000000000
     12119       392  BGLCNA    H62            17.1609830672      -19.1517076527      110.5717638480  LPSA11    32             23.0000000000
     12120       392  BGLCNA    O6             18.1381618228      -19.8641445274      108.7709294272  LPSA11    32             23.0000000000
     12121       392  BGLCNA    HO6            18.9365292291      -19.6215573005      108.2360311317  LPSA11    32             23.0000000000
     12122       393  AGAL      C1             20.9240489680      -15.0210711547      112.6842874521  LPSA11    33             24.0000000000
     12123       393  AGAL      H1             21.1680730770      -16.0827385002      112.5979959475  LPSA11    33             24.0000000000
     12124       393  AGAL      C5             21.6662810553      -12.8161753760      112.2149219831  LPSA11    33             24.0000000000
     12125       393  AGAL      H5             20.6195569106      -12.7074547795      111.8792915250  LPSA11    33             24.0000000000
     12126       393  AGAL      O5             21.9607349314      -14.1903850796      112.0726784748  LPSA11    33             24.0000000000
     12127       393  AGAL      C2             20.7836066092      -14.6098870141      114.1482787662  LPSA11    33             24.0000000000
     12128       393  AGAL      H2             21.8589374752      -14.6610072010      114.5751854976  LPSA11    33             24.0000000000
     12129       393  AGAL      O2             20.0847760114      -15.6218412599      114.8486222260  LPSA11    33             24.0000000000
     12130       393  AGAL      C3             20.4985283462      -13.1357793437      114.2945545625  LPSA11    33             24.0000000000
     12131       393  AGAL      H3             19.5366959973      -12.8610539200      113.7405815065  LPSA11    33             24.0000000000
     12132       393  AGAL      O3             20.1839170663      -12.7462786528      115.5672660328  LPSA11    33             24.0000000000
     12133       393  AGAL      HO3            20.7856578340      -12.9860143285      116.2400186851  LPSA11    33             24.0000000000
     12134       393  AGAL      C4             21.6015260898      -12.3121592762      113.6708488317  LPSA11    33             24.0000000000
     12135       393  AGAL      H4             21.3514742580      -11.2443002374      113.6729875792  LPSA11    33             24.0000000000
     12136       393  AGAL      O4             22.9268919083      -12.3956169862      114.2435538900  LPSA11    33             24.0000000000
     12137       393  AGAL      HO4            23.0036891280      -13.0696166162      114.9085525172  LPSA11    33             24.0000000000
     12138       393  AGAL      C6             22.5069131075      -11.9582846544      111.2992528405  LPSA11    33             24.0000000000
     12139       393  AGAL      H61            22.2294886496      -12.2905402018      110.2783408757  LPSA11    33             24.0000000000
     12140       393  AGAL      H62            22.3388423472      -10.8657071109      111.3458027743  LPSA11    33             24.0000000000
     12141       393  AGAL      O6             23.8928089294      -12.0428879319      111.4129476537  LPSA11    33             24.0000000000
     12142       393  AGAL      HO6            24.2924701169      -12.7491365613      110.8444757795  LPSA11    33             24.0000000000
     12143       394  ARHM      C1             20.7070458287      -16.0653255588      116.0109133884  LPSA11    34             25.0000000000
     12144       394  ARHM      H1             21.0704493249      -15.2340180692      116.6389743656  LPSA11    34             25.0000000000
     12145       394  ARHM      C5             21.6331829597      -18.0927836304      115.0727799907  LPSA11    34             25.0000000000
     12146       394  ARHM      H5             21.2854999942      -17.7604422799      114.0209633333  LPSA11    34             25.0000000000
     12147       394  ARHM      O5             21.8805426597      -16.8954402431      115.8926868953  LPSA11    34             25.0000000000
     12148       394  ARHM      C2             19.6265514714      -16.7936638701      116.7601555753  LPSA11    34             25.0000000000
     12149       394  ARHM      H2             18.6513952289      -16.2461208948      116.8710959342  LPSA11    34             25.0000000000
     12150       394  ARHM      O2             19.9927889137      -17.1954341907      118.1592972339  LPSA11    34             25.0000000000
     12151       394  ARHM      C3             19.2993385339      -18.0700650181      115.9988665506  LPSA11    34             25.0000000000
     12152       394  ARHM      H3             18.9697708210      -17.8488511026      114.9724172480  LPSA11    34             25.0000000000
     12153       394  ARHM      O3             18.2774648111      -18.9106852467      116.5878695042  LPSA11    34             25.0000000000
     12154       394  ARHM      HO3            17.6927143010      -19.3169185134      115.9559434517  LPSA11    34             25.0000000000
     12155       394  ARHM      C4             20.5498521840      -18.9690666006      115.7987835878  LPSA11    34             25.0000000000
     12156       394  ARHM      H4             21.0596499521      -19.1964196472      116.7495315617  LPSA11    34             25.0000000000
     12157       394  ARHM      O4             20.2721681807      -20.1474779028      115.1362621200  LPSA11    34             25.0000000000
     12158       394  ARHM      HO4            19.8429977594      -20.7911140308      115.6953140327  LPSA11    34             25.0000000000
     12159       394  ARHM      C6             22.9485539914      -18.9196025336      114.8413279703  LPSA11    34             25.0000000000
     12160       394  ARHM      H61            23.3934491841      -19.3440522214      115.7172490283  LPSA11    34             25.0000000000
     12161       394  ARHM      H62            22.6473561990      -19.8857881677      114.3996926230  LPSA11    34             25.0000000000
     12162       394  ARHM      H63            23.6983339270      -18.4780481328      114.1590834060  LPSA11    34             25.0000000000
     12163       395  ARHM      C1             20.3668817971      -16.1496046983      119.0795908573  LPSA11    35             26.0000000000
     12164       395  ARHM      H1             19.6799204136      -15.2258836734      118.8787348947  LPSA11    35             26.0000000000
     12165       395  ARHM      C5             22.6908614279      -16.8385446046      119.2408916176  LPSA11    35             26.0000000000
     12166       395  ARHM      H5             22.5018294584      -17.7373930772      118.5254732223  LPSA11    35             26.0000000000
     12167       395  ARHM      O5             21.7834661335      -15.7132055146      118.9290334222  LPSA11    35             26.0000000000
     12168       395  ARHM      C2             20.1285472172      -16.6109546519      120.5365485050  LPSA11    35             26.0000000000
     12169       395  ARHM      H2             19.0376695929      -16.8323015584      120.7134209997  LPSA11    35             26.0000000000
     12170       395  ARHM      O2             20.4605426508      -15.5985868830      121.4126203716  LPSA11    35             26.0000000000
     12171       395  ARHM      C3             21.0219270708      -17.8262699006      120.8720061906  LPSA11    35             26.0000000000
     12172       395  ARHM      H3             20.7218175795      -18.6407801173      120.1344793452  LPSA11    35             26.0000000000
     12173       395  ARHM      O3             20.7327553756      -18.3437976196      122.1540075829  LPSA11    35             26.0000000000
     12174       395  ARHM      HO3            20.4872287192      -17.6155978556      122.7288731339  LPSA11    35             26.0000000000
     12175       395  ARHM      C4             22.4502296228      -17.3963831090      120.6788917534  LPSA11    35             26.0000000000
     12176       395  ARHM      H4             22.7606626465      -16.5337419613      121.3307119103  LPSA11    35             26.0000000000
     12177       395  ARHM      O4             23.2659105059      -18.5524610562      120.9693790153  LPSA11    35             26.0000000000
     12178       395  ARHM      HO4            22.9369291241      -19.3856042648      120.5581709812  LPSA11    35             26.0000000000
     12179       395  ARHM      C6             24.1597760329      -16.4416822454      118.8642347863  LPSA11    35             26.0000000000
     12180       395  ARHM      H61            24.2677971096      -16.2944945153      117.7433556958  LPSA11    35             26.0000000000
     12181       395  ARHM      H62            24.2934569654      -15.5250996992      119.4176110492  LPSA11    35             26.0000000000
     12182       395  ARHM      H63            24.8027470934      -17.3467710539      119.0633705917  LPSA11    35             26.0000000000
     12183       396  BMANNA    C1             19.6033748122      -14.4974941449      121.4471464502  LPSA11    36             27.0000000000
     12184       396  BMANNA    H1             18.5787986086      -14.7680958426      121.0972061898  LPSA11    36             27.0000000000
     12185       396  BMANNA    C5             18.8828153804      -12.3018358114      120.7299884793  LPSA11    36             27.0000000000
     12186       396  BMANNA    H5             17.9369188262      -12.7688699340      120.4610684421  LPSA11    36             27.0000000000
     12187       396  BMANNA    O5             19.9348524775      -13.3167896235      120.6641532654  LPSA11    36             27.0000000000
     12188       396  BMANNA    C2             19.4640284676      -14.0435941197      122.8920138725  LPSA11    36             27.0000000000
     12189       396  BMANNA    H2             19.1220085954      -14.9211651741      123.4719477421  LPSA11    36             27.0000000000
     12190       396  BMANNA    N              20.7569655497      -13.6340791342      123.4395449790  LPSA11    36             27.0000000000
     12191       396  BMANNA    HN             21.3777000702      -13.0818904122      122.8746519580  LPSA11    36             27.0000000000
     12192       396  BMANNA    C              21.0082456582      -13.7206248389      124.7737151700  LPSA11    36             27.0000000000
     12193       396  BMANNA    O              20.2959027505      -14.2717361653      125.6190347561  LPSA11    36             27.0000000000
     12194       396  BMANNA    CT             22.2273994181      -13.0621453772      125.3570716528  LPSA11    36             27.0000000000
     12195       396  BMANNA    HT1            22.4021249894      -12.0927127720      124.8802869227  LPSA11    36             27.0000000000
     12196       396  BMANNA    HT2            23.1799200608      -13.6346885598      125.1731404614  LPSA11    36             27.0000000000
     12197       396  BMANNA    HT3            22.2377296206      -12.9451267652      126.4547536948  LPSA11    36             27.0000000000
     12198       396  BMANNA    C3             18.4199368613      -12.9599509628      122.9763638711  LPSA11    36             27.0000000000
     12199       396  BMANNA    H3             17.4458703712      -13.3377305189      122.6403873786  LPSA11    36             27.0000000000
     12200       396  BMANNA    O3             18.1969702841      -12.5201709785      124.3414054450  LPSA11    36             27.0000000000
     12201       396  BMANNA    HO3            17.3374392303      -12.6789515607      124.7171830083  LPSA11    36             27.0000000000
     12202       396  BMANNA    C4             18.7598311792      -11.8019083559      122.1146940524  LPSA11    36             27.0000000000
     12203       396  BMANNA    H4             19.6573700874      -11.3159849532      122.4263894750  LPSA11    36             27.0000000000
     12204       396  BMANNA    O4             17.7798498737      -10.7708579539      122.2172873890  LPSA11    36             27.0000000000
     12205       396  BMANNA    HO4            17.8310513175      -10.6496715975      123.1985163392  LPSA11    36             27.0000000000
     12206       396  BMANNA    C6             19.1751951806      -11.2455750725      119.7412642597  LPSA11    36             27.0000000000
     12207       396  BMANNA    H61            19.1791781374      -11.6441224104      118.6946701192  LPSA11    36             27.0000000000
     12208       396  BMANNA    H62            18.2741825228      -10.6254328699      119.7045442506  LPSA11    36             27.0000000000
     12209       396  BMANNA    O6             20.3737155873      -10.4640856401      120.0914698020  LPSA11    36             27.0000000000
     12210       396  BMANNA    HO6            20.0594569632       -9.7419194905      120.6476247167  LPSA11    36             27.0000000000
     12211       397  ECLIPA    HB6S          -10.5169683856      -24.0657416356       20.4612168218  LPSA12    1               0.0000000000
     12212       397  ECLIPA    OB6           -11.9599993892      -24.7061531288       21.7140249152  LPSA12    1               0.0000000000
     12213       397  ECLIPA    CB6           -10.9301050019      -25.0074092237       20.7042159014  LPSA12    1               0.0000000000
     12214       397  ECLIPA    HB6R          -10.2580619139      -25.7695402551       21.0541931349  LPSA12    1               0.0000000000
     12215       397  ECLIPA    CB5           -11.5418046439      -25.6696980629       19.3988764877  LPSA12    1               0.0000000000
     12216       397  ECLIPA    OB5           -12.6016470351      -24.7226013028       18.9716901872  LPSA12    1               0.0000000000
     12217       397  ECLIPA    HB5           -12.0320087004      -26.5863040499       19.7771798410  LPSA12    1               0.0000000000
     12218       397  ECLIPA    CB1           -13.2440150952      -25.2126488954       17.7717324898  LPSA12    1               0.0000000000
     12219       397  ECLIPA    HB1           -13.7269395508      -26.2061978890       17.9003641080  LPSA12    1               0.0000000000
     12220       397  ECLIPA    OA6           -14.1979577731      -24.2982637314       17.3217246577  LPSA12    1               0.0000000000
     12221       397  ECLIPA    CA6           -14.0089650412      -22.8896479316       17.5745106853  LPSA12    1               0.0000000000
     12222       397  ECLIPA    HA6R          -12.9255456633      -22.7053894260       17.7226451425  LPSA12    1               0.0000000000
     12223       397  ECLIPA    HA6S          -14.7030096483      -22.5964166933       18.4598965841  LPSA12    1               0.0000000000
     12224       397  ECLIPA    CB4           -10.4677337382      -25.9129786096       18.3206521937  LPSA12    1               0.0000000000
     12225       397  ECLIPA    HB4            -9.9839289616      -24.9635879901       18.0085584641  LPSA12    1               0.0000000000
     12226       397  ECLIPA    OB4            -9.6669221425      -26.9653082932       18.9017319965  LPSA12    1               0.0000000000
     12227       397  ECLIPA    PB             -8.1434392464      -26.6604042109       19.3234616795  LPSA12    1               0.0000000000
     12228       397  ECLIPA    OPB4           -7.8330921922      -27.5272436660       20.5579515876  LPSA12    1               0.0000000000
     12229       397  ECLIPA    OPB3           -8.2269947885      -25.1519643181       19.6614545037  LPSA12    1               0.0000000000
     12230       397  ECLIPA    OPB2           -7.2708538865      -26.9029237128       18.0829495795  LPSA12    1               0.0000000000
     12231       397  ECLIPA    CB3           -11.2088752752      -26.4127819900       17.0955893951  LPSA12    1               0.0000000000
     12232       397  ECLIPA    OB3           -10.4068271970      -26.6150534060       15.9186528231  LPSA12    1               0.0000000000
     12233       397  ECLIPA    HB3           -11.8814248552      -27.2936858347       17.3284540628  LPSA12    1               0.0000000000
     12234       397  ECLIPA    C71            -9.9230973781      -27.7906820613       15.6929469039  LPSA12    1               0.0000000000
     12235       397  ECLIPA    O71           -10.1892431793      -28.8018281190       16.3832172580  LPSA12    1               0.0000000000
     12236       397  ECLIPA    C72            -9.1407781565      -27.7286286731       14.3548430386  LPSA12    1               0.0000000000
     12237       397  ECLIPA    H72R           -9.8200213575      -27.3829209244       13.5774555414  LPSA12    1               0.0000000000
     12238       397  ECLIPA    H72S           -8.6575026340      -28.7743339380       14.1464415926  LPSA12    1               0.0000000000
     12239       397  ECLIPA    CB2           -12.2495593040      -25.3572336219       16.6720734084  LPSA12    1               0.0000000000
     12240       397  ECLIPA    HB2           -11.6472845634      -24.3501444693       16.5298168153  LPSA12    1               0.0000000000
     12241       397  ECLIPA    NB2           -12.9999100366      -25.7425429312       15.4577284722  LPSA12    1               0.0000000000
     12242       397  ECLIPA    HNB2          -13.7973539619      -26.3280991244       15.5965609326  LPSA12    1               0.0000000000
     12243       397  ECLIPA    CA4           -15.7458933103      -22.6208824079       15.7929312798  LPSA12    1               0.0000000000
     12244       397  ECLIPA    HA4           -15.6330619567      -23.6931499285       15.4903430209  LPSA12    1               0.0000000000
     12245       397  ECLIPA    OA4           -16.7048931297      -22.5131577663       16.8012065728  LPSA12    1               0.0000000000
     12246       397  ECLIPA    HOA4          -16.4203433078      -22.8702006499       17.5928838569  LPSA12    1               0.0000000000
     12247       397  ECLIPA    CA5           -14.4738070401      -22.1399642307       16.3547806008  LPSA12    1               0.0000000000
     12248       397  ECLIPA    HA5           -14.3857650708      -20.9992474121       16.5880746347  LPSA12    1               0.0000000000
     12249       397  ECLIPA    OA5           -13.4548700524      -22.3571703516       15.3689671688  LPSA12    1               0.0000000000
     12250       397  ECLIPA    CA1           -13.7653483450      -21.6647498475       14.1076640156  LPSA12    1               0.0000000000
     12251       397  ECLIPA    HA1           -13.0727413619      -22.2138874555       13.4118188108  LPSA12    1               0.0000000000
     12252       397  ECLIPA    OA1           -13.4293447194      -20.2913744753       14.1359876212  LPSA12    1               0.0000000000
     12253       397  ECLIPA    OPA2          -12.4318041917      -19.0890226965       15.9734101064  LPSA12    1               0.0000000000
     12254       397  ECLIPA    OPA3          -11.0540644762      -20.9041172076       14.8300177673  LPSA12    1               0.0000000000
     12255       397  ECLIPA    OPA4          -11.5085521990      -18.7965573947       13.6615320840  LPSA12    1               0.0000000000
     12256       397  ECLIPA    PA            -12.0401901521      -19.7834877968       14.6765383084  LPSA12    1               0.0000000000
     12257       397  ECLIPA    CA3           -16.1644435191      -21.8957776731       14.5219348229  LPSA12    1               0.0000000000
     12258       397  ECLIPA    HA3           -16.3642003714      -20.7737513149       14.7377032538  LPSA12    1               0.0000000000
     12259       397  ECLIPA    OA3           -17.4619665590      -22.3936225989       14.2498111976  LPSA12    1               0.0000000000
     12260       397  ECLIPA    C31           -17.5255154061      -23.5403860446       13.5006246295  LPSA12    1               0.0000000000
     12261       397  ECLIPA    O31           -17.3826731261      -23.6260511660       12.2941239937  LPSA12    1               0.0000000000
     12262       397  ECLIPA    C32           -18.3212647299      -24.5988381706       14.2780289507  LPSA12    1               0.0000000000
     12263       397  ECLIPA    H32R          -19.2480236571      -24.8183404803       13.7149713840  LPSA12    1               0.0000000000
     12264       397  ECLIPA    H32S          -18.5568571785      -24.2295092509       15.2729523512  LPSA12    1               0.0000000000
     12265       397  ECLIPA    CA2           -15.0689901851      -22.1256259987       13.4984733916  LPSA12    1               0.0000000000
     12266       397  ECLIPA    HA2           -14.9403202680      -23.2064914299       13.3982259915  LPSA12    1               0.0000000000
     12267       397  ECLIPA    NA2           -15.3195097268      -21.4580608425       12.2035087571  LPSA12    1               0.0000000000
     12268       397  ECLIPA    HNA2          -16.2053127173      -21.0785430583       12.0865030408  LPSA12    1               0.0000000000
     12269       397  ECLIPA    C73            -7.9733005284      -26.7763018108       14.3319064372  LPSA12    1               0.0000000000
     12270       397  ECLIPA    H73R           -7.3593157594      -26.8382539110       15.2227416964  LPSA12    1               0.0000000000
     12271       397  ECLIPA    O73            -8.5337576246      -25.4414930483       14.2644256719  LPSA12    1               0.0000000000
     12272       397  ECLIPA    C81            -7.9967625744      -24.3611455202       14.8555734565  LPSA12    1               0.0000000000
     12273       397  ECLIPA    O81            -7.0338632950      -24.5243382684       15.6690894779  LPSA12    1               0.0000000000
     12274       397  ECLIPA    C82            -8.6394372395      -23.0531947879       14.3536111794  LPSA12    1               0.0000000000
     12275       397  ECLIPA    H82R           -8.2212523901      -22.1851179853       14.8531840528  LPSA12    1               0.0000000000
     12276       397  ECLIPA    H82S           -9.7392735351      -23.0438402148       14.5323473422  LPSA12    1               0.0000000000
     12277       397  ECLIPA    C83            -8.4310715944      -22.9163107436       12.8301722806  LPSA12    1               0.0000000000
     12278       397  ECLIPA    H83R           -9.2079431621      -23.5287067557       12.2351841548  LPSA12    1               0.0000000000
     12279       397  ECLIPA    H83S           -7.4910944518      -23.4168476221       12.5911296392  LPSA12    1               0.0000000000
     12280       397  ECLIPA    C84            -8.5939585464      -21.4751677079       12.3050927261  LPSA12    1               0.0000000000
     12281       397  ECLIPA    H84R           -7.6965865205      -20.9058260587       12.5767117503  LPSA12    1               0.0000000000
     12282       397  ECLIPA    H84S           -9.5145215815      -21.1448523920       12.7369555497  LPSA12    1               0.0000000000
     12283       397  ECLIPA    C85            -8.7756249040      -21.4571419498       10.7695484051  LPSA12    1               0.0000000000
     12284       397  ECLIPA    H85R           -9.4775178616      -22.2721064796       10.5503608829  LPSA12    1               0.0000000000
     12285       397  ECLIPA    H85S           -7.8164028283      -21.7378026284       10.2367999955  LPSA12    1               0.0000000000
     12286       397  ECLIPA    C86            -9.4455508190      -20.1347500474       10.3034592726  LPSA12    1               0.0000000000
     12287       397  ECLIPA    H86R           -8.6978753978      -19.3313966132        9.9932223571  LPSA12    1               0.0000000000
     12288       397  ECLIPA    H86S          -10.0428683528      -19.6960497176       11.0807540114  LPSA12    1               0.0000000000
     12289       397  ECLIPA    C87           -10.4917958864      -20.3689194194        9.1601018854  LPSA12    1               0.0000000000
     12290       397  ECLIPA    H87R          -10.9055396543      -19.4306329486        8.8049419625  LPSA12    1               0.0000000000
     12291       397  ECLIPA    H87S          -11.3750017891      -20.9498506700        9.5406723883  LPSA12    1               0.0000000000
     12292       397  ECLIPA    C88            -9.9215008928      -21.1924498143        8.0318999685  LPSA12    1               0.0000000000
     12293       397  ECLIPA    H88R           -9.8368516150      -22.2834313940        8.3479828359  LPSA12    1               0.0000000000
     12294       397  ECLIPA    H88S           -8.8203578461      -20.9680407934        7.9254521495  LPSA12    1               0.0000000000
     12295       397  ECLIPA    C89           -10.7570699512      -21.1628915057        6.7101000712  LPSA12    1               0.0000000000
     12296       397  ECLIPA    H89R          -11.7950131070      -20.8013996332        6.8746682686  LPSA12    1               0.0000000000
     12297       397  ECLIPA    H89S          -10.8727096849      -22.1164692263        6.2317001698  LPSA12    1               0.0000000000
     12298       397  ECLIPA    C810          -10.0255426424      -20.2558664830        5.7047246593  LPSA12    1               0.0000000000
     12299       397  ECLIPA    H810R          -8.9723254915      -20.3926741241        6.0108430704  LPSA12    1               0.0000000000
     12300       397  ECLIPA    H810S         -10.3346667111      -19.2394378710        5.8554647029  LPSA12    1               0.0000000000
     12301       397  ECLIPA    C811          -10.2250422798      -20.5978681833        4.2179945741  LPSA12    1               0.0000000000
     12302       397  ECLIPA    H811R         -10.0154608092      -19.8461627729        3.5081125689  LPSA12    1               0.0000000000
     12303       397  ECLIPA    H811S         -11.3114943217      -20.9831444532        4.1819101877  LPSA12    1               0.0000000000
     12304       397  ECLIPA    C812           -9.5098566039      -21.8715356379        3.7413673409  LPSA12    1               0.0000000000
     12305       397  ECLIPA    H812R          -9.8858949427      -22.0839693059        2.6403157337  LPSA12    1               0.0000000000
     12306       397  ECLIPA    H812S          -9.6098839605      -22.7138723752        4.4144737196  LPSA12    1               0.0000000000
     12307       397  ECLIPA    C813           -7.9758685639      -21.7532716669        3.6785234959  LPSA12    1               0.0000000000
     12308       397  ECLIPA    H813R          -7.7524960094      -20.9474211939        2.9398073555  LPSA12    1               0.0000000000
     12309       397  ECLIPA    H813S          -7.4529729355      -21.4529618648        4.6616087352  LPSA12    1               0.0000000000
     12310       397  ECLIPA    C814           -7.2926168403      -22.9923560914        3.1377409857  LPSA12    1               0.0000000000
     12311       397  ECLIPA    H814R          -7.7599894600      -23.4624099406        2.1719074593  LPSA12    1               0.0000000000
     12312       397  ECLIPA    H814S          -7.2834255769      -23.7668557861        3.9166242729  LPSA12    1               0.0000000000
     12313       397  ECLIPA    H814T          -6.2257295522      -22.7823409640        2.8964685373  LPSA12    1               0.0000000000
     12314       397  ECLIPA    C74            -6.9987708080      -26.8331182104       13.1792855021  LPSA12    1               0.0000000000
     12315       397  ECLIPA    H74R           -6.4334451855      -27.7446554771       12.9935747315  LPSA12    1               0.0000000000
     12316       397  ECLIPA    H74S           -6.2155780533      -25.9873971814       13.3086690609  LPSA12    1               0.0000000000
     12317       397  ECLIPA    C75            -7.7017774196      -26.4170158076       11.8151371119  LPSA12    1               0.0000000000
     12318       397  ECLIPA    H75R           -6.9125461391      -25.8394632378       11.2107603889  LPSA12    1               0.0000000000
     12319       397  ECLIPA    H75S           -8.5481768208      -25.7302520666       12.0082837783  LPSA12    1               0.0000000000
     12320       397  ECLIPA    C76            -8.2094490124      -27.5847451605       10.9251453624  LPSA12    1               0.0000000000
     12321       397  ECLIPA    H76R           -9.1790761122      -27.9585942875       11.3555905686  LPSA12    1               0.0000000000
     12322       397  ECLIPA    H76S           -7.5135050561      -28.5219686999       10.9731137071  LPSA12    1               0.0000000000
     12323       397  ECLIPA    C77            -8.4340306212      -27.2972705079        9.4191603634  LPSA12    1               0.0000000000
     12324       397  ECLIPA    H77R           -7.4856894368      -27.0021864052        9.0408775908  LPSA12    1               0.0000000000
     12325       397  ECLIPA    H77S           -9.0358518484      -26.3689157999        9.2852383479  LPSA12    1               0.0000000000
     12326       397  ECLIPA    C78            -9.1738637464      -28.5047422702        8.8297405752  LPSA12    1               0.0000000000
     12327       397  ECLIPA    H78R           -8.6452698905      -29.3996777356        9.1562620580  LPSA12    1               0.0000000000
     12328       397  ECLIPA    H78S          -10.1873966017      -28.4701359376        9.3169442960  LPSA12    1               0.0000000000
     12329       397  ECLIPA    C79            -9.5223176733      -28.3369307449        7.2570767761  LPSA12    1               0.0000000000
     12330       397  ECLIPA    H79R          -10.5883654673      -27.9611778098        7.1763205913  LPSA12    1               0.0000000000
     12331       397  ECLIPA    H79S           -9.4773305892      -29.3246572824        6.7882549413  LPSA12    1               0.0000000000
     12332       397  ECLIPA    C710           -8.5089312435      -27.5964996519        6.3785096220  LPSA12    1               0.0000000000
     12333       397  ECLIPA    H710R          -8.4139707677      -26.5886236563        6.8460783027  LPSA12    1               0.0000000000
     12334       397  ECLIPA    H710S          -7.6090285247      -28.0740271941        6.4843026416  LPSA12    1               0.0000000000
     12335       397  ECLIPA    C711           -8.9452896202      -27.4237644236        4.9384125046  LPSA12    1               0.0000000000
     12336       397  ECLIPA    H711R          -9.0260865034      -28.4473665912        4.5670708729  LPSA12    1               0.0000000000
     12337       397  ECLIPA    H711S          -9.9141261762      -26.8624966874        4.9306188492  LPSA12    1               0.0000000000
     12338       397  ECLIPA    C712           -7.8925327516      -26.6032533097        4.2148670498  LPSA12    1               0.0000000000
     12339       397  ECLIPA    H712R          -6.9533126025      -27.1587157563        4.3130666899  LPSA12    1               0.0000000000
     12340       397  ECLIPA    H712S          -7.7646713722      -25.7122849432        4.8522839389  LPSA12    1               0.0000000000
     12341       397  ECLIPA    C713           -8.3450551093      -26.2317678684        2.7357390519  LPSA12    1               0.0000000000
     12342       397  ECLIPA    H713R          -9.2695268997      -25.6060234739        2.8800411466  LPSA12    1               0.0000000000
     12343       397  ECLIPA    H713S          -7.4714490791      -25.6379644463        2.2750064041  LPSA12    1               0.0000000000
     12344       397  ECLIPA    C714           -8.5038589600      -27.5073439278        1.8879763961  LPSA12    1               0.0000000000
     12345       397  ECLIPA    H714R          -7.5437933447      -28.0276415609        1.7626189762  LPSA12    1               0.0000000000
     12346       397  ECLIPA    H714S          -9.3565548199      -28.1184837812        2.2081901572  LPSA12    1               0.0000000000
     12347       397  ECLIPA    H714T          -8.7287432369      -27.0889935474        0.9249202435  LPSA12    1               0.0000000000
     12348       397  ECLIPA    C51           -12.4879241647      -25.5104213804       14.2380633031  LPSA12    1               0.0000000000
     12349       397  ECLIPA    O51           -11.5924123402      -24.6455571214       14.1304636378  LPSA12    1               0.0000000000
     12350       397  ECLIPA    C52           -12.9584446132      -26.3795937578       13.0157035712  LPSA12    1               0.0000000000
     12351       397  ECLIPA    H52R          -12.4213131921      -27.3093826920       12.8950255930  LPSA12    1               0.0000000000
     12352       397  ECLIPA    H52S          -13.9891127355      -26.5633719392       13.2222025935  LPSA12    1               0.0000000000
     12353       397  ECLIPA    C53           -12.9399541656      -25.4369529904       11.7526064304  LPSA12    1               0.0000000000
     12354       397  ECLIPA    H53R          -13.0541296821      -24.3886529526       12.0082431084  LPSA12    1               0.0000000000
     12355       397  ECLIPA    O53           -13.9054778885      -25.9889802364       10.8431816314  LPSA12    1               0.0000000000
     12356       397  ECLIPA    C61           -14.9495674678      -25.2485596802       10.5090573566  LPSA12    1               0.0000000000
     12357       397  ECLIPA    O61           -15.1635488228      -24.1325723739       10.8659713306  LPSA12    1               0.0000000000
     12358       397  ECLIPA    C62           -15.8607673228      -26.0570620912        9.5765835255  LPSA12    1               0.0000000000
     12359       397  ECLIPA    H62R          -16.4534064249      -26.7455439471       10.2152837125  LPSA12    1               0.0000000000
     12360       397  ECLIPA    H62S          -15.1964710743      -26.7733113886        9.0470049452  LPSA12    1               0.0000000000
     12361       397  ECLIPA    C63           -16.7287128107      -25.1369231673        8.6803029234  LPSA12    1               0.0000000000
     12362       397  ECLIPA    H63R          -16.0603662405      -24.3575820853        8.2798705976  LPSA12    1               0.0000000000
     12363       397  ECLIPA    H63S          -17.5521496736      -24.5984548205        9.3252199642  LPSA12    1               0.0000000000
     12364       397  ECLIPA    C64           -17.4295994576      -25.7452832981        7.5279067597  LPSA12    1               0.0000000000
     12365       397  ECLIPA    H64R          -18.1078514425      -25.0117316416        6.9620099216  LPSA12    1               0.0000000000
     12366       397  ECLIPA    H64S          -18.0549608618      -26.6071754763        7.9657393466  LPSA12    1               0.0000000000
     12367       397  ECLIPA    C65           -16.3845020069      -26.3752327784        6.5414948800  LPSA12    1               0.0000000000
     12368       397  ECLIPA    H65R          -15.9036048346      -27.1035874350        7.2423230371  LPSA12    1               0.0000000000
     12369       397  ECLIPA    H65S          -15.6904065061      -25.5835224952        6.1828980290  LPSA12    1               0.0000000000
     12370       397  ECLIPA    C66           -16.9471976134      -27.0760802143        5.2222643966  LPSA12    1               0.0000000000
     12371       397  ECLIPA    H66R          -17.5958528358      -27.8897911932        5.5395647249  LPSA12    1               0.0000000000
     12372       397  ECLIPA    H66S          -15.9749220405      -27.4800927437        4.8113963288  LPSA12    1               0.0000000000
     12373       397  ECLIPA    C67           -17.6074664423      -26.2219856604        4.1696839457  LPSA12    1               0.0000000000
     12374       397  ECLIPA    H67R          -18.3837733397      -25.5717746111        4.5058181646  LPSA12    1               0.0000000000
     12375       397  ECLIPA    H67S          -18.0173560777      -26.8755132422        3.3478820057  LPSA12    1               0.0000000000
     12376       397  ECLIPA    C68           -16.6837262832      -25.2333297003        3.5077075145  LPSA12    1               0.0000000000
     12377       397  ECLIPA    H68R          -15.7588362218      -25.6125734193        3.0112508411  LPSA12    1               0.0000000000
     12378       397  ECLIPA    H68S          -16.4841525730      -24.5444854102        4.3087918325  LPSA12    1               0.0000000000
     12379       397  ECLIPA    C69           -17.3761507606      -24.6107409614        2.2963532923  LPSA12    1               0.0000000000
     12380       397  ECLIPA    H69R          -18.4825951975      -24.5788302626        2.3203210098  LPSA12    1               0.0000000000
     12381       397  ECLIPA    H69S          -17.2050685659      -25.2969506137        1.4693744207  LPSA12    1               0.0000000000
     12382       397  ECLIPA    C610          -16.8730111995      -23.2597582606        1.9396251084  LPSA12    1               0.0000000000
     12383       397  ECLIPA    H610R         -15.7553464412      -23.2194579755        2.0603347121  LPSA12    1               0.0000000000
     12384       397  ECLIPA    H610S         -17.2563132350      -22.4968584100        2.6933643884  LPSA12    1               0.0000000000
     12385       397  ECLIPA    C611          -17.3562869042      -22.7647809553        0.5312153135  LPSA12    1               0.0000000000
     12386       397  ECLIPA    H611R         -18.4629662315      -22.7669101468        0.5735373188  LPSA12    1               0.0000000000
     12387       397  ECLIPA    H611S         -17.2051136670      -21.7093834683        0.3609598123  LPSA12    1               0.0000000000
     12388       397  ECLIPA    C612          -16.7206653953      -23.5848039916       -0.5788949292  LPSA12    1               0.0000000000
     12389       397  ECLIPA    H612R         -15.6198177836      -23.3484604728       -0.6060949542  LPSA12    1               0.0000000000
     12390       397  ECLIPA    H612S         -16.7675460314      -24.6481650866       -0.3132441764  LPSA12    1               0.0000000000
     12391       397  ECLIPA    H612T         -17.1555061642      -23.3624260349       -1.5574606966  LPSA12    1               0.0000000000
     12392       397  ECLIPA    C54           -11.5262481070      -25.6403950767       11.1776054589  LPSA12    1               0.0000000000
     12393       397  ECLIPA    H54R          -11.4147569259      -26.7274299907       10.8869876633  LPSA12    1               0.0000000000
     12394       397  ECLIPA    H54S          -10.7652006760      -25.4759071529       11.9574517429  LPSA12    1               0.0000000000
     12395       397  ECLIPA    C55           -11.0806018733      -24.7934235288        9.9916770240  LPSA12    1               0.0000000000
     12396       397  ECLIPA    H55R           -9.9864636119      -24.8148719129        9.7856946516  LPSA12    1               0.0000000000
     12397       397  ECLIPA    H55S          -11.3423711536      -23.7044931325       10.2436295858  LPSA12    1               0.0000000000
     12398       397  ECLIPA    C56           -11.7036320232      -25.3769518605        8.7515486822  LPSA12    1               0.0000000000
     12399       397  ECLIPA    H56R          -12.8330450678      -25.3539189766        8.8382497819  LPSA12    1               0.0000000000
     12400       397  ECLIPA    H56S          -11.4320946457      -26.3506059285        8.4741334449  LPSA12    1               0.0000000000
     12401       397  ECLIPA    C57           -11.6009055365      -24.5109025208        7.4395707935  LPSA12    1               0.0000000000
     12402       397  ECLIPA    H57R          -10.5732971555      -24.2475578863        7.1827428724  LPSA12    1               0.0000000000
     12403       397  ECLIPA    H57S          -12.1174847728      -23.5309905196        7.5196553379  LPSA12    1               0.0000000000
     12404       397  ECLIPA    C58           -12.3259121524      -25.2387310077        6.2350750625  LPSA12    1               0.0000000000
     12405       397  ECLIPA    H58R          -12.0686168000      -26.3337993333        6.2095761879  LPSA12    1               0.0000000000
     12406       397  ECLIPA    H58S          -13.4108171125      -25.3089457196        6.5224540661  LPSA12    1               0.0000000000
     12407       397  ECLIPA    C59           -11.9576166091      -24.5997483081        4.8667186835  LPSA12    1               0.0000000000
     12408       397  ECLIPA    H59R          -10.8727044738      -24.6189567569        4.6589989540  LPSA12    1               0.0000000000
     12409       397  ECLIPA    H59S          -12.3227514749      -23.5763842248        5.0825555512  LPSA12    1               0.0000000000
     12410       397  ECLIPA    C510          -12.5393912460      -25.3822384510        3.6752379292  LPSA12    1               0.0000000000
     12411       397  ECLIPA    H510R         -13.6300229682      -25.7059709230        3.7937959224  LPSA12    1               0.0000000000
     12412       397  ECLIPA    H510S         -11.9314585855      -26.3728715681        3.4613250382  LPSA12    1               0.0000000000
     12413       397  ECLIPA    C511          -12.4680409540      -24.6846577028        2.3004848829  LPSA12    1               0.0000000000
     12414       397  ECLIPA    H511R         -13.3165264887      -23.9744953316        2.2679211996  LPSA12    1               0.0000000000
     12415       397  ECLIPA    H511S         -11.5438726331      -24.0454671892        2.1940961976  LPSA12    1               0.0000000000
     12416       397  ECLIPA    C512          -12.6142060182      -25.5850472799        1.0189424135  LPSA12    1               0.0000000000
     12417       397  ECLIPA    H512R         -12.3224425215      -25.0043898870        0.0815295424  LPSA12    1               0.0000000000
     12418       397  ECLIPA    H512S         -11.9635324807      -26.4632915697        1.1129704346  LPSA12    1               0.0000000000
     12419       397  ECLIPA    C513          -14.1123719033      -25.9894396545        0.6457389972  LPSA12    1               0.0000000000
     12420       397  ECLIPA    H513R         -14.7624299260      -25.0714242518        0.5010832175  LPSA12    1               0.0000000000
     12421       397  ECLIPA    H513S         -14.5435011171      -26.5197728644        1.4088770719  LPSA12    1               0.0000000000
     12422       397  ECLIPA    C514          -14.1516541812      -26.7409094021       -0.6567184026  LPSA12    1               0.0000000000
     12423       397  ECLIPA    H514R         -13.4828558401      -27.6008437254       -0.6273993866  LPSA12    1               0.0000000000
     12424       397  ECLIPA    H514S         -15.1621397612      -27.1530344029       -0.7024724270  LPSA12    1               0.0000000000
     12425       397  ECLIPA    H514T         -13.8801224276      -26.0589030078       -1.5427815912  LPSA12    1               0.0000000000
     12426       397  ECLIPA    C33           -17.6355146037      -26.0243604688       14.4880792826  LPSA12    1               0.0000000000
     12427       397  ECLIPA    H33R          -18.4412760854      -26.7281206413       14.8828993596  LPSA12    1               0.0000000000
     12428       397  ECLIPA    O33           -16.6179815480      -25.9545380424       15.4699768821  LPSA12    1               0.0000000000
     12429       397  ECLIPA    HO33          -17.0202299644      -25.8698981820       16.2926205744  LPSA12    1               0.0000000000
     12430       397  ECLIPA    C34           -17.0351390464      -26.6971807541       13.2255459338  LPSA12    1               0.0000000000
     12431       397  ECLIPA    H34R          -16.2732990617      -26.0526105490       12.8010908313  LPSA12    1               0.0000000000
     12432       397  ECLIPA    H34S          -17.8224894890      -26.7427513985       12.3772221142  LPSA12    1               0.0000000000
     12433       397  ECLIPA    C35           -16.4174479068      -28.0931614370       13.4256256262  LPSA12    1               0.0000000000
     12434       397  ECLIPA    H35R          -17.2172628369      -28.7786670215       13.6963698038  LPSA12    1               0.0000000000
     12435       397  ECLIPA    H35S          -15.7136404360      -28.0491799881       14.2668166019  LPSA12    1               0.0000000000
     12436       397  ECLIPA    C36           -15.7944319595      -28.7680641690       12.1865608177  LPSA12    1               0.0000000000
     12437       397  ECLIPA    H36R          -15.4146032659      -27.8246813993       11.7430812241  LPSA12    1               0.0000000000
     12438       397  ECLIPA    H36S          -16.5239176087      -29.2751212860       11.4785220412  LPSA12    1               0.0000000000
     12439       397  ECLIPA    C37           -14.5575653267      -29.5784325812       12.5255831563  LPSA12    1               0.0000000000
     12440       397  ECLIPA    H37R          -14.9787167766      -30.6726449840       12.6765215637  LPSA12    1               0.0000000000
     12441       397  ECLIPA    H37S          -14.1361698879      -29.3126272772       13.5128993321  LPSA12    1               0.0000000000
     12442       397  ECLIPA    C38           -13.4557618692      -29.6468958185       11.4317274953  LPSA12    1               0.0000000000
     12443       397  ECLIPA    H38R          -12.8092279693      -28.7539674220       11.4067421357  LPSA12    1               0.0000000000
     12444       397  ECLIPA    H38S          -12.7602316497      -30.4546812442       11.7230999881  LPSA12    1               0.0000000000
     12445       397  ECLIPA    C39           -14.0596360154      -29.8032394199       10.0213367345  LPSA12    1               0.0000000000
     12446       397  ECLIPA    H39R          -14.7994188745      -28.9853613707        9.8128797222  LPSA12    1               0.0000000000
     12447       397  ECLIPA    H39S          -14.4783304079      -30.8432488056        9.9697980947  LPSA12    1               0.0000000000
     12448       397  ECLIPA    C310          -13.0662944529      -29.8244275088        8.8401719124  LPSA12    1               0.0000000000
     12449       397  ECLIPA    H310R         -12.4414936486      -30.7679802640        9.0626900142  LPSA12    1               0.0000000000
     12450       397  ECLIPA    H310S         -12.3934202618      -28.9193321758        8.8945759064  LPSA12    1               0.0000000000
     12451       397  ECLIPA    C311          -13.7428033248      -29.5961288585        7.5676235846  LPSA12    1               0.0000000000
     12452       397  ECLIPA    H311R         -14.7314491584      -30.1214737643        7.5507520616  LPSA12    1               0.0000000000
     12453       397  ECLIPA    H311S         -13.9454075752      -28.5170268425        7.2851462164  LPSA12    1               0.0000000000
     12454       397  ECLIPA    C312          -12.9276806417      -30.0262939451        6.3280121142  LPSA12    1               0.0000000000
     12455       397  ECLIPA    H312R         -11.8358616516      -29.8375542249        6.4861373960  LPSA12    1               0.0000000000
     12456       397  ECLIPA    H312S         -13.0905015052      -31.1236588140        6.1820758986  LPSA12    1               0.0000000000
     12457       397  ECLIPA    C313          -13.3581770440      -29.3427938767        4.9895779706  LPSA12    1               0.0000000000
     12458       397  ECLIPA    H313R         -14.2792239621      -29.7935779739        4.7825120466  LPSA12    1               0.0000000000
     12459       397  ECLIPA    H313S         -13.5270080892      -28.2423569501        5.1572698764  LPSA12    1               0.0000000000
     12460       397  ECLIPA    C314          -12.4563448540      -29.5131724016        3.8116661598  LPSA12    1               0.0000000000
     12461       397  ECLIPA    H314R         -12.3208474163      -30.6100025755        3.6067793993  LPSA12    1               0.0000000000
     12462       397  ECLIPA    H314S         -12.7811740406      -29.0329432778        2.8849361441  LPSA12    1               0.0000000000
     12463       397  ECLIPA    H314T         -11.4060349402      -29.1177564624        4.0446347774  LPSA12    1               0.0000000000
     12464       397  ECLIPA    C11           -14.4235982626      -21.1769213370       11.2900808200  LPSA12    1               0.0000000000
     12465       397  ECLIPA    O11           -13.2980910366      -21.6361403605       11.1394597694  LPSA12    1               0.0000000000
     12466       397  ECLIPA    C12           -14.8446395284      -20.0637518107       10.2853014675  LPSA12    1               0.0000000000
     12467       397  ECLIPA    H12R          -14.2954416242      -19.1085002630       10.4852637814  LPSA12    1               0.0000000000
     12468       397  ECLIPA    H12S          -15.9325908124      -19.9233641866       10.5222272274  LPSA12    1               0.0000000000
     12469       397  ECLIPA    C13           -14.6935358812      -20.4142303500        8.8110583416  LPSA12    1               0.0000000000
     12470       397  ECLIPA    H13R          -13.6932390112      -20.9445929761        8.5839874118  LPSA12    1               0.0000000000
     12471       397  ECLIPA    O13           -14.6613120796      -19.1323063778        8.1311342176  LPSA12    1               0.0000000000
     12472       397  ECLIPA    HO13          -14.2196387017      -19.2179699152        7.3064966676  LPSA12    1               0.0000000000
     12473       397  ECLIPA    C14           -15.8331923532      -21.3412647697        8.4581579993  LPSA12    1               0.0000000000
     12474       397  ECLIPA    H14R          -16.8186452618      -21.0402177095        8.9706443184  LPSA12    1               0.0000000000
     12475       397  ECLIPA    H14S          -15.5134881817      -22.3703130784        8.7243868424  LPSA12    1               0.0000000000
     12476       397  ECLIPA    C15           -16.1546515423      -21.3938563777        6.9526486677  LPSA12    1               0.0000000000
     12477       397  ECLIPA    H15R          -16.2895896409      -20.4037977751        6.5500123177  LPSA12    1               0.0000000000
     12478       397  ECLIPA    H15S          -17.0616536492      -21.9959710876        6.8782608049  LPSA12    1               0.0000000000
     12479       397  ECLIPA    C16           -14.9895357782      -22.0404034205        6.1622847334  LPSA12    1               0.0000000000
     12480       397  ECLIPA    H16R          -14.9947657456      -23.1858131422        6.2733383262  LPSA12    1               0.0000000000
     12481       397  ECLIPA    H16S          -14.0595219024      -21.8311386122        6.7182496574  LPSA12    1               0.0000000000
     12482       397  ECLIPA    C17           -14.9908843864      -21.6730108608        4.6801229578  LPSA12    1               0.0000000000
     12483       397  ECLIPA    H17R          -16.0880519756      -21.7937875202        4.4246758429  LPSA12    1               0.0000000000
     12484       397  ECLIPA    H17S          -14.4431504570      -22.3383675454        4.0046542873  LPSA12    1               0.0000000000
     12485       397  ECLIPA    C18           -14.5182877361      -20.2633486079        4.4504458171  LPSA12    1               0.0000000000
     12486       397  ECLIPA    H18R          -15.1574446737      -19.7110959246        5.0865821920  LPSA12    1               0.0000000000
     12487       397  ECLIPA    H18S          -13.4401277478      -20.2033441170        4.7749867078  LPSA12    1               0.0000000000
     12488       397  ECLIPA    C19           -14.6507853004      -19.8367936426        3.0097966450  LPSA12    1               0.0000000000
     12489       397  ECLIPA    H19R          -14.4174604995      -18.7848160836        2.9245509529  LPSA12    1               0.0000000000
     12490       397  ECLIPA    H19S          -15.7050375998      -20.0337387813        2.6238151240  LPSA12    1               0.0000000000
     12491       397  ECLIPA    C110          -13.6266714732      -20.5643556524        2.1045801788  LPSA12    1               0.0000000000
     12492       397  ECLIPA    H110R         -12.5893673433      -20.5299551193        2.4416701971  LPSA12    1               0.0000000000
     12493       397  ECLIPA    H110S         -14.0329567462      -21.5983497167        2.1583327743  LPSA12    1               0.0000000000
     12494       397  ECLIPA    C111          -13.7566594053      -20.0424052533        0.7563571155  LPSA12    1               0.0000000000
     12495       397  ECLIPA    H111R         -14.8138341073      -19.8912574431        0.3999767799  LPSA12    1               0.0000000000
     12496       397  ECLIPA    H111S         -13.3620269463      -19.0605518724        0.7977177860  LPSA12    1               0.0000000000
     12497       397  ECLIPA    C112          -12.9496695883      -20.8218598650       -0.2937360943  LPSA12    1               0.0000000000
     12498       397  ECLIPA    H112R         -11.9430911344      -20.7655665026        0.1973446929  LPSA12    1               0.0000000000
     12499       397  ECLIPA    H112S         -13.1365207578      -21.8960034465       -0.2177998937  LPSA12    1               0.0000000000
     12500       397  ECLIPA    C113          -13.2459060023      -20.4166904043       -1.7468031795  LPSA12    1               0.0000000000
     12501       397  ECLIPA    H113R         -14.2950204629      -20.7117553993       -1.9802017524  LPSA12    1               0.0000000000
     12502       397  ECLIPA    H113S         -13.2564001261      -19.3272673721       -1.8531093719  LPSA12    1               0.0000000000
     12503       397  ECLIPA    C114          -12.2901834910      -20.8376193077       -2.8344928043  LPSA12    1               0.0000000000
     12504       397  ECLIPA    H114R         -11.2203577156      -20.6547307217       -2.7829422503  LPSA12    1               0.0000000000
     12505       397  ECLIPA    H114S         -12.3731691883      -21.9489166544       -2.9951089580  LPSA12    1               0.0000000000
     12506       397  ECLIPA    H114T         -12.4840609359      -20.2300905758       -3.7399523103  LPSA12    1               0.0000000000
     12507       398  AKDO      C1            -12.3211254149      -26.9021572149       22.4410509549  LPSA12    2               0.0000000000
     12508       398  AKDO      O11           -11.3832431295      -27.7699781893       22.4913720772  LPSA12    2               0.0000000000
     12509       398  AKDO      O12           -13.5255636831      -27.0223206856       22.0800765534  LPSA12    2               0.0000000000
     12510       398  AKDO      C2            -11.9213370891      -25.4935426669       22.8913181237  LPSA12    2               0.0000000000
     12511       398  AKDO      C6            -10.1105773805      -24.2723233106       23.8039205188  LPSA12    2               0.0000000000
     12512       398  AKDO      H6            -10.0837743971      -23.6489843562       22.9487387861  LPSA12    2               0.0000000000
     12513       398  AKDO      O6            -10.6462841541      -25.6040808182       23.4267274814  LPSA12    2               0.0000000000
     12514       398  AKDO      C3            -12.7906596873      -24.9528237659       23.9587385105  LPSA12    2               0.0000000000
     12515       398  AKDO      H31           -12.9216045989      -25.5824576549       24.7868435866  LPSA12    2               0.0000000000
     12516       398  AKDO      H32           -13.8277647557      -24.7219632402       23.4151264596  LPSA12    2               0.0000000000
     12517       398  AKDO      C4            -12.2941937632      -23.5738182594       24.3842593775  LPSA12    2               0.0000000000
     12518       398  AKDO      H4            -12.1877466560      -22.8947813718       23.5563617270  LPSA12    2               0.0000000000
     12519       398  AKDO      O4            -13.1934889661      -23.0221863817       25.3355834555  LPSA12    2               0.0000000000
     12520       398  AKDO      C5            -10.9375794774      -23.5969247455       24.9292437177  LPSA12    2               0.0000000000
     12521       398  AKDO      H5            -10.5268410733      -22.5560819114       25.0107888161  LPSA12    2               0.0000000000
     12522       398  AKDO      O5            -10.9705467450      -24.3612142994       26.2083878813  LPSA12    2               0.0000000000
     12523       398  AKDO      C7             -8.5635073321      -24.3291071325       24.1981149098  LPSA12    2               0.0000000000
     12524       398  AKDO      H7             -8.4686384567      -24.9395510513       25.0939202098  LPSA12    2               0.0000000000
     12525       398  AKDO      O7             -7.9956432874      -23.0011712003       24.3482682347  LPSA12    2               0.0000000000
     12526       398  AKDO      HO7            -7.8711203614      -22.6850207581       23.4945166536  LPSA12    2               0.0000000000
     12527       398  AKDO      C8             -7.8384761391      -25.0084291233       22.9864433882  LPSA12    2               0.0000000000
     12528       398  AKDO      H81            -8.3103821671      -26.0176202021       22.9153150275  LPSA12    2               0.0000000000
     12529       398  AKDO      H82            -8.0189470489      -24.3271135469       22.0745354517  LPSA12    2               0.0000000000
     12530       398  AKDO      O8             -6.4037458680      -25.1593660123       23.3537996748  LPSA12    2               0.0000000000
     12531       398  AKDO      HO8            -6.0634278176      -25.9833853590       22.9179804014  LPSA12    2               0.0000000000
     12532       399  AKDO      C1            -14.0867766959      -21.4488591944       23.8027969005  LPSA12    3               1.0000000000
     12533       399  AKDO      O11           -14.4291747687      -21.8423208875       22.6471489042  LPSA12    3               1.0000000000
     12534       399  AKDO      O12           -13.5287376451      -20.3569669947       24.0656860145  LPSA12    3               1.0000000000
     12535       399  AKDO      C2            -14.3768921871      -22.3201827537       25.0166033796  LPSA12    3               1.0000000000
     12536       399  AKDO      C6            -15.6777786720      -24.1966732805       25.7688829792  LPSA12    3               1.0000000000
     12537       399  AKDO      H6            -14.7392127432      -24.8051588262       25.9810553331  LPSA12    3               1.0000000000
     12538       399  AKDO      O6            -15.4349150531      -23.2934552927       24.7076657818  LPSA12    3               1.0000000000
     12539       399  AKDO      C3            -14.7627703159      -21.5688068492       26.3187707743  LPSA12    3               1.0000000000
     12540       399  AKDO      H31           -15.7501792835      -20.9698943973       26.1504935106  LPSA12    3               1.0000000000
     12541       399  AKDO      H32           -13.9905102972      -20.8368874248       26.5929217108  LPSA12    3               1.0000000000
     12542       399  AKDO      C4            -14.9802781694      -22.5925088531       27.4036122013  LPSA12    3               1.0000000000
     12543       399  AKDO      H4            -14.1065558026      -23.2513919393       27.4051754129  LPSA12    3               1.0000000000
     12544       399  AKDO      O4            -15.1408390138      -22.0913482070       28.7388570077  LPSA12    3               1.0000000000
     12545       399  AKDO      HO4           -14.5137763178      -22.4194291709       29.3717785514  LPSA12    3               1.0000000000
     12546       399  AKDO      C5            -16.0321924292      -23.4634078805       27.0369167275  LPSA12    3               1.0000000000
     12547       399  AKDO      H5            -16.2439940155      -24.1721925933       27.9236884022  LPSA12    3               1.0000000000
     12548       399  AKDO      O5            -17.2569791442      -22.7296489770       26.8495261943  LPSA12    3               1.0000000000
     12549       399  AKDO      HO5           -17.1405903867      -22.0787476715       26.1887877298  LPSA12    3               1.0000000000
     12550       399  AKDO      C7            -16.7808361301      -25.1248631634       25.3258859863  LPSA12    3               1.0000000000
     12551       399  AKDO      H7            -17.7410551182      -24.5632026011       25.1324849511  LPSA12    3               1.0000000000
     12552       399  AKDO      O7            -16.9902578239      -26.1191110532       26.3661029982  LPSA12    3               1.0000000000
     12553       399  AKDO      HO7           -17.8120471057      -26.6147086022       26.1647669547  LPSA12    3               1.0000000000
     12554       399  AKDO      C8            -16.2837385755      -25.8638952634       24.1539635864  LPSA12    3               1.0000000000
     12555       399  AKDO      H81           -16.0312901144      -25.1693462902       23.3419478721  LPSA12    3               1.0000000000
     12556       399  AKDO      H82           -15.4050059734      -26.5131238599       24.2853144505  LPSA12    3               1.0000000000
     12557       399  AKDO      O8            -17.2973825169      -26.7068215654       23.6541307456  LPSA12    3               1.0000000000
     12558       399  AKDO      HO8           -17.8291498945      -25.9971766156       23.2473452835  LPSA12    3               1.0000000000
     12559       400  AHEP      C1            -10.1320845081      -23.9589976145       27.2793229502  LPSA12    4               2.0000000000
     12560       400  AHEP      H1             -9.2074713461      -24.4683626676       26.8517192453  LPSA12    4               2.0000000000
     12561       400  AHEP      C5            -10.8221612072      -21.7568228502       28.0185271385  LPSA12    4               2.0000000000
     12562       400  AHEP      H5            -11.8341097729      -22.0886314723       27.5619054335  LPSA12    4               2.0000000000
     12563       400  AHEP      O5             -9.8295303455      -22.5665121852       27.3942805697  LPSA12    4               2.0000000000
     12564       400  AHEP      C2            -10.2686028013      -24.4919614577       28.6827861277  LPSA12    4               2.0000000000
     12565       400  AHEP      H2            -10.5474550382      -25.5497215599       28.7442425996  LPSA12    4               2.0000000000
     12566       400  AHEP      O2             -9.0593974930      -24.3723893552       29.3407203943  LPSA12    4               2.0000000000
     12567       400  AHEP      HO2            -8.9033628868      -25.1445840397       29.8507927467  LPSA12    4               2.0000000000
     12568       400  AHEP      C3            -11.3197857873      -23.6993792935       29.4857672188  LPSA12    4               2.0000000000
     12569       400  AHEP      H3            -12.3701029635      -23.8916471753       29.2269906369  LPSA12    4               2.0000000000
     12570       400  AHEP      O3            -11.2907185780      -24.0822007994       30.7882097304  LPSA12    4               2.0000000000
     12571       400  AHEP      C4            -10.9674492795      -22.2343199541       29.4546205599  LPSA12    4               2.0000000000
     12572       400  AHEP      H4            -10.0202653159      -21.9522264844       29.9788637739  LPSA12    4               2.0000000000
     12573       400  AHEP      O4            -12.0178618913      -21.5027354074       30.0145912217  LPSA12    4               2.0000000000
     12574       400  AHEP      P4            -11.9037513088      -20.7617727414       31.4978499249  LPSA12    4               2.0000000000
     12575       400  AHEP      OP42          -13.2260185482      -20.7981331042       32.1560374192  LPSA12    4               2.0000000000
     12576       400  AHEP      OP43          -11.5172770696      -19.3862769724       31.0397938518  LPSA12    4               2.0000000000
     12577       400  AHEP      OP44          -10.7320019256      -21.3970679200       32.3098937101  LPSA12    4               2.0000000000
     12578       400  AHEP      C6            -10.5458154578      -20.2260349141       27.7982482844  LPSA12    4               2.0000000000
     12579       400  AHEP      H6            -11.5070535379      -19.6996496949       28.0833143566  LPSA12    4               2.0000000000
     12580       400  AHEP      O6             -9.5130090008      -19.8435321202       28.7103505027  LPSA12    4               2.0000000000
     12581       400  AHEP      HO6            -9.7514667789      -19.0236716946       29.2203787365  LPSA12    4               2.0000000000
     12582       400  AHEP      C7            -10.2077739625      -19.8493588440       26.3054198206  LPSA12    4               2.0000000000
     12583       400  AHEP      H71           -10.1814210580      -18.7186653712       26.1576126064  LPSA12    4               2.0000000000
     12584       400  AHEP      H72           -10.8986287497      -20.3956261288       25.6323487339  LPSA12    4               2.0000000000
     12585       400  AHEP      O7             -8.8885877764      -20.2740969916       25.9755159574  LPSA12    4               2.0000000000
     12586       400  AHEP      HO7            -8.2709847187      -19.6125790172       26.3256794122  LPSA12    4               2.0000000000
     12587       401  AHEP      C1            -12.4536644534      -24.6483021162       31.4342177374  LPSA12    5               3.0000000000
     12588       401  AHEP      H1            -13.4030850737      -24.2613103021       30.9794447437  LPSA12    5               3.0000000000
     12589       401  AHEP      C5            -11.3559866299      -26.7071019381       31.9165413065  LPSA12    5               3.0000000000
     12590       401  AHEP      H5            -10.4085710832      -26.1504151209       31.6031509785  LPSA12    5               3.0000000000
     12591       401  AHEP      O5            -12.4713182164      -26.0814424124       31.3013865768  LPSA12    5               3.0000000000
     12592       401  AHEP      C2            -12.5374733400      -24.3652795528       32.9718957084  LPSA12    5               3.0000000000
     12593       401  AHEP      H2            -12.4552679127      -23.2371782330       33.0921707216  LPSA12    5               3.0000000000
     12594       401  AHEP      O2            -13.7944800791      -24.7847111412       33.4691025827  LPSA12    5               3.0000000000
     12595       401  AHEP      HO2           -14.3484012378      -24.0296946329       33.6403503244  LPSA12    5               3.0000000000
     12596       401  AHEP      C3            -11.3302726285      -24.9913826151       33.7004304811  LPSA12    5               3.0000000000
     12597       401  AHEP      H3            -10.3914084499      -24.5587165894       33.3375632548  LPSA12    5               3.0000000000
     12598       401  AHEP      O3            -11.2984652640      -24.8255653520       35.1462238331  LPSA12    5               3.0000000000
     12599       401  AHEP      C4            -11.3951496943      -26.4592762129       33.4524658705  LPSA12    5               3.0000000000
     12600       401  AHEP      H4            -12.3495505758      -26.9100566470       33.8188816395  LPSA12    5               3.0000000000
     12601       401  AHEP      O4            -10.2319900994      -27.0764007717       34.0881196202  LPSA12    5               3.0000000000
     12602       401  AHEP      P4            -10.4148080083      -28.1183503869       35.2810123301  LPSA12    5               3.0000000000
     12603       401  AHEP      OP42           -9.0265953307      -28.3706027747       35.8202965042  LPSA12    5               3.0000000000
     12604       401  AHEP      OP43          -11.0169271040      -29.3815749855       34.6107506294  LPSA12    5               3.0000000000
     12605       401  AHEP      OP44          -11.4019342636      -27.5099729634       36.2417033353  LPSA12    5               3.0000000000
     12606       401  AHEP      C6            -11.2095186145      -28.1918290962       31.5493607386  LPSA12    5               3.0000000000
     12607       401  AHEP      H6            -10.2791091618      -28.6247330073       31.9533288164  LPSA12    5               3.0000000000
     12608       401  AHEP      O6            -12.3209578122      -28.9318719317       32.0428602265  LPSA12    5               3.0000000000
     12609       401  AHEP      HO6           -13.1710703785      -28.8376756830       31.5367188277  LPSA12    5               3.0000000000
     12610       401  AHEP      C7            -10.9797039686      -28.3316405061       30.0822725317  LPSA12    5               3.0000000000
     12611       401  AHEP      H71           -10.3176861056      -29.2098051263       29.9169108581  LPSA12    5               3.0000000000
     12612       401  AHEP      H72           -10.4809347802      -27.4602596151       29.6179339851  LPSA12    5               3.0000000000
     12613       401  AHEP      O7            -12.2511849313      -28.6813958480       29.4957736452  LPSA12    5               3.0000000000
     12614       402  AHEP      C1            -12.8569841329      -27.6387436697       28.7926622005  LPSA12    6               4.0000000000
     12615       402  AHEP      H1            -12.3499282924      -26.6428424942       29.0422981953  LPSA12    6               4.0000000000
     12616       402  AHEP      C5            -13.3725196851      -29.0310188424       26.9237617191  LPSA12    6               4.0000000000
     12617       402  AHEP      H5            -12.9400329748      -29.8730731281       27.4818042043  LPSA12    6               4.0000000000
     12618       402  AHEP      O5            -12.7696789234      -27.8006312202       27.3547530115  LPSA12    6               4.0000000000
     12619       402  AHEP      C2            -14.2876788028      -27.5206774392       29.2397872647  LPSA12    6               4.0000000000
     12620       402  AHEP      H2            -14.2702463599      -27.3119791900       30.3523091474  LPSA12    6               4.0000000000
     12621       402  AHEP      O2            -14.9197364978      -26.3764255977       28.7267108980  LPSA12    6               4.0000000000
     12622       402  AHEP      HO2           -15.0061195091      -25.8080933478       29.4669064354  LPSA12    6               4.0000000000
     12623       402  AHEP      C3            -15.0165289104      -28.8301686526       28.8468391403  LPSA12    6               4.0000000000
     12624       402  AHEP      H3            -14.5563118077      -29.6366080243       29.4311808254  LPSA12    6               4.0000000000
     12625       402  AHEP      O3            -16.4794429625      -28.8437191740       29.2225362108  LPSA12    6               4.0000000000
     12626       402  AHEP      HO3           -16.7109967086      -29.2986176513       29.9865592523  LPSA12    6               4.0000000000
     12627       402  AHEP      C4            -14.8606658995      -28.9788770659       27.2761740859  LPSA12    6               4.0000000000
     12628       402  AHEP      H4            -15.4556940372      -28.2158096825       26.7944950683  LPSA12    6               4.0000000000
     12629       402  AHEP      O4            -15.4772026181      -30.1822844059       26.7938835778  LPSA12    6               4.0000000000
     12630       402  AHEP      HO4           -14.8421844064      -30.9109836240       27.1589530594  LPSA12    6               4.0000000000
     12631       402  AHEP      C6            -13.0821390785      -29.3640612848       25.4906533340  LPSA12    6               4.0000000000
     12632       402  AHEP      H6            -13.5053086950      -30.3517928102       25.3442628137  LPSA12    6               4.0000000000
     12633       402  AHEP      O6            -13.8605628740      -28.5225652210       24.6375675438  LPSA12    6               4.0000000000
     12634       402  AHEP      HO6           -13.3056227439      -28.0670374483       23.9977784313  LPSA12    6               4.0000000000
     12635       402  AHEP      C7            -11.6170712652      -29.4632615858       25.1799756221  LPSA12    6               4.0000000000
     12636       402  AHEP      H71           -11.5233407834      -29.8801905237       24.1408078076  LPSA12    6               4.0000000000
     12637       402  AHEP      H72           -11.1959942928      -30.1614947530       25.9252229174  LPSA12    6               4.0000000000
     12638       402  AHEP      O7            -10.9345419011      -28.2464398740       25.2517430265  LPSA12    6               4.0000000000
     12639       402  AHEP      HO7           -10.7153641827      -28.1506937877       26.2011285002  LPSA12    6               4.0000000000
     12640       403  AGLC      C1            -10.6852553447      -23.6486093091       35.6520976122  LPSA12    7               4.0000000000
     12641       403  AGLC      H1             -9.6360731378      -23.5566124526       35.2047739589  LPSA12    7               4.0000000000
     12642       403  AGLC      C5            -12.6641613641      -22.4450000510       36.0987679218  LPSA12    7               4.0000000000
     12643       403  AGLC      H5            -13.2878721945      -23.3105136602       35.8327124756  LPSA12    7               4.0000000000
     12644       403  AGLC      O5            -11.4440237143      -22.4938265135       35.4366254460  LPSA12    7               4.0000000000
     12645       403  AGLC      C2            -10.4871165575      -23.7288736782       37.1582745954  LPSA12    7               4.0000000000
     12646       403  AGLC      H2            -10.0556462108      -22.7165880800       37.4887389927  LPSA12    7               4.0000000000
     12647       403  AGLC      O2             -9.4151617744      -24.6280599231       37.5024056006  LPSA12    7               4.0000000000
     12648       403  AGLC      HO2            -9.8336775106      -25.4743514548       37.6430208865  LPSA12    7               4.0000000000
     12649       403  AGLC      C3            -11.6736673780      -23.7318021233       37.9903802326  LPSA12    7               4.0000000000
     12650       403  AGLC      H3            -12.2145015475      -24.6241598927       37.6727250444  LPSA12    7               4.0000000000
     12651       403  AGLC      O3            -11.4886542537      -23.9386127650       39.4204481292  LPSA12    7               4.0000000000
     12652       403  AGLC      C4            -12.3839908056      -22.4708136430       37.5928595998  LPSA12    7               4.0000000000
     12653       403  AGLC      H4            -11.7957763451      -21.5495430919       37.9560286200  LPSA12    7               4.0000000000
     12654       403  AGLC      O4            -13.6794242126      -22.5596610095       38.2243117391  LPSA12    7               4.0000000000
     12655       403  AGLC      HO4           -13.9643623661      -21.7606672197       38.6132003238  LPSA12    7               4.0000000000
     12656       403  AGLC      C6            -13.5265093996      -21.2931200400       35.5245160098  LPSA12    7               4.0000000000
     12657       403  AGLC      H61           -13.5419416587      -21.4335557579       34.4135318240  LPSA12    7               4.0000000000
     12658       403  AGLC      H62           -14.5781098333      -21.2061059716       35.8722646349  LPSA12    7               4.0000000000
     12659       403  AGLC      O6            -12.7726245902      -20.0536199958       35.6892983147  LPSA12    7               4.0000000000
     12660       403  AGLC      HO6           -13.1931233138      -19.7258392273       36.4386090630  LPSA12    7               4.0000000000
     12661       404  AGLC      C1            -11.9973630687      -25.1186839250       39.9328324507  LPSA12    8               5.0000000000
     12662       404  AGLC      H1            -13.0362019410      -25.2636294223       39.5884769495  LPSA12    8               5.0000000000
     12663       404  AGLC      C5             -9.8813550422      -26.3862326269       40.2153373402  LPSA12    8               5.0000000000
     12664       404  AGLC      H5             -9.3382474300      -25.5104382088       39.8400606936  LPSA12    8               5.0000000000
     12665       404  AGLC      O5            -11.2057010749      -26.3153347285       39.6195505863  LPSA12    8               5.0000000000
     12666       404  AGLC      C2            -12.0865386920      -25.0586042730       41.4170311384  LPSA12    8               5.0000000000
     12667       404  AGLC      H2            -12.6620980931      -25.9821202673       41.6529594578  LPSA12    8               5.0000000000
     12668       404  AGLC      O2            -12.9436731138      -24.0522872220       41.9438754185  LPSA12    8               5.0000000000
     12669       404  AGLC      C3            -10.7825868653      -25.0732375094       42.1297388169  LPSA12    8               5.0000000000
     12670       404  AGLC      H3            -10.3234164446      -24.1515947890       41.6567950186  LPSA12    8               5.0000000000
     12671       404  AGLC      O3            -10.9859625886      -24.8994590881       43.5370978028  LPSA12    8               5.0000000000
     12672       404  AGLC      C4            -10.1001334723      -26.3052566684       41.7603093222  LPSA12    8               5.0000000000
     12673       404  AGLC      H4            -10.6821052426      -27.1638006212       42.0401368658  LPSA12    8               5.0000000000
     12674       404  AGLC      O4             -8.8445279277      -26.3953500370       42.3914819843  LPSA12    8               5.0000000000
     12675       404  AGLC      HO4            -8.4546268046      -25.5556852469       42.3800652601  LPSA12    8               5.0000000000
     12676       404  AGLC      C6             -8.9750959512      -27.5445819018       39.7357334439  LPSA12    8               5.0000000000
     12677       404  AGLC      H61            -8.9806654540      -27.6980583845       38.6468043611  LPSA12    8               5.0000000000
     12678       404  AGLC      H62            -7.9446122004      -27.4633286111       40.0276014644  LPSA12    8               5.0000000000
     12679       404  AGLC      O6             -9.2840622604      -28.7830178501       40.3040784562  LPSA12    8               5.0000000000
     12680       404  AGLC      HO6            -8.9343908115      -28.8742690383       41.2121845210  LPSA12    8               5.0000000000
     12681       405  AGAL      C1            -14.2463889445      -23.9342905753       41.4573847493  LPSA12    9               6.0000000000
     12682       405  AGAL      H1            -14.2464154715      -23.9823712285       40.3420235153  LPSA12    9               6.0000000000
     12683       405  AGAL      C5            -15.4463633487      -24.8915956265       43.2125447641  LPSA12    9               6.0000000000
     12684       405  AGAL      H5            -14.4173821804      -24.8192398408       43.7424973645  LPSA12    9               6.0000000000
     12685       405  AGAL      O5            -15.2207112580      -24.9516918466       41.8451689838  LPSA12    9               6.0000000000
     12686       405  AGAL      C2            -14.7688414755      -22.5747494896       41.8393925249  LPSA12    9               6.0000000000
     12687       405  AGAL      H2            -15.7520015612      -22.4403147782       41.4115621152  LPSA12    9               6.0000000000
     12688       405  AGAL      O2            -14.0677481456      -21.5156295168       41.1608705954  LPSA12    9               6.0000000000
     12689       405  AGAL      C3            -15.0282530683      -22.4698370251       43.3264191845  LPSA12    9               6.0000000000
     12690       405  AGAL      H3            -14.0307334302      -22.5531906025       43.9424563891  LPSA12    9               6.0000000000
     12691       405  AGAL      O3            -15.4224898266      -21.1992759370       43.7491515633  LPSA12    9               6.0000000000
     12692       405  AGAL      HO3           -14.9762495246      -20.5747542560       43.1585960960  LPSA12    9               6.0000000000
     12693       405  AGAL      C4            -16.0037734537      -23.5290509157       43.6505755014  LPSA12    9               6.0000000000
     12694       405  AGAL      H4            -16.2003394060      -23.6227030833       44.7734818408  LPSA12    9               6.0000000000
     12695       405  AGAL      O4            -17.2537872083      -23.3856161167       43.0499075873  LPSA12    9               6.0000000000
     12696       405  AGAL      HO4           -17.8979323676      -23.7736445588       43.6622427513  LPSA12    9               6.0000000000
     12697       405  AGAL      C6            -16.0411816451      -26.1556343521       43.8349081587  LPSA12    9               6.0000000000
     12698       405  AGAL      H61           -15.4350522437      -27.0780356630       43.6417203355  LPSA12    9               6.0000000000
     12699       405  AGAL      H62           -16.1149959525      -26.1373951815       44.9292747136  LPSA12    9               6.0000000000
     12700       405  AGAL      O6            -17.3525246530      -26.3672027811       43.4062227539  LPSA12    9               6.0000000000
     12701       405  AGAL      HO6           -17.3133073222      -27.0301238293       42.6923548993  LPSA12    9               6.0000000000
     12702       406  AGAL      C1            -13.5058404211      -20.3202768164       41.7517281777  LPSA12    10              7.0000000000
     12703       406  AGAL      H1            -14.3762478605      -19.6566601844       41.8429972083  LPSA12    10              7.0000000000
     12704       406  AGAL      C5            -11.6514131739      -21.1180390543       43.0613392294  LPSA12    10              7.0000000000
     12705       406  AGAL      H5            -11.9309484157      -22.1757184473       42.6233508762  LPSA12    10              7.0000000000
     12706       406  AGAL      O5            -12.8445685416      -20.3110895787       43.0470213554  LPSA12    10              7.0000000000
     12707       406  AGAL      C2            -12.5061645872      -19.7610921298       40.7227968417  LPSA12    10              7.0000000000
     12708       406  AGAL      H2            -12.3321148660      -18.6616271470       41.0433947026  LPSA12    10              7.0000000000
     12709       406  AGAL      O2            -13.0909648982      -19.3829910883       39.5532095562  LPSA12    10              7.0000000000
     12710       406  AGAL      HO2           -12.8776748289      -18.4831856931       39.3379401176  LPSA12    10              7.0000000000
     12711       406  AGAL      C3            -11.2411626720      -20.5420454745       40.6928251787  LPSA12    10              7.0000000000
     12712       406  AGAL      H3            -11.5769555700      -21.5522976663       40.4679648945  LPSA12    10              7.0000000000
     12713       406  AGAL      O3            -10.2876573492      -20.1013604268       39.7732034444  LPSA12    10              7.0000000000
     12714       406  AGAL      HO3           -10.2853001799      -20.7365915486       39.0151094934  LPSA12    10              7.0000000000
     12715       406  AGAL      C4            -10.6304450378      -20.5327700809       42.0524071915  LPSA12    10              7.0000000000
     12716       406  AGAL      H4             -9.7415262376      -21.1902338114       42.1099272557  LPSA12    10              7.0000000000
     12717       406  AGAL      O4            -10.2329654199      -19.2682401687       42.4965010455  LPSA12    10              7.0000000000
     12718       406  AGAL      HO4           -11.0402645295      -18.7913252997       42.5675127347  LPSA12    10              7.0000000000
     12719       406  AGAL      C6            -11.0432246523      -21.4087161881       44.3959537205  LPSA12    10              7.0000000000
     12720       406  AGAL      H61           -11.7696754501      -21.7948636425       45.1044438806  LPSA12    10              7.0000000000
     12721       406  AGAL      H62           -10.2754558895      -22.3137105313       44.2564473849  LPSA12    10              7.0000000000
     12722       406  AGAL      O6            -10.3255989428      -20.3808303035       45.1112340130  LPSA12    10              7.0000000000
     12723       406  AGAL      HO6           -10.8244886315      -20.1794802936       45.9237589285  LPSA12    10              7.0000000000
     12724       407  BGLC      C1            -11.0883510291      -25.9311043667       44.5018065681  LPSA12    11              6.0000000000
     12725       407  BGLC      H1            -10.0646907587      -26.2641612435       44.5883763758  LPSA12    11              6.0000000000
     12726       407  BGLC      C5            -12.2234304913      -28.0762777185       45.1248117688  LPSA12    11              6.0000000000
     12727       407  BGLC      H5            -11.2454059429      -28.6129730907       45.3871201921  LPSA12    11              6.0000000000
     12728       407  BGLC      O5            -12.0559492450      -26.9743157991       44.0830650888  LPSA12    11              6.0000000000
     12729       407  BGLC      C2            -11.5883748237      -25.3453475486       45.7977571702  LPSA12    11              6.0000000000
     12730       407  BGLC      H2            -12.5651072028      -24.8031491717       45.7293388291  LPSA12    11              6.0000000000
     12731       407  BGLC      O2            -10.6752006879      -24.2973149964       46.0886391483  LPSA12    11              6.0000000000
     12732       407  BGLC      HO2           -11.1598131160      -23.5172277831       46.2788110113  LPSA12    11              6.0000000000
     12733       407  BGLC      C3            -11.7807940428      -26.3317593955       46.8736276645  LPSA12    11              6.0000000000
     12734       407  BGLC      H3            -10.7297104862      -26.7316113732       47.1984917368  LPSA12    11              6.0000000000
     12735       407  BGLC      O3            -12.2962717703      -25.6406347966       48.0056213318  LPSA12    11              6.0000000000
     12736       407  BGLC      C4            -12.6850365977      -27.3760814478       46.4390836423  LPSA12    11              6.0000000000
     12737       407  BGLC      H4            -13.6728112170      -26.8548816000       46.2001611147  LPSA12    11              6.0000000000
     12738       407  BGLC      O4            -12.9714360503      -28.2992524402       47.4766894645  LPSA12    11              6.0000000000
     12739       407  BGLC      HO4           -13.5319579986      -27.8563502968       48.1247908570  LPSA12    11              6.0000000000
     12740       407  BGLC      C6            -13.0844977633      -29.2034959846       44.5291127165  LPSA12    11              6.0000000000
     12741       407  BGLC      H61           -13.5378543205      -29.8722541394       45.2481190913  LPSA12    11              6.0000000000
     12742       407  BGLC      H62           -13.8610071436      -28.7119574939       43.8913252379  LPSA12    11              6.0000000000
     12743       407  BGLC      O6            -12.3986436524      -30.0465504579       43.5637942269  LPSA12    11              6.0000000000
     12744       407  BGLC      HO6           -12.3446620882      -30.8611020461       44.0054369298  LPSA12    11              6.0000000000
     12745       408  BGLCNA    C1            -11.7120258206      -25.7500279316       49.3238540420  LPSA12    12              7.0000000000
     12746       408  BGLCNA    H1            -10.8762169524      -24.9743934784       49.3874222992  LPSA12    12              7.0000000000
     12747       408  BGLCNA    C5            -10.4946045527      -27.1117354500       50.8763077070  LPSA12    12              7.0000000000
     12748       408  BGLCNA    H5             -9.6297596886      -26.3141441182       50.9814236466  LPSA12    12              7.0000000000
     12749       408  BGLCNA    O5            -11.1585627747      -27.0587451406       49.5875345322  LPSA12    12              7.0000000000
     12750       408  BGLCNA    C2            -12.7839053483      -25.4716285565       50.3245054808  LPSA12    12              7.0000000000
     12751       408  BGLCNA    H2            -13.4770242035      -26.4164730163       50.3375086743  LPSA12    12              7.0000000000
     12752       408  BGLCNA    N             -13.4380200869      -24.1807150541       50.0347611965  LPSA12    12              7.0000000000
     12753       408  BGLCNA    HN            -12.7697518339      -23.5139756239       49.9972643287  LPSA12    12              7.0000000000
     12754       408  BGLCNA    C             -14.7258125219      -24.0998044181       49.8903426450  LPSA12    12              7.0000000000
     12755       408  BGLCNA    O             -15.4238694402      -25.0847774862       50.0855928044  LPSA12    12              7.0000000000
     12756       408  BGLCNA    CT            -15.2868194491      -22.7482893365       49.5677689528  LPSA12    12              7.0000000000
     12757       408  BGLCNA    HT1           -15.9014255345      -22.3433616595       50.3918503408  LPSA12    12              7.0000000000
     12758       408  BGLCNA    HT2           -16.0913279664      -22.8453419227       48.7104760971  LPSA12    12              7.0000000000
     12759       408  BGLCNA    HT3           -14.4264748033      -22.1181732141       49.2316245990  LPSA12    12              7.0000000000
     12760       408  BGLCNA    C3            -12.2333791184      -25.4736234624       51.6995695120  LPSA12    12              7.0000000000
     12761       408  BGLCNA    H3            -11.4626087315      -24.5868616822       51.8605307917  LPSA12    12              7.0000000000
     12762       408  BGLCNA    O3            -13.2127226413      -25.1597756765       52.7272334264  LPSA12    12              7.0000000000
     12763       408  BGLCNA    C4            -11.6014019333      -26.8039566912       51.9591692987  LPSA12    12              7.0000000000
     12764       408  BGLCNA    H4            -12.3307889776      -27.6980541869       51.9037868612  LPSA12    12              7.0000000000
     12765       408  BGLCNA    O4            -11.0447770549      -26.8768445636       53.2294962294  LPSA12    12              7.0000000000
     12766       408  BGLCNA    HO4           -10.1818818774      -26.3710689610       53.2834945119  LPSA12    12              7.0000000000
     12767       408  BGLCNA    C6             -9.7829805251      -28.4777802231       50.9528560558  LPSA12    12              7.0000000000
     12768       408  BGLCNA    H61            -9.3457349459      -28.6171305230       51.9144325068  LPSA12    12              7.0000000000
     12769       408  BGLCNA    H62           -10.5962559683      -29.1842946535       50.8287962869  LPSA12    12              7.0000000000
     12770       408  BGLCNA    O6             -8.9150957001      -28.6416351500       49.8597561973  LPSA12    12              7.0000000000
     12771       408  BGLCNA    HO6            -8.0994201392      -28.2907589039       50.1903398796  LPSA12    12              7.0000000000
     12772       409  AGAL      C1            -12.7553714307      -24.2908450881       53.8132743488  LPSA12    13              8.0000000000
     12773       409  AGAL      H1            -11.7806822364      -24.6675942616       54.1959401301  LPSA12    13              8.0000000000
     12774       409  AGAL      C5            -14.1851010436      -22.4209583793       53.2950732168  LPSA12    13              8.0000000000
     12775       409  AGAL      H5            -14.6205252921      -23.0988292937       52.5641412600  LPSA12    13              8.0000000000
     12776       409  AGAL      O5            -12.8304306177      -22.8561664993       53.4918445955  LPSA12    13              8.0000000000
     12777       409  AGAL      C2            -13.6191922968      -24.3881054479       55.1010141246  LPSA12    13              8.0000000000
     12778       409  AGAL      H2            -13.3099384877      -23.5781262044       55.7917211299  LPSA12    13              8.0000000000
     12779       409  AGAL      O2            -13.4565231701      -25.6211396096       55.7701983428  LPSA12    13              8.0000000000
     12780       409  AGAL      C3            -15.0758750451      -23.9057299330       54.8979691660  LPSA12    13              8.0000000000
     12781       409  AGAL      H3            -15.4940519992      -24.4351376784       54.0477453328  LPSA12    13              8.0000000000
     12782       409  AGAL      O3            -15.9367154763      -24.2661688266       55.9888739531  LPSA12    13              8.0000000000
     12783       409  AGAL      HO3           -16.7956922945      -24.5411146408       55.6848713412  LPSA12    13              8.0000000000
     12784       409  AGAL      C4            -15.0938354040      -22.5284121582       54.5514025965  LPSA12    13              8.0000000000
     12785       409  AGAL      H4            -16.1441101360      -22.2019253513       54.1954731349  LPSA12    13              8.0000000000
     12786       409  AGAL      O4            -14.6296812092      -21.6746294577       55.5743212917  LPSA12    13              8.0000000000
     12787       409  AGAL      HO4           -13.8325656068      -21.9515109522       56.0499681296  LPSA12    13              8.0000000000
     12788       409  AGAL      C6            -14.3482973023      -21.1221455075       52.5301443486  LPSA12    13              8.0000000000
     12789       409  AGAL      H61           -13.7251192702      -21.1469300256       51.6253596531  LPSA12    13              8.0000000000
     12790       409  AGAL      H62           -15.4414616922      -20.9495890320       52.3684678279  LPSA12    13              8.0000000000
     12791       409  AGAL      O6            -13.9165893552      -20.0179994975       53.2985910507  LPSA12    13              8.0000000000
     12792       409  AGAL      HO6           -14.6166183334      -19.7897366860       53.9299633642  LPSA12    13              8.0000000000
     12793       410  ARHM      C1            -12.8123639387      -25.6710301278       57.0117786358  LPSA12    14              9.0000000000
     12794       410  ARHM      H1            -12.1117548195      -24.8104694995       56.9981767125  LPSA12    14              9.0000000000
     12795       410  ARHM      C5            -12.8386062923      -27.9917293095       57.1930138837  LPSA12    14              9.0000000000
     12796       410  ARHM      H5            -13.4222115942      -28.0079328107       56.1976867078  LPSA12    14              9.0000000000
     12797       410  ARHM      O5            -12.0531144811      -26.8588020339       57.1718909996  LPSA12    14              9.0000000000
     12798       410  ARHM      C2            -13.8591847517      -25.5534492310       58.1413490634  LPSA12    14              9.0000000000
     12799       410  ARHM      H2            -14.4187707533      -24.6620313949       57.8875987320  LPSA12    14              9.0000000000
     12800       410  ARHM      O2            -13.3365070732      -25.4847254179       59.4330148990  LPSA12    14              9.0000000000
     12801       410  ARHM      C3            -14.7502357235      -26.7613578147       58.1095432995  LPSA12    14              9.0000000000
     12802       410  ARHM      H3            -15.0978415727      -26.9041179939       57.0440121713  LPSA12    14              9.0000000000
     12803       410  ARHM      O3            -15.9219510087      -26.6468651959       58.8567888868  LPSA12    14              9.0000000000
     12804       410  ARHM      HO3           -15.6290189960      -26.7299623466       59.8104957846  LPSA12    14              9.0000000000
     12805       410  ARHM      C4            -13.8805874045      -27.9419441706       58.3490442956  LPSA12    14              9.0000000000
     12806       410  ARHM      H4            -13.2822667672      -27.9397211411       59.2902338481  LPSA12    14              9.0000000000
     12807       410  ARHM      O4            -14.7111502873      -29.1317980603       58.4446785014  LPSA12    14              9.0000000000
     12808       410  ARHM      HO4           -14.7486382229      -29.5627305923       59.2969967688  LPSA12    14              9.0000000000
     12809       410  ARHM      C6            -11.9479505116      -29.2444180057       57.2492155848  LPSA12    14              9.0000000000
     12810       410  ARHM      H61           -11.0500061087      -29.2257596315       56.5358243550  LPSA12    14              9.0000000000
     12811       410  ARHM      H62           -11.6738347521      -29.3648100016       58.3170764683  LPSA12    14              9.0000000000
     12812       410  ARHM      H63           -12.3553604793      -30.2106066272       56.9421594120  LPSA12    14              9.0000000000
     12813       411  ARHM      C1            -12.3751372462      -24.5977629317       59.7267990175  LPSA12    15             10.0000000000
     12814       411  ARHM      H1            -12.4133127455      -23.7201882894       59.0458905905  LPSA12    15             10.0000000000
     12815       411  ARHM      C5            -10.6994644928      -26.1830028907       60.6468530148  LPSA12    15             10.0000000000
     12816       411  ARHM      H5            -11.2822981623      -27.1364110535       60.4457705401  LPSA12    15             10.0000000000
     12817       411  ARHM      O5            -11.0361534025      -25.1503738637       59.6688136410  LPSA12    15             10.0000000000
     12818       411  ARHM      C2            -12.5902021440      -24.0622119416       61.1407671534  LPSA12    15             10.0000000000
     12819       411  ARHM      H2            -13.6946777203      -23.7292667753       61.2133420761  LPSA12    15             10.0000000000
     12820       411  ARHM      O2            -11.6640787387      -22.9505438804       61.3234079317  LPSA12    15             10.0000000000
     12821       411  ARHM      C3            -12.3558648104      -25.1709499787       62.1677656617  LPSA12    15             10.0000000000
     12822       411  ARHM      H3            -13.0178134273      -26.0286676853       61.8628392879  LPSA12    15             10.0000000000
     12823       411  ARHM      O3            -12.9200180711      -24.6701520626       63.4092175029  LPSA12    15             10.0000000000
     12824       411  ARHM      C4            -10.9808383702      -25.6227414883       62.0487117432  LPSA12    15             10.0000000000
     12825       411  ARHM      H4            -10.2851005200      -24.6962669297       62.1496903561  LPSA12    15             10.0000000000
     12826       411  ARHM      O4            -10.5228573224      -26.6220196999       62.9635513464  LPSA12    15             10.0000000000
     12827       411  ARHM      HO4            -9.5775626106      -26.6132752175       62.9565205260  LPSA12    15             10.0000000000
     12828       411  ARHM      C6             -9.2632913436      -26.6090095661       60.4460959132  LPSA12    15             10.0000000000
     12829       411  ARHM      H61            -8.9345814346      -27.4630593246       61.0956562646  LPSA12    15             10.0000000000
     12830       411  ARHM      H62            -9.0610993249      -26.7213512068       59.3910198679  LPSA12    15             10.0000000000
     12831       411  ARHM      H63            -8.5350789913      -25.8549088435       60.8578185328  LPSA12    15             10.0000000000
     12832       412  BMANNA    C1            -11.7120074823      -22.1811105376       62.5145562334  LPSA12    16             11.0000000000
     12833       412  BMANNA    H1            -11.2697796165      -22.8501246729       63.3432051365  LPSA12    16             11.0000000000
     12834       412  BMANNA    C5            -12.9450437575      -21.0774547452       64.1851548173  LPSA12    16             11.0000000000
     12835       412  BMANNA    H5            -12.4854918219      -21.6793310991       64.9800677769  LPSA12    16             11.0000000000
     12836       412  BMANNA    O5            -13.0162254177      -21.7785246589       62.9158851071  LPSA12    16             11.0000000000
     12837       412  BMANNA    C2            -10.8041985945      -20.9515147070       62.2781089586  LPSA12    16             11.0000000000
     12838       412  BMANNA    H2             -9.8125761809      -21.3901454294       61.9912908466  LPSA12    16             11.0000000000
     12839       412  BMANNA    N             -11.1781043209      -20.0015590941       61.2264456342  LPSA12    16             11.0000000000
     12840       412  BMANNA    HN            -11.7658207337      -19.3058679224       61.5688724990  LPSA12    16             11.0000000000
     12841       412  BMANNA    C             -10.8162637133      -20.0880560945       59.9704010620  LPSA12    16             11.0000000000
     12842       412  BMANNA    O             -10.0273884293      -20.9820913458       59.5582221915  LPSA12    16             11.0000000000
     12843       412  BMANNA    CT            -11.3944255894      -19.0497874512       59.1331689300  LPSA12    16             11.0000000000
     12844       412  BMANNA    HT1           -10.7259957835      -18.2575265155       58.8344492748  LPSA12    16             11.0000000000
     12845       412  BMANNA    HT2           -12.2938739228      -18.5595186064       59.5043001239  LPSA12    16             11.0000000000
     12846       412  BMANNA    HT3           -11.7085608530      -19.4689453302       58.1231520073  LPSA12    16             11.0000000000
     12847       412  BMANNA    C3            -10.7056464003      -20.2544943713       63.6119771117  LPSA12    16             11.0000000000
     12848       412  BMANNA    H3            -10.2906096065      -20.9538486607       64.3839812837  LPSA12    16             11.0000000000
     12849       412  BMANNA    O3             -9.8253620408      -19.1677146237       63.6122488842  LPSA12    16             11.0000000000
     12850       412  BMANNA    HO3            -9.1743816083      -19.2618194656       64.2950500102  LPSA12    16             11.0000000000
     12851       412  BMANNA    C4            -12.0857876910      -19.8008636254       64.1045846713  LPSA12    16             11.0000000000
     12852       412  BMANNA    H4            -12.5566688590      -19.0769785219       63.4124605202  LPSA12    16             11.0000000000
     12853       412  BMANNA    O4            -12.1419451557      -19.1395829590       65.3816866120  LPSA12    16             11.0000000000
     12854       412  BMANNA    HO4           -12.9191391953      -18.5851936797       65.4353184152  LPSA12    16             11.0000000000
     12855       412  BMANNA    C6            -14.3325875692      -20.7349449468       64.7427751243  LPSA12    16             11.0000000000
     12856       412  BMANNA    H61           -14.2438332775      -20.7339430754       65.8875394407  LPSA12    16             11.0000000000
     12857       412  BMANNA    H62           -14.6474873387      -19.7343522463       64.4389269682  LPSA12    16             11.0000000000
     12858       412  BMANNA    O6            -15.3677327986      -21.6647534570       64.3660927576  LPSA12    16             11.0000000000
     12859       412  BMANNA    HO6           -16.0029627607      -21.0744348233       63.9036969990  LPSA12    16             11.0000000000
     12860       413  BGLCNA    C1            -13.5505971044      -25.5841101621       64.1715778089  LPSA12    17             11.0000000000
     12861       413  BGLCNA    H1            -13.1201336442      -26.6333376362       63.9082176002  LPSA12    17             11.0000000000
     12862       413  BGLCNA    C5            -15.7032892156      -26.6747366924       64.5563394407  LPSA12    17             11.0000000000
     12863       413  BGLCNA    H5            -15.3210425789      -27.7284902997       64.2825289487  LPSA12    17             11.0000000000
     12864       413  BGLCNA    O5            -14.9476569276      -25.7286928054       63.7849982893  LPSA12    17             11.0000000000
     12865       413  BGLCNA    C2            -13.4068531359      -25.1693602857       65.5899343931  LPSA12    17             11.0000000000
     12866       413  BGLCNA    H2            -13.8619424245      -24.1485180655       65.8249043900  LPSA12    17             11.0000000000
     12867       413  BGLCNA    N             -12.0502491739      -24.9407023473       65.8849826081  LPSA12    17             11.0000000000
     12868       413  BGLCNA    HN            -11.3497609849      -25.5101430401       65.4150135415  LPSA12    17             11.0000000000
     12869       413  BGLCNA    C             -11.4977468590      -24.1693785263       66.8043620798  LPSA12    17             11.0000000000
     12870       413  BGLCNA    O             -12.1587768729      -23.3837229436       67.4729873017  LPSA12    17             11.0000000000
     12871       413  BGLCNA    CT            -10.0320373707      -24.3032092705       66.9728872304  LPSA12    17             11.0000000000
     12872       413  BGLCNA    HT1            -9.3563467886      -23.5362593654       66.5529393721  LPSA12    17             11.0000000000
     12873       413  BGLCNA    HT2            -9.7613434252      -25.3426524179       66.7043805047  LPSA12    17             11.0000000000
     12874       413  BGLCNA    HT3            -9.7583062926      -24.2959983039       68.1408097225  LPSA12    17             11.0000000000
     12875       413  BGLCNA    C3            -14.1027180356      -26.2343434575       66.4076579941  LPSA12    17             11.0000000000
     12876       413  BGLCNA    H3            -13.5745175993      -27.1786865327       66.0441361901  LPSA12    17             11.0000000000
     12877       413  BGLCNA    O3            -13.7501965925      -26.0081101470       67.8205355914  LPSA12    17             11.0000000000
     12878       413  BGLCNA    C4            -15.5823495039      -26.2392827337       66.0496966154  LPSA12    17             11.0000000000
     12879       413  BGLCNA    H4            -16.0336340357      -25.1876821252       66.1123142204  LPSA12    17             11.0000000000
     12880       413  BGLCNA    O4            -16.3457221954      -27.0512547027       66.9186044206  LPSA12    17             11.0000000000
     12881       413  BGLCNA    HO4           -17.2719893966      -27.1191055633       66.7204061560  LPSA12    17             11.0000000000
     12882       413  BGLCNA    C6            -17.1810209059      -26.6348489558       64.1200051697  LPSA12    17             11.0000000000
     12883       413  BGLCNA    H61           -17.5932244389      -27.6250576360       64.1272946536  LPSA12    17             11.0000000000
     12884       413  BGLCNA    H62           -17.8002950328      -25.9947273451       64.8212395067  LPSA12    17             11.0000000000
     12885       413  BGLCNA    O6            -17.3472602357      -26.1176682614       62.7926115083  LPSA12    17             11.0000000000
     12886       413  BGLCNA    HO6           -16.8612341573      -26.6645311254       62.1856770532  LPSA12    17             11.0000000000
     12887       414  AGAL      C1            -13.5818901503      -27.2066314811       68.6198653987  LPSA12    18             12.0000000000
     12888       414  AGAL      H1            -14.6134643865      -27.6282270497       68.8082567594  LPSA12    18             12.0000000000
     12889       414  AGAL      C5            -11.3731341034      -27.7697591476       67.8636918791  LPSA12    18             12.0000000000
     12890       414  AGAL      H5            -11.3528137508      -26.7762759421       67.4068928888  LPSA12    18             12.0000000000
     12891       414  AGAL      O5            -12.7830766118      -28.1799371356       67.9834320655  LPSA12    18             12.0000000000
     12892       414  AGAL      C2            -12.8846177776      -26.9013853047       70.0000206359  LPSA12    18             12.0000000000
     12893       414  AGAL      H2            -12.8433201172      -27.9441063792       70.3908489884  LPSA12    18             12.0000000000
     12894       414  AGAL      O2            -13.7469060386      -26.2015685122       70.8342757016  LPSA12    18             12.0000000000
     12895       414  AGAL      C3            -11.4719423328      -26.4493954233       69.8682924558  LPSA12    18             12.0000000000
     12896       414  AGAL      H3            -11.4399269429      -25.5778101288       69.0958348126  LPSA12    18             12.0000000000
     12897       414  AGAL      O3            -10.9363259124      -25.9986667809       71.0758896640  LPSA12    18             12.0000000000
     12898       414  AGAL      HO3           -10.4711272028      -25.1671995900       70.9682873819  LPSA12    18             12.0000000000
     12899       414  AGAL      C4            -10.7005293283      -27.4903410113       69.1634745928  LPSA12    18             12.0000000000
     12900       414  AGAL      H4             -9.6486563210      -27.2253143242       68.9039691178  LPSA12    18             12.0000000000
     12901       414  AGAL      O4            -10.6051589297      -28.6912753144       69.9734134928  LPSA12    18             12.0000000000
     12902       414  AGAL      HO4            -9.9334571407      -28.5316842807       70.7236544006  LPSA12    18             12.0000000000
     12903       414  AGAL      C6            -10.7700025968      -28.5798868276       66.8042742825  LPSA12    18             12.0000000000
     12904       414  AGAL      H61           -11.3167831502      -28.3526617146       65.8877991861  LPSA12    18             12.0000000000
     12905       414  AGAL      H62            -9.7306713643      -28.1811701037       66.6499463921  LPSA12    18             12.0000000000
     12906       414  AGAL      O6            -10.8022025025      -29.9028733733       66.9803033045  LPSA12    18             12.0000000000
     12907       414  AGAL      HO6           -11.3609420609      -30.2447779360       67.6707071977  LPSA12    18             12.0000000000
     12908       415  ARHM      C1            -13.6775542473      -26.7377363998       72.1803514454  LPSA12    19             13.0000000000
     12909       415  ARHM      H1            -12.7702982107      -27.2908273806       72.3185909119  LPSA12    19             13.0000000000
     12910       415  ARHM      C5            -15.9732614843      -27.3276113936       72.2512180912  LPSA12    19             13.0000000000
     12911       415  ARHM      H5            -16.0453652327      -26.9114957941       71.2133247196  LPSA12    19             13.0000000000
     12912       415  ARHM      O5            -14.6298076558      -27.7846316097       72.4162684983  LPSA12    19             13.0000000000
     12913       415  ARHM      C2            -13.8688656171      -25.5970760126       73.1100514097  LPSA12    19             13.0000000000
     12914       415  ARHM      H2            -13.2508209715      -24.7529598550       72.9420985559  LPSA12    19             13.0000000000
     12915       415  ARHM      O2            -13.6624279461      -26.0203222468       74.4131644751  LPSA12    19             13.0000000000
     12916       415  ARHM      C3            -15.3501832307      -25.1233423388       72.9859276785  LPSA12    19             13.0000000000
     12917       415  ARHM      H3            -15.5075174577      -24.8445486484       71.9471750908  LPSA12    19             13.0000000000
     12918       415  ARHM      O3            -15.5853167916      -24.0061381557       73.7644258584  LPSA12    19             13.0000000000
     12919       415  ARHM      HO3           -15.2529691134      -24.2070872369       74.6464134549  LPSA12    19             13.0000000000
     12920       415  ARHM      C4            -16.3220538555      -26.1960173227       73.2443334127  LPSA12    19             13.0000000000
     12921       415  ARHM      H4            -16.1287960998      -26.5339536403       74.2703943704  LPSA12    19             13.0000000000
     12922       415  ARHM      O4            -17.6611288646      -25.8199642725       73.1708570575  LPSA12    19             13.0000000000
     12923       415  ARHM      HO4           -17.8181544508      -25.5689145444       72.2126258713  LPSA12    19             13.0000000000
     12924       415  ARHM      C6            -16.9729962673      -28.4969230322       72.3031700958  LPSA12    19             13.0000000000
     12925       415  ARHM      H61           -16.5854994676      -29.1272900503       71.5186681997  LPSA12    19             13.0000000000
     12926       415  ARHM      H62           -17.0046558789      -29.0723807379       73.2001761489  LPSA12    19             13.0000000000
     12927       415  ARHM      H63           -18.0030124764      -28.1991633380       72.0875448643  LPSA12    19             13.0000000000
     12928       416  ARHM      C1            -12.3113749800      -26.1763747366       74.6981797177  LPSA12    20             14.0000000000
     12929       416  ARHM      H1            -11.6377302647      -25.7340677588       73.8936196974  LPSA12    20             14.0000000000
     12930       416  ARHM      C5            -12.4124663281      -28.1885489846       75.9960310464  LPSA12    20             14.0000000000
     12931       416  ARHM      H5            -13.5139891076      -28.1152245842       75.8071112250  LPSA12    20             14.0000000000
     12932       416  ARHM      O5            -11.8335110285      -27.5107961848       74.8741575474  LPSA12    20             14.0000000000
     12933       416  ARHM      C2            -11.9552249159      -25.3684503093       75.9438944127  LPSA12    20             14.0000000000
     12934       416  ARHM      H2            -12.4250562628      -24.3094717101       75.7904987900  LPSA12    20             14.0000000000
     12935       416  ARHM      O2            -10.5366998127      -25.2965467495       76.2145535291  LPSA12    20             14.0000000000
     12936       416  ARHM      C3            -12.5646644726      -26.0789012820       77.0746584307  LPSA12    20             14.0000000000
     12937       416  ARHM      H3            -13.7110075297      -26.1108742955       76.9570890266  LPSA12    20             14.0000000000
     12938       416  ARHM      O3            -12.3115813343      -25.2591968019       78.2431898216  LPSA12    20             14.0000000000
     12939       416  ARHM      C4            -12.0671579880      -27.4785351578       77.2147849866  LPSA12    20             14.0000000000
     12940       416  ARHM      H4            -11.0008031376      -27.5388319660       77.2882629629  LPSA12    20             14.0000000000
     12941       416  ARHM      O4            -12.6080364788      -28.0483247217       78.4294019453  LPSA12    20             14.0000000000
     12942       416  ARHM      HO4           -12.6265195178      -28.9146384040       78.0714846557  LPSA12    20             14.0000000000
     12943       416  ARHM      C6            -12.0240999033      -29.6079244688       75.9818768401  LPSA12    20             14.0000000000
     12944       416  ARHM      H61           -10.9296047829      -29.8857128545       76.0487105533  LPSA12    20             14.0000000000
     12945       416  ARHM      H62           -12.5754216636      -30.1543244941       76.7492574554  LPSA12    20             14.0000000000
     12946       416  ARHM      H63           -12.2855865225      -30.1574056408       75.0059134709  LPSA12    20             14.0000000000
     12947       417  BMANNA    C1            -10.0544648206      -24.2517889217       75.4501725836  LPSA12    21             15.0000000000
     12948       417  BMANNA    H1            -10.8272181008      -23.9087065387       74.6495731600  LPSA12    21             15.0000000000
     12949       417  BMANNA    C5             -8.6271566371      -23.6109159667       73.6578092950  LPSA12    21             15.0000000000
     12950       417  BMANNA    H5             -9.5014398267      -23.1246144908       73.0422409194  LPSA12    21             15.0000000000
     12951       417  BMANNA    O5             -8.9963985743      -24.7211267028       74.5460975074  LPSA12    21             15.0000000000
     12952       417  BMANNA    C2             -9.5640062432      -23.1454069473       76.3268603500  LPSA12    21             15.0000000000
     12953       417  BMANNA    H2            -10.4761429725      -22.8840011738       76.8663433126  LPSA12    21             15.0000000000
     12954       417  BMANNA    N              -8.5364320988      -23.5991735975       77.2602735953  LPSA12    21             15.0000000000
     12955       417  BMANNA    HN             -7.7824625907      -24.0653608909       76.8630196157  LPSA12    21             15.0000000000
     12956       417  BMANNA    C              -8.4119050446      -23.1843977353       78.6142451918  LPSA12    21             15.0000000000
     12957       417  BMANNA    O              -9.0841163663      -22.2420615293       79.0340579138  LPSA12    21             15.0000000000
     12958       417  BMANNA    CT             -7.3794815239      -23.9013298068       79.5125915666  LPSA12    21             15.0000000000
     12959       417  BMANNA    HT1            -6.3742320180      -23.4667488687       79.3040814335  LPSA12    21             15.0000000000
     12960       417  BMANNA    HT2            -7.4947722791      -24.9814536241       79.3224353366  LPSA12    21             15.0000000000
     12961       417  BMANNA    HT3            -7.6118375395      -23.7090898577       80.6000991146  LPSA12    21             15.0000000000
     12962       417  BMANNA    C3             -9.1596792712      -22.0186214715       75.4428482744  LPSA12    21             15.0000000000
     12963       417  BMANNA    H3            -10.1145326855      -21.7564443351       75.0091666053  LPSA12    21             15.0000000000
     12964       417  BMANNA    O3             -8.7011011879      -20.8935849775       76.1769203835  LPSA12    21             15.0000000000
     12965       417  BMANNA    HO3            -8.0062576448      -21.1873389308       76.7354970047  LPSA12    21             15.0000000000
     12966       417  BMANNA    C4             -8.0829541687      -22.4632919487       74.4866217523  LPSA12    21             15.0000000000
     12967       417  BMANNA    H4             -7.0416444745      -22.7535116757       75.0002820064  LPSA12    21             15.0000000000
     12968       417  BMANNA    O4             -7.6894888081      -21.4421512087       73.6152290754  LPSA12    21             15.0000000000
     12969       417  BMANNA    HO4            -6.7534080122      -21.1860994423       73.7703874424  LPSA12    21             15.0000000000
     12970       417  BMANNA    C6             -7.7034481366      -24.0281418099       72.6348027846  LPSA12    21             15.0000000000
     12971       417  BMANNA    H61            -7.5368429269      -23.2618474443       71.8494922130  LPSA12    21             15.0000000000
     12972       417  BMANNA    H62            -6.6614658265      -24.0445428470       73.0558617198  LPSA12    21             15.0000000000
     12973       417  BMANNA    O6             -7.8943653743      -25.2880270160       72.0654385618  LPSA12    21             15.0000000000
     12974       417  BMANNA    HO6            -7.9371626381      -25.9242307732       72.7784055652  LPSA12    21             15.0000000000
     12975       418  BGLCNA    C1            -13.2783653597      -25.1311490350       79.2248726046  LPSA12    22             15.0000000000
     12976       418  BGLCNA    H1            -14.0062402626      -25.9931781307       79.2753119810  LPSA12    22             15.0000000000
     12977       418  BGLCNA    C5            -15.1337886774      -23.8829216496       80.1145289529  LPSA12    22             15.0000000000
     12978       418  BGLCNA    H5            -15.7340149065      -24.8873377174       80.0727605020  LPSA12    22             15.0000000000
     12979       418  BGLCNA    O5            -14.0966457193      -24.0071125639       79.0803056561  LPSA12    22             15.0000000000
     12980       418  BGLCNA    C2            -12.5847006952      -25.0524832464       80.5602818744  LPSA12    22             15.0000000000
     12981       418  BGLCNA    H2            -11.9707072527      -24.0882283880       80.4633107900  LPSA12    22             15.0000000000
     12982       418  BGLCNA    N             -11.7318128120      -26.2133231387       80.7025670875  LPSA12    22             15.0000000000
     12983       418  BGLCNA    HN            -12.1283186472      -27.0697608509       80.4501896382  LPSA12    22             15.0000000000
     12984       418  BGLCNA    C             -10.5735107992      -26.2214360974       81.3295640408  LPSA12    22             15.0000000000
     12985       418  BGLCNA    O             -10.1118697222      -25.1867351293       81.8448112003  LPSA12    22             15.0000000000
     12986       418  BGLCNA    CT             -9.8559612633      -27.5195458667       81.4359073222  LPSA12    22             15.0000000000
     12987       418  BGLCNA    HT1            -9.2529149680      -27.5154822822       80.5353412834  LPSA12    22             15.0000000000
     12988       418  BGLCNA    HT2           -10.6065145371      -28.3270668468       81.2752873926  LPSA12    22             15.0000000000
     12989       418  BGLCNA    HT3            -9.3688144998      -27.7150607732       82.3679651303  LPSA12    22             15.0000000000
     12990       418  BGLCNA    C3            -13.5841300332      -24.9115539871       81.6855161512  LPSA12    22             15.0000000000
     12991       418  BGLCNA    H3            -14.2774212049      -25.7887853905       81.6419517197  LPSA12    22             15.0000000000
     12992       418  BGLCNA    O3            -12.8270903845      -24.9806822181       82.8729300216  LPSA12    22             15.0000000000
     12993       418  BGLCNA    C4            -14.4650292209      -23.6768275073       81.4704242134  LPSA12    22             15.0000000000
     12994       418  BGLCNA    H4            -13.7985344943      -22.8567960767       81.4144045074  LPSA12    22             15.0000000000
     12995       418  BGLCNA    O4            -15.3917221656      -23.4726489644       82.5140850489  LPSA12    22             15.0000000000
     12996       418  BGLCNA    HO4           -15.4363033423      -22.5215030861       82.7130071916  LPSA12    22             15.0000000000
     12997       418  BGLCNA    C6            -16.0028718777      -22.6943269120       79.7284495560  LPSA12    22             15.0000000000
     12998       418  BGLCNA    H61           -16.5300756456      -22.4311194866       80.6924177192  LPSA12    22             15.0000000000
     12999       418  BGLCNA    H62           -15.3859054688      -21.8092152976       79.4648784538  LPSA12    22             15.0000000000
     13000       418  BGLCNA    O6            -17.0029268658      -22.9802332543       78.8100863794  LPSA12    22             15.0000000000
     13001       418  BGLCNA    HO6           -16.6005830707      -23.3328972737       78.0328486455  LPSA12    22             15.0000000000
     13002       419  AGAL      C1            -13.4466026044      -25.3099904669       84.0628261254  LPSA12    23             16.0000000000
     13003       419  AGAL      H1            -14.0247071617      -24.4548518417       84.5106287163  LPSA12    23             16.0000000000
     13004       419  AGAL      C5            -13.6534230268      -27.6626734931       83.7583018441  LPSA12    23             16.0000000000
     13005       419  AGAL      H5            -12.9726302707      -27.5351757789       82.8366412438  LPSA12    23             16.0000000000
     13006       419  AGAL      O5            -14.3183062603      -26.4432667662       83.9976212264  LPSA12    23             16.0000000000
     13007       419  AGAL      C2            -12.4161405250      -25.5825149729       85.1427633740  LPSA12    23             16.0000000000
     13008       419  AGAL      H2            -12.9955063808      -25.8121033296       86.0076373284  LPSA12    23             16.0000000000
     13009       419  AGAL      O2            -11.6472833853      -24.4590019715       85.5000844886  LPSA12    23             16.0000000000
     13010       419  AGAL      C3            -11.6515453397      -26.8413159223       84.9194901020  LPSA12    23             16.0000000000
     13011       419  AGAL      H3            -11.2465905068      -26.7599491765       83.8641570193  LPSA12    23             16.0000000000
     13012       419  AGAL      O3            -10.5369517187      -27.0301886934       85.7108298168  LPSA12    23             16.0000000000
     13013       419  AGAL      HO3           -10.8467999499      -26.8195600141       86.6206525111  LPSA12    23             16.0000000000
     13014       419  AGAL      C4            -12.6377318281      -27.9704435047       84.8901212015  LPSA12    23             16.0000000000
     13015       419  AGAL      H4            -12.1636334240      -28.9492843623       84.6506069022  LPSA12    23             16.0000000000
     13016       419  AGAL      O4            -13.2969033158      -28.2607164971       86.1132943683  LPSA12    23             16.0000000000
     13017       419  AGAL      HO4           -14.1149147348      -28.5171570761       85.8278371007  LPSA12    23             16.0000000000
     13018       419  AGAL      C6            -14.6210684843      -28.7324067589       83.3278962909  LPSA12    23             16.0000000000
     13019       419  AGAL      H61           -15.2897069016      -28.3399477432       82.6074235255  LPSA12    23             16.0000000000
     13020       419  AGAL      H62           -14.1382746578      -29.5344500297       82.7620574208  LPSA12    23             16.0000000000
     13021       419  AGAL      O6            -15.3940284165      -29.1519361374       84.3845202183  LPSA12    23             16.0000000000
     13022       419  AGAL      HO6           -16.0541786375      -29.7955769022       84.1740981585  LPSA12    23             16.0000000000
     13023       420  ARHM      C1            -12.1170532833      -23.3760823729       86.2818185944  LPSA12    24             17.0000000000
     13024       420  ARHM      H1            -13.1815528139      -23.4788754393       86.3680542693  LPSA12    24             17.0000000000
     13025       420  ARHM      C5            -10.5129210059      -21.7175356169       85.6157638072  LPSA12    24             17.0000000000
     13026       420  ARHM      H5            -10.0470952516      -22.4632574963       85.0070975499  LPSA12    24             17.0000000000
     13027       420  ARHM      O5            -11.8908571537      -21.9783979791       85.8657410059  LPSA12    24             17.0000000000
     13028       420  ARHM      C2            -11.4414015565      -23.6090223835       87.5921581840  LPSA12    24             17.0000000000
     13029       420  ARHM      H2            -11.4936228247      -24.6372529882       87.8984046741  LPSA12    24             17.0000000000
     13030       420  ARHM      O2            -11.8844197117      -22.6885235380       88.6075763533  LPSA12    24             17.0000000000
     13031       420  ARHM      C3             -9.9483463578      -23.2944813195       87.4133527752  LPSA12    24             17.0000000000
     13032       420  ARHM      H3             -9.5945170081      -24.0099253050       86.6640279609  LPSA12    24             17.0000000000
     13033       420  ARHM      O3             -9.1233437295      -23.6242926438       88.5620392964  LPSA12    24             17.0000000000
     13034       420  ARHM      HO3            -9.1541135415      -22.8363414740       89.1463757531  LPSA12    24             17.0000000000
     13035       420  ARHM      C4             -9.7281260164      -21.8638265624       86.9402325015  LPSA12    24             17.0000000000
     13036       420  ARHM      H4            -10.2457799318      -21.1603022112       87.7071552895  LPSA12    24             17.0000000000
     13037       420  ARHM      O4             -8.3747983242      -21.4772156091       86.8379508285  LPSA12    24             17.0000000000
     13038       420  ARHM      HO4            -8.2127549935      -20.5660934542       87.0219124236  LPSA12    24             17.0000000000
     13039       420  ARHM      C6            -10.2635670223      -20.3174660711       84.9175891319  LPSA12    24             17.0000000000
     13040       420  ARHM      H61            -9.3146448051      -20.3604289438       84.3853494017  LPSA12    24             17.0000000000
     13041       420  ARHM      H62           -11.0686878041      -20.1887730243       84.2649634992  LPSA12    24             17.0000000000
     13042       420  ARHM      H63           -10.3532594668      -19.4747879492       85.6811466487  LPSA12    24             17.0000000000
     13043       421  ARHM      C1            -13.1288717776      -23.1046329944       89.1588742089  LPSA12    25             18.0000000000
     13044       421  ARHM      H1            -13.6280573242      -23.7426161637       88.4722246341  LPSA12    25             18.0000000000
     13045       421  ARHM      C5            -13.6460540442      -20.9975584934       90.1670531641  LPSA12    25             18.0000000000
     13046       421  ARHM      H5            -12.7332747917      -20.5433897181       89.8870230824  LPSA12    25             18.0000000000
     13047       421  ARHM      O5            -14.0681713292      -22.0138716575       89.2315309535  LPSA12    25             18.0000000000
     13048       421  ARHM      C2            -12.8866877908      -23.7456984508       90.4685713243  LPSA12    25             18.0000000000
     13049       421  ARHM      H2            -12.0470245495      -24.5090845269       90.3413143991  LPSA12    25             18.0000000000
     13050       421  ARHM      O2            -14.1092455402      -24.3974837092       90.9328696740  LPSA12    25             18.0000000000
     13051       421  ARHM      C3            -12.4798185096      -22.6043877025       91.4562257518  LPSA12    25             18.0000000000
     13052       421  ARHM      H3            -11.5239055125      -22.1711347967       91.0689171631  LPSA12    25             18.0000000000
     13053       421  ARHM      O3            -12.2223092900      -23.2378933521       92.6920647463  LPSA12    25             18.0000000000
     13054       421  ARHM      C4            -13.4507545738      -21.5616017175       91.5960769721  LPSA12    25             18.0000000000
     13055       421  ARHM      H4            -14.5021519314      -21.9785415246       91.8876801091  LPSA12    25             18.0000000000
     13056       421  ARHM      O4            -12.9540358520      -20.6609480158       92.5862492282  LPSA12    25             18.0000000000
     13057       421  ARHM      HO4           -13.7366869051      -20.3650795268       93.0149361445  LPSA12    25             18.0000000000
     13058       421  ARHM      C6            -14.6183829357      -19.8196664416       90.2083352735  LPSA12    25             18.0000000000
     13059       421  ARHM      H61           -14.8640434468      -19.4446537114       89.1912344565  LPSA12    25             18.0000000000
     13060       421  ARHM      H62           -15.6109224607      -20.0752967511       90.6686969550  LPSA12    25             18.0000000000
     13061       421  ARHM      H63           -14.2264358647      -18.9232203519       90.8233913566  LPSA12    25             18.0000000000
     13062       422  BMANNA    C1            -14.3692226320      -25.6349173764       90.3138108879  LPSA12    26             19.0000000000
     13063       422  BMANNA    H1            -13.4423100929      -26.0724759365       89.8388342826  LPSA12    26             19.0000000000
     13064       422  BMANNA    C5            -15.4952536428      -26.8987923096       88.6312665858  LPSA12    26             19.0000000000
     13065       422  BMANNA    H5            -14.5371216296      -27.1528544906       88.1771240033  LPSA12    26             19.0000000000
     13066       422  BMANNA    O5            -15.3427504021      -25.6075932455       89.2346891933  LPSA12    26             19.0000000000
     13067       422  BMANNA    C2            -14.8224555075      -26.5442289399       91.3475147821  LPSA12    26             19.0000000000
     13068       422  BMANNA    H2            -13.9743364170      -26.5566290259       92.1081287357  LPSA12    26             19.0000000000
     13069       422  BMANNA    N             -16.0758797547      -26.0086255014       91.9238920796  LPSA12    26             19.0000000000
     13070       422  BMANNA    HN            -16.7899524830      -25.8440069884       91.3050515894  LPSA12    26             19.0000000000
     13071       422  BMANNA    C             -16.3058937283      -25.8412609008       93.1798471680  LPSA12    26             19.0000000000
     13072       422  BMANNA    O             -15.3777369777      -25.9512875546       94.0003587425  LPSA12    26             19.0000000000
     13073       422  BMANNA    CT            -17.7175527929      -25.5308462832       93.6758917343  LPSA12    26             19.0000000000
     13074       422  BMANNA    HT1           -18.2448855847      -25.1257917000       92.8666282051  LPSA12    26             19.0000000000
     13075       422  BMANNA    HT2           -17.9195412920      -25.0013866980       94.6620984389  LPSA12    26             19.0000000000
     13076       422  BMANNA    HT3           -18.1746493393      -26.5126991304       93.8484898219  LPSA12    26             19.0000000000
     13077       422  BMANNA    C3            -14.9475168317      -27.9309362567       90.7100883268  LPSA12    26             19.0000000000
     13078       422  BMANNA    H3            -13.9350457897      -28.2276275671       90.3384445889  LPSA12    26             19.0000000000
     13079       422  BMANNA    O3            -15.2833103063      -28.8739805118       91.7636866611  LPSA12    26             19.0000000000
     13080       422  BMANNA    HO3           -14.4586809728      -28.9625704637       92.2265744207  LPSA12    26             19.0000000000
     13081       422  BMANNA    C4            -15.8993852081      -27.8668216810       89.6481622736  LPSA12    26             19.0000000000
     13082       422  BMANNA    H4            -16.9552882421      -27.5599914599       89.9013799111  LPSA12    26             19.0000000000
     13083       422  BMANNA    O4            -16.0804748685      -29.1386167886       89.0416847738  LPSA12    26             19.0000000000
     13084       422  BMANNA    HO4           -16.7166580974      -29.6304167487       89.5591157304  LPSA12    26             19.0000000000
     13085       422  BMANNA    C6            -16.4029274542      -26.6444747953       87.3900617492  LPSA12    26             19.0000000000
     13086       422  BMANNA    H61           -16.1920081357      -25.6680278804       86.9191763972  LPSA12    26             19.0000000000
     13087       422  BMANNA    H62           -16.2820563895      -27.3924351422       86.6504270337  LPSA12    26             19.0000000000
     13088       422  BMANNA    O6            -17.7843213785      -26.6552669941       87.7329108337  LPSA12    26             19.0000000000
     13089       422  BMANNA    HO6           -17.9951512099      -27.4547775949       88.1688153196  LPSA12    26             19.0000000000
     13090       423  BGLCNA    C1            -11.1398322771      -22.9905638877       93.4616184899  LPSA12    27             19.0000000000
     13091       423  BGLCNA    H1            -10.8862940330      -21.9352911344       93.4392217979  LPSA12    27             19.0000000000
     13092       423  BGLCNA    C5             -8.8442253145      -23.3341036562       93.9656603721  LPSA12    27             19.0000000000
     13093       423  BGLCNA    H5             -8.7429753419      -22.2185553044       93.9564344452  LPSA12    27             19.0000000000
     13094       423  BGLCNA    O5             -9.9149181930      -23.6367469670       93.0607755266  LPSA12    27             19.0000000000
     13095       423  BGLCNA    C2            -11.5385047929      -23.4024270557       94.8806799918  LPSA12    27             19.0000000000
     13096       423  BGLCNA    H2            -11.6646799546      -24.4989671119       94.8757458582  LPSA12    27             19.0000000000
     13097       423  BGLCNA    N             -12.7964581844      -22.7809301339       95.2501113516  LPSA12    27             19.0000000000
     13098       423  BGLCNA    HN            -12.8618379192      -21.7422440496       95.0827132934  LPSA12    27             19.0000000000
     13099       423  BGLCNA    C             -13.6874830747      -23.5862205597       95.9523160909  LPSA12    27             19.0000000000
     13100       423  BGLCNA    O             -13.4072259807      -24.6833379632       96.5238801166  LPSA12    27             19.0000000000
     13101       423  BGLCNA    CT            -15.1336215811      -23.0057896636       96.0293745529  LPSA12    27             19.0000000000
     13102       423  BGLCNA    HT1           -15.2343241403      -22.1059073529       95.3635606282  LPSA12    27             19.0000000000
     13103       423  BGLCNA    HT2           -15.4829601831      -22.8005612790       97.0167906789  LPSA12    27             19.0000000000
     13104       423  BGLCNA    HT3           -15.8454597391      -23.8615793298       95.7039804309  LPSA12    27             19.0000000000
     13105       423  BGLCNA    C3            -10.4255065591      -23.0832888179       95.7540348103  LPSA12    27             19.0000000000
     13106       423  BGLCNA    H3            -10.1768269243      -21.9929505539       95.7401190096  LPSA12    27             19.0000000000
     13107       423  BGLCNA    O3            -10.9245612014      -23.4769764390       97.0775356047  LPSA12    27             19.0000000000
     13108       423  BGLCNA    C4             -9.1220193192      -23.7987554942       95.3486864533  LPSA12    27             19.0000000000
     13109       423  BGLCNA    H4             -9.3010430619      -24.8979065832       95.3090014479  LPSA12    27             19.0000000000
     13110       423  BGLCNA    O4             -8.0882793524      -23.5073586095       96.2156872787  LPSA12    27             19.0000000000
     13111       423  BGLCNA    HO4            -7.8875630298      -22.6149124746       96.0162444362  LPSA12    27             19.0000000000
     13112       423  BGLCNA    C6             -7.5496274970      -23.8960348326       93.2852949846  LPSA12    27             19.0000000000
     13113       423  BGLCNA    H61            -6.7207926103      -23.4666251219       93.8557506920  LPSA12    27             19.0000000000
     13114       423  BGLCNA    H62            -7.4735862852      -24.9930689119       93.4725180191  LPSA12    27             19.0000000000
     13115       423  BGLCNA    O6             -7.4999014667      -23.5644988103       91.9076175409  LPSA12    27             19.0000000000
     13116       423  BGLCNA    HO6            -6.6858414553      -23.9615782832       91.5273290588  LPSA12    27             19.0000000000
     13117       424  AGAL      C1            -10.2536200379      -22.9849375450       98.2622020222  LPSA12    28             20.0000000000
     13118       424  AGAL      H1             -9.3010890786      -23.4405722712       98.3007149491  LPSA12    28             20.0000000000
     13119       424  AGAL      C5            -11.2278973391      -20.7666600524       98.1710438288  LPSA12    28             20.0000000000
     13120       424  AGAL      H5            -12.0760550218      -21.2192383778       97.4646141937  LPSA12    28             20.0000000000
     13121       424  AGAL      O5             -9.9925818424      -21.5908780014       98.1147365872  LPSA12    28             20.0000000000
     13122       424  AGAL      C2            -10.9559986984      -23.1615023940       99.6197190629  LPSA12    28             20.0000000000
     13123       424  AGAL      H2            -10.2357903091      -22.7066187823      100.2965066153  LPSA12    28             20.0000000000
     13124       424  AGAL      O2            -11.1402395459      -24.4919852321      100.0788731798  LPSA12    28             20.0000000000
     13125       424  AGAL      C3            -12.2065570601      -22.3484885892       99.7396972452  LPSA12    28             20.0000000000
     13126       424  AGAL      H3            -12.8725265041      -22.6183676677       98.8607737785  LPSA12    28             20.0000000000
     13127       424  AGAL      O3            -13.0395213175      -22.5101663596      100.9043404272  LPSA12    28             20.0000000000
     13128       424  AGAL      HO3           -13.8850951966      -22.8585291440      100.5606486229  LPSA12    28             20.0000000000
     13129       424  AGAL      C4            -11.8785239757      -20.9275506656       99.5102226768  LPSA12    28             20.0000000000
     13130       424  AGAL      H4            -12.7917025414      -20.3824999741       99.4798298294  LPSA12    28             20.0000000000
     13131       424  AGAL      O4            -11.0386797451      -20.3800433069      100.4757933835  LPSA12    28             20.0000000000
     13132       424  AGAL      HO4           -11.5877378670      -19.8823242245      101.0376442747  LPSA12    28             20.0000000000
     13133       424  AGAL      C6            -11.0699382815      -19.3405812346       97.6362902244  LPSA12    28             20.0000000000
     13134       424  AGAL      H61           -10.8085602394      -19.3835131108       96.5809275898  LPSA12    28             20.0000000000
     13135       424  AGAL      H62           -11.9698270850      -18.6343280393       97.7651048223  LPSA12    28             20.0000000000
     13136       424  AGAL      O6            -10.0421461842      -18.6803918524       98.3456070822  LPSA12    28             20.0000000000
     13137       424  AGAL      HO6            -9.1923338160      -18.8608045644       97.9416813930  LPSA12    28             20.0000000000
     13138       425  ARHM      C1            -10.7878666862      -24.5574845298      101.4808913342  LPSA12    29             21.0000000000
     13139       425  ARHM      H1            -10.9546659817      -23.5568519038      101.9964955809  LPSA12    29             21.0000000000
     13140       425  ARHM      C5             -9.1487261566      -26.2055824373      101.1486206043  LPSA12    29             21.0000000000
     13141       425  ARHM      H5             -9.4862093118      -26.1716394785      100.0935446791  LPSA12    29             21.0000000000
     13142       425  ARHM      O5             -9.4598806023      -24.9503700310      101.6833506475  LPSA12    29             21.0000000000
     13143       425  ARHM      C2            -11.7178789648      -25.4734566656      102.1437305515  LPSA12    29             21.0000000000
     13144       425  ARHM      H2            -12.7367386880      -25.2449168791      101.9067628034  LPSA12    29             21.0000000000
     13145       425  ARHM      O2            -11.5765057997      -25.4494645701      103.5748524404  LPSA12    29             21.0000000000
     13146       425  ARHM      C3            -11.4347281489      -26.8561829976      101.6289418068  LPSA12    29             21.0000000000
     13147       425  ARHM      H3            -11.6965568351      -26.8964580025      100.4952263366  LPSA12    29             21.0000000000
     13148       425  ARHM      O3            -12.3649612709      -27.7360444792      102.1995749427  LPSA12    29             21.0000000000
     13149       425  ARHM      HO3           -11.9626342069      -28.5371506148      102.2092645043  LPSA12    29             21.0000000000
     13150       425  ARHM      C4            -10.0485600457      -27.2894789921      101.8247918557  LPSA12    29             21.0000000000
     13151       425  ARHM      H4             -9.7833054669      -27.3701728298      102.9338171738  LPSA12    29             21.0000000000
     13152       425  ARHM      O4             -9.6859504707      -28.6041597212      101.3452167393  LPSA12    29             21.0000000000
     13153       425  ARHM      HO4           -10.0522658195      -28.8242183572      100.4362974805  LPSA12    29             21.0000000000
     13154       425  ARHM      C6             -7.6182051253      -26.3516742324      101.2162231226  LPSA12    29             21.0000000000
     13155       425  ARHM      H61            -7.2508364863      -25.3582689169      100.7685423143  LPSA12    29             21.0000000000
     13156       425  ARHM      H62            -7.3076846984      -26.3933396855      102.3013153741  LPSA12    29             21.0000000000
     13157       425  ARHM      H63            -7.3193309764      -27.2117081297      100.6072571094  LPSA12    29             21.0000000000
     13158       426  ARHM      C1            -12.4084560579      -24.6916446556      104.3945976075  LPSA12    30             22.0000000000
     13159       426  ARHM      H1            -13.4613776545      -24.9982462941      104.2094096401  LPSA12    30             22.0000000000
     13160       426  ARHM      C5            -10.9127059254      -22.7753436285      104.5143062533  LPSA12    30             22.0000000000
     13161       426  ARHM      H5            -10.2635744567      -23.4817245137      103.8668162917  LPSA12    30             22.0000000000
     13162       426  ARHM      O5            -12.2460265089      -23.2700634052      104.2052433351  LPSA12    30             22.0000000000
     13163       426  ARHM      C2            -12.0940706692      -25.0008898037      105.8471183130  LPSA12    30             22.0000000000
     13164       426  ARHM      H2            -12.1811960233      -26.0223908348      106.0289718167  LPSA12    30             22.0000000000
     13165       426  ARHM      O2            -12.9698240702      -24.2146285343      106.5813641610  LPSA12    30             22.0000000000
     13166       426  ARHM      C3            -10.7700228438      -24.5144666286      106.2079894766  LPSA12    30             22.0000000000
     13167       426  ARHM      H3            -10.0669517111      -24.9115270168      105.5270001340  LPSA12    30             22.0000000000
     13168       426  ARHM      O3            -10.3384197341      -24.9201774778      107.5373891676  LPSA12    30             22.0000000000
     13169       426  ARHM      C4            -10.6157498787      -23.0085266852      105.9708288384  LPSA12    30             22.0000000000
     13170       426  ARHM      H4            -11.3303097674      -22.4104193497      106.5400372406  LPSA12    30             22.0000000000
     13171       426  ARHM      O4             -9.4104765857      -22.4753022936      106.2997755749  LPSA12    30             22.0000000000
     13172       426  ARHM      HO4            -8.6621542193      -22.5703277301      105.6964454668  LPSA12    30             22.0000000000
     13173       426  ARHM      C6            -10.7824013420      -21.3363312028      104.0930490251  LPSA12    30             22.0000000000
     13174       426  ARHM      H61            -9.6988852175      -21.0570126220      104.2143179997  LPSA12    30             22.0000000000
     13175       426  ARHM      H62           -10.9230840090      -21.2725612562      103.0019050467  LPSA12    30             22.0000000000
     13176       426  ARHM      H63           -11.4758171940      -20.6290894002      104.6493652223  LPSA12    30             22.0000000000
     13177       427  BMANNA    C1            -14.1874495897      -24.8231919262      106.9502319096  LPSA12    31             23.0000000000
     13178       427  BMANNA    H1            -13.9798735165      -25.8973964973      107.1550799008  LPSA12    31             23.0000000000
     13179       427  BMANNA    C5            -16.4218192975      -25.4363892058      106.2136717625  LPSA12    31             23.0000000000
     13180       427  BMANNA    H5            -16.1162162953      -26.4383654734      106.5467054000  LPSA12    31             23.0000000000
     13181       427  BMANNA    O5            -15.1825156019      -24.7483232915      105.8742289322  LPSA12    31             23.0000000000
     13182       427  BMANNA    C2            -14.7437697134      -24.1506042135      108.0830629221  LPSA12    31             23.0000000000
     13183       427  BMANNA    H2            -14.0210422807      -24.3240593354      108.9031915743  LPSA12    31             23.0000000000
     13184       427  BMANNA    N             -14.7891636141      -22.7528043297      107.8252935315  LPSA12    31             23.0000000000
     13185       427  BMANNA    HN            -14.8422680616      -22.4580936156      106.8111160773  LPSA12    31             23.0000000000
     13186       427  BMANNA    C             -14.7169823264      -21.8287930323      108.7868858964  LPSA12    31             23.0000000000
     13187       427  BMANNA    O             -14.5296480841      -22.1237285676      109.9536662434  LPSA12    31             23.0000000000
     13188       427  BMANNA    CT            -14.8667244959      -20.3715374189      108.3237946568  LPSA12    31             23.0000000000
     13189       427  BMANNA    HT1           -15.6156533151      -20.3413455648      107.5739831696  LPSA12    31             23.0000000000
     13190       427  BMANNA    HT2           -13.8958596730      -20.0460681215      107.9347099034  LPSA12    31             23.0000000000
     13191       427  BMANNA    HT3           -15.0491600515      -19.6991846632      109.1768357935  LPSA12    31             23.0000000000
     13192       427  BMANNA    C3            -16.0131544853      -24.8254432873      108.4884560283  LPSA12    31             23.0000000000
     13193       427  BMANNA    H3            -15.8555436935      -25.9488008859      108.6988550870  LPSA12    31             23.0000000000
     13194       427  BMANNA    O3            -16.4973074488      -24.3385637021      109.7404994872  LPSA12    31             23.0000000000
     13195       427  BMANNA    HO3           -15.6841476104      -23.9539785083      110.0111610137  LPSA12    31             23.0000000000
     13196       427  BMANNA    C4            -17.0247197095      -24.7122666450      107.4199857710  LPSA12    31             23.0000000000
     13197       427  BMANNA    H4            -17.3001506075      -23.6126485119      107.0572414185  LPSA12    31             23.0000000000
     13198       427  BMANNA    O4            -18.2482291285      -25.2888655556      107.8525671122  LPSA12    31             23.0000000000
     13199       427  BMANNA    HO4           -18.1292353666      -26.2032909641      108.1943429300  LPSA12    31             23.0000000000
     13200       427  BMANNA    C6            -17.4269344379      -25.4858989552      105.0512686782  LPSA12    31             23.0000000000
     13201       427  BMANNA    H61           -18.2721480290      -26.2307184449      105.3397811046  LPSA12    31             23.0000000000
     13202       427  BMANNA    H62           -17.9071348682      -24.5286412691      104.8698551944  LPSA12    31             23.0000000000
     13203       427  BMANNA    O6            -16.8078579780      -25.9191070199      103.8241467834  LPSA12    31             23.0000000000
     13204       427  BMANNA    HO6           -16.5552963229      -26.8857778843      103.8134147631  LPSA12    31             23.0000000000
     13205       428  BGLCNA    C1            -10.8083851044      -24.1740265306      108.6103969990  LPSA12    32             23.0000000000
     13206       428  BGLCNA    H1            -11.8692442374      -23.8072879498      108.4325564695  LPSA12    32             23.0000000000
     13207       428  BGLCNA    C5            -10.5830244996      -22.1597492924      109.9277617404  LPSA12    32             23.0000000000
     13208       428  BGLCNA    H5            -11.6305162806      -21.8901758098      109.5374749077  LPSA12    32             23.0000000000
     13209       428  BGLCNA    O5            -10.0204514115      -23.0299888411      108.9423333575  LPSA12    32             23.0000000000
     13210       428  BGLCNA    C2            -10.9030255976      -24.9977839129      109.8194522937  LPSA12    32             23.0000000000
     13211       428  BGLCNA    H2             -9.8913769407      -25.1648975774      110.1044894257  LPSA12    32             23.0000000000
     13212       428  BGLCNA    N             -11.5697017822      -26.2354619198      109.5956973249  LPSA12    32             23.0000000000
     13213       428  BGLCNA    HN            -12.2855157614      -26.1009290609      108.8809076996  LPSA12    32             23.0000000000
     13214       428  BGLCNA    C             -11.2958782448      -27.4654068858      110.0864625708  LPSA12    32             23.0000000000
     13215       428  BGLCNA    O             -10.4203692938      -27.6573966032      110.9304085025  LPSA12    32             23.0000000000
     13216       428  BGLCNA    CT            -12.1685587518      -28.6368923427      109.5841031968  LPSA12    32             23.0000000000
     13217       428  BGLCNA    HT1           -12.6317386776      -28.1422996352      108.6281101354  LPSA12    32             23.0000000000
     13218       428  BGLCNA    HT2           -12.9954004159      -28.9107685110      110.1898124037  LPSA12    32             23.0000000000
     13219       428  BGLCNA    HT3           -11.5669949215      -29.5383213744      109.3122359934  LPSA12    32             23.0000000000
     13220       428  BGLCNA    C3            -11.5702959013      -24.1903759918      110.8930231790  LPSA12    32             23.0000000000
     13221       428  BGLCNA    H3            -12.4607468430      -23.8333292719      110.4606187373  LPSA12    32             23.0000000000
     13222       428  BGLCNA    O3            -11.9259749648      -24.9407832174      112.0657798240  LPSA12    32             23.0000000000
     13223       428  BGLCNA    C4            -10.6879849993      -23.0040865928      111.1707572500  LPSA12    32             23.0000000000
     13224       428  BGLCNA    H4             -9.7012744582      -23.4032893529      111.5318289610  LPSA12    32             23.0000000000
     13225       428  BGLCNA    O4            -11.2007395225      -22.2087357374      112.2070236435  LPSA12    32             23.0000000000
     13226       428  BGLCNA    HO4           -10.8646368953      -22.4761161352      113.0745323218  LPSA12    32             23.0000000000
     13227       428  BGLCNA    C6             -9.7638348732      -20.8895588406      110.0229508171  LPSA12    32             23.0000000000
     13228       428  BGLCNA    H61           -10.2617087647      -20.1185909153      110.7194343748  LPSA12    32             23.0000000000
     13229       428  BGLCNA    H62            -8.7666391915      -21.1227607200      110.5717638480  LPSA12    32             23.0000000000
     13230       428  BGLCNA    O6             -9.6075726071      -20.2536947780      108.7709294272  LPSA12    32             23.0000000000
     13231       428  BGLCNA    HO6           -10.4356663406      -20.3561635372      108.2360311317  LPSA12    32             23.0000000000
     13232       429  AGAL      C1            -13.1807195476      -24.5489418978      112.6842874521  LPSA12    33             24.0000000000
     13233       429  AGAL      H1            -13.2395720277      -23.4611819501      112.5979959475  LPSA12    33             24.0000000000
     13234       429  AGAL      C5            -14.2891172155      -26.5944072424      112.2149219831  LPSA12    33             24.0000000000
     13235       429  AGAL      H5            -13.2764099558      -26.8805463861      111.8792915250  LPSA12    33             24.0000000000
     13236       429  AGAL      O5            -14.3442025441      -25.1900849855      112.0726784748  LPSA12    33             24.0000000000
     13237       429  AGAL      C2            -13.1126709869      -24.9780873824      114.1482787662  LPSA12    33             24.0000000000
     13238       429  AGAL      H2            -14.1634148296      -24.7438073751      114.5751854976  LPSA12    33             24.0000000000
     13239       429  AGAL      O2            -12.2510632204      -24.1005637892      114.8486222260  LPSA12    33             24.0000000000
     13240       429  AGAL      C3            -13.0839086046      -26.4792322006      114.2945545625  LPSA12    33             24.0000000000
     13241       429  AGAL      H3            -12.1832340216      -26.9144112687      113.7405815065  LPSA12    33             24.0000000000
     13242       429  AGAL      O3            -12.8405488319      -26.9168017000      115.5672660328  LPSA12    33             24.0000000000
     13243       429  AGAL      HO3           -13.3924217105      -26.5776830311      116.2400186851  LPSA12    33             24.0000000000
     13244       429  AGAL      C4            -14.3115178463      -27.1020721379      113.6708488317  LPSA12    33             24.0000000000
     13245       429  AGAL      H4            -14.2477854169      -28.1969634671      113.6729875792  LPSA12    33             24.0000000000
     13246       429  AGAL      O4            -15.6030819525      -26.7931677807      114.2435538900  LPSA12    33             24.0000000000
     13247       429  AGAL      HO4           -15.5634739895      -26.1159643227      114.9085525172  LPSA12    33             24.0000000000
     13248       429  AGAL      C6            -15.2640877585      -27.2958850948      111.2992528405  LPSA12    33             24.0000000000
     13249       429  AGAL      H61           -14.9339254699      -27.0159727125      110.2783408757  LPSA12    33             24.0000000000
     13250       429  AGAL      H62           -15.2853560748      -28.4011095642      111.3458027743  LPSA12    33             24.0000000000
     13251       429  AGAL      O6            -16.6150940905      -26.9754996481      111.4129476537  LPSA12    33             24.0000000000
     13252       429  AGAL      HO6           -16.8880774802      -26.2113031679      110.8444757795  LPSA12    33             24.0000000000
     13253       430  ARHM      C1            -12.7883156991      -23.5571874712      116.0109133884  LPSA12    34             25.0000000000
     13254       430  ARHM      H1            -13.2885426843      -24.3140938105      116.6389743656  LPSA12    34             25.0000000000
     13255       430  ARHM      C5            -13.3540524553      -21.4012055278      115.0727799907  LPSA12    34             25.0000000000
     13256       430  ARHM      H5            -13.0683323579      -21.7881141006      114.0209633333  LPSA12    34             25.0000000000
     13257       430  ARHM      O5            -13.8025482830      -22.5386014575      115.8926868953  LPSA12    34             25.0000000000
     13258       430  ARHM      C2            -11.5991742446      -23.0243766669      116.7601555753  LPSA12    34             25.0000000000
     13259       430  ARHM      H2            -10.7320318631      -23.7306323553      116.8710959342  LPSA12    34             25.0000000000
     13260       430  ARHM      O2            -11.8913010518      -22.5658887356      118.1592972339  LPSA12    34             25.0000000000
     13261       430  ARHM      C3            -11.0584805516      -21.8227450563      115.9988665506  LPSA12    34             25.0000000000
     13262       430  ARHM      H3            -10.7716027544      -22.0970653131      114.9724172480  LPSA12    34             25.0000000000
     13263       430  ARHM      O3             -9.9078925207      -21.1692808590      116.5878695042  LPSA12    34             25.0000000000
     13264       430  ARHM      HO3            -9.2622799830      -20.8690424917      115.9559434517  LPSA12    34             25.0000000000
     13265       430  ARHM      C4            -12.1368135109      -20.7231149988      115.7987835878  LPSA12    34             25.0000000000
     13266       430  ARHM      H4            -12.6002158741      -20.4119214547      116.7495315617  LPSA12    34             25.0000000000
     13267       430  ARHM      O4            -11.6616781199      -19.6095585507      115.1362621200  LPSA12    34             25.0000000000
     13268       430  ARHM      HO4           -11.1287505141      -19.0488064818      115.6953140327  LPSA12    34             25.0000000000
     13269       430  ARHM      C6            -14.5086325336      -20.3616020974      114.8413279703  LPSA12    34             25.0000000000
     13270       430  ARHM      H61           -14.8743793091      -19.8673161820      115.7172490283  LPSA12    34             25.0000000000
     13271       430  ARHM      H62           -14.0466266030      -19.4611659199      114.3996926230  LPSA12    34             25.0000000000
     13272       430  ARHM      H63           -15.3228838923      -20.6684163172      114.1590834060  LPSA12    34             25.0000000000
     13273       431  ARHM      C1            -12.4387494628      -23.5323281025      119.0795908573  LPSA12    35             26.0000000000
     13274       431  ARHM      H1            -11.9198931118      -24.5599294656      118.8787348947  LPSA12    35             26.0000000000
     13275       431  ARHM      C5            -14.6106585940      -22.4560705847      119.2408916176  LPSA12    35             26.0000000000
     13276       431  ARHM      H5            -14.2706824536      -21.6027957835      118.5254732223  LPSA12    35             26.0000000000
     13277       431  ARHM      O5            -13.9090988016      -23.7200200083      118.9290334222  LPSA12    35             26.0000000000
     13278       431  ARHM      C2            -12.1250221811      -23.1185378847      120.5365485050  LPSA12    35             26.0000000000
     13279       431  ARHM      H2            -11.0123608050      -23.0870242921      120.7134209997  LPSA12    35             26.0000000000
     13280       431  ARHM      O2            -12.6252704747      -24.0592084499      121.4126203716  LPSA12    35             26.0000000000
     13281       431  ARHM      C3            -12.7973844822      -21.7683350657      120.8720061906  LPSA12    35             26.0000000000
     13282       431  ARHM      H3            -12.3623917499      -21.0171533814      120.1344793452  LPSA12    35             26.0000000000
     13283       431  ARHM      O3            -12.4239610808      -21.3078894418      122.1540075829  LPSA12    35             26.0000000000
     13284       431  ARHM      HO3           -12.3065954827      -22.0673521148      122.7288731339  LPSA12    35             26.0000000000
     13285       431  ARHM      C4            -14.2781655704      -21.9476063756      120.6788917534  LPSA12    35             26.0000000000
     13286       431  ARHM      H4            -14.7315615245      -22.7444442015      121.3307119103  LPSA12    35             26.0000000000
     13287       431  ARHM      O4            -14.8841050324      -20.6690568493      120.9693790153  LPSA12    35             26.0000000000
     13288       431  ARHM      HO4           -14.4174790227      -19.9044546502      120.5581709812  LPSA12    35             26.0000000000
     13289       431  ARHM      C6            -16.1258052115      -22.5958581970      118.8642347863  LPSA12    35             26.0000000000
     13290       431  ARHM      H61           -16.2574081070      -22.7224024927      117.7433556958  LPSA12    35             26.0000000000
     13291       431  ARHM      H62           -16.4142789049      -23.4760724232      119.4176110492  LPSA12    35             26.0000000000
     13292       431  ARHM      H63           -16.6045060488      -21.5941381542      119.0633705917  LPSA12    35             26.0000000000
     13293       432  BMANNA    C1            -11.9690512491      -25.2906784046      121.4471464502  LPSA12    36             27.0000000000
     13294       432  BMANNA    H1            -10.9132903957      -25.1992962611      121.0972061898  LPSA12    36             27.0000000000
     13295       432  BMANNA    C5            -11.6346303645      -27.5772225402      120.7299884793  LPSA12    36             27.0000000000
     13296       432  BMANNA    H5            -10.6227942012      -27.2788456955      120.4610684421  LPSA12    36             27.0000000000
     13297       432  BMANNA    O5            -12.4975799112      -26.3972939940      120.6641532654  LPSA12    36             27.0000000000
     13298       432  BMANNA    C2            -11.9093882195      -25.7617229455      122.8920138725  LPSA12    36             27.0000000000
     13299       432  BMANNA    H2            -11.4223173683      -24.9555774658      123.4719477421  LPSA12    36             27.0000000000
     13300       432  BMANNA    N             -13.2533141444      -25.9440740628      123.4395449790  LPSA12    36             27.0000000000
     13301       432  BMANNA    HN            -13.9593431539      -26.3819630526      122.8746519580  LPSA12    36             27.0000000000
     13302       432  BMANNA    C             -13.4860900331      -25.8158272791      124.7737151700  LPSA12    36             27.0000000000
     13303       432  BMANNA    O             -12.6899866649      -25.3946675239      125.6190347561  LPSA12    36             27.0000000000
     13304       432  BMANNA    CT            -14.7998999696      -26.2560937242      125.3570716528  LPSA12    36             27.0000000000
     13305       432  BMANNA    HT1           -15.1378524539      -27.1813594805      124.8802869227  LPSA12    36             27.0000000000
     13306       432  BMANNA    HT2           -15.6404644987      -25.5290775324      125.1731404614  LPSA12    36             27.0000000000
     13307       432  BMANNA    HT3           -14.8300915714      -26.3696214116      126.4547536948  LPSA12    36             27.0000000000
     13308       432  BMANNA    C3            -11.0660149812      -27.0079698531      122.9763638711  LPSA12    36             27.0000000000
     13309       432  BMANNA    H3            -10.0416890803      -26.8023503768      122.6403873786  LPSA12    36             27.0000000000
     13310       432  BMANNA    O3            -10.9215488435      -27.4794039038      124.3414054450  LPSA12    36             27.0000000000
     13311       432  BMANNA    HO3           -10.0475260379      -27.4699677507      124.7171830083  LPSA12    36             27.0000000000
     13312       432  BMANNA    C4            -11.5989604344      -28.0908179360      122.1146940524  LPSA12    36             27.0000000000
     13313       432  BMANNA    H4            -12.5663820750      -28.4160763170      122.4263894750  LPSA12    36             27.0000000000
     13314       432  BMANNA    O4            -10.8097579934      -29.2742822564      122.2172873890  LPSA12    36             27.0000000000
     13315       432  BMANNA    HO4           -10.8809314439      -29.3849261029      123.1985163392  LPSA12    36             27.0000000000
     13316       432  BMANNA    C6            -12.1033537050      -28.5679147861      119.7412642597  LPSA12    36             27.0000000000
     13317       432  BMANNA    H61           -12.0391147259      -28.1745584616      118.6946701192  LPSA12    36             27.0000000000
     13318       432  BMANNA    H62           -11.3216790642      -29.3330192999      119.7045442506  LPSA12    36             27.0000000000
     13319       432  BMANNA    O6            -13.4178726037      -29.1329076741      120.0914698020  LPSA12    36             27.0000000000
     13320       432  BMANNA    HO6           -13.2317558134      -29.8981808088      120.6476247167  LPSA12    36             27.0000000000
     13321       433  ECLIPA    HB6S          -28.1039399817       -0.6694949999       20.4612168218  LPSA13    1               0.0000000000
     13322       433  ECLIPA    OB6           -27.3537436550       -2.0586209227       21.7140249152  LPSA13    1               0.0000000000
     13323       433  ECLIPA    CB6           -27.1331167528       -1.0084964283       20.7042159014  LPSA13    1               0.0000000000
     13324       433  ECLIPA    HB6R          -26.4252962351       -0.2794726043       21.0541931349  LPSA13    1               0.0000000000
     13325       433  ECLIPA    CB5           -26.4254629590       -1.5670920483       19.3988764877  LPSA13    1               0.0000000000
     13326       433  ECLIPA    OB5           -27.2876742219       -2.6970698822       18.9716901872  LPSA13    1               0.0000000000
     13327       433  ECLIPA    HB5           -25.4736602568       -1.9848697025       19.7771798410  LPSA13    1               0.0000000000
     13328       433  ECLIPA    CB1           -26.7493707497       -3.2995752676       17.7717324898  LPSA13    1               0.0000000000
     13329       433  ECLIPA    HB1           -25.7214194481       -3.7041389264       17.9003641080  LPSA13    1               0.0000000000
     13330       433  ECLIPA    OA6           -27.5871663830       -4.3214389266       17.3217246577  LPSA13    1               0.0000000000
     13331       433  ECLIPA    CA6           -29.0061854220       -4.2420557354       17.5745106853  LPSA13    1               0.0000000000
     13332       433  ECLIPA    HA6R          -29.2737596441       -3.1761510582       17.7226451425  LPSA13    1               0.0000000000
     13333       433  ECLIPA    HA6S          -29.2448100311       -4.9567170340       18.4598965841  LPSA13    1               0.0000000000
     13334       433  ECLIPA    CB4           -26.2660573861       -0.4774115454       18.3206521937  LPSA13    1               0.0000000000
     13335       433  ECLIPA    HB4           -27.2500509679       -0.0685518613       18.0085584641  LPSA13    1               0.0000000000
     13336       433  ECLIPA    OB4           -25.2788771311        0.4024589671       18.9017319965  LPSA13    1               0.0000000000
     13337       433  ECLIPA    PB            -25.7008006816        1.8977673472       19.3234616795  LPSA13    1               0.0000000000
     13338       433  ECLIPA    OPB4          -24.8605866742        2.2742860808       20.5579515876  LPSA13    1               0.0000000000
     13339       433  ECLIPA    OPB3          -27.1982460207        1.6976926227       19.6614545037  LPSA13    1               0.0000000000
     13340       433  ECLIPA    OPB2          -25.5265566629        2.7865079961       18.0829495795  LPSA13    1               0.0000000000
     13341       433  ECLIPA    CB3           -25.7103812424       -1.1776388088       17.0955893951  LPSA13    1               0.0000000000
     13342       433  ECLIPA    OB3           -25.5708041708       -0.3623394241       15.9186528231  LPSA13    1               0.0000000000
     13343       433  ECLIPA    HB3           -24.7800579918       -1.7799785557       17.3284540628  LPSA13    1               0.0000000000
     13344       433  ECLIPA    C71           -24.4361492998        0.2109454932       15.6929469039  LPSA13    1               0.0000000000
     13345       433  ECLIPA    O71           -23.4074348007        0.0238722001       16.3832172580  LPSA13    1               0.0000000000
     13346       433  ECLIPA    C72           -24.5585766316        0.9861135626       14.3548430386  LPSA13    1               0.0000000000
     13347       433  ECLIPA    H72R          -24.8506660752        0.2821469935       13.5774555414  LPSA13    1               0.0000000000
     13348       433  ECLIPA    H72S          -23.5534201175        1.5488880411       14.1464415926  LPSA13    1               0.0000000000
     13349       433  ECLIPA    CB2           -26.6822017474       -2.2969111220       16.6720734084  LPSA13    1               0.0000000000
     13350       433  ECLIPA    HB2           -27.7328916080       -1.7744034748       16.5298168153  LPSA13    1               0.0000000000
     13351       433  ECLIPA    NB2           -26.2399632146       -3.0151830523       15.4577284722  LPSA13    1               0.0000000000
     13352       433  ECLIPA    HNB2          -25.5944331530       -3.7649055402       15.5965609326  LPSA13    1               0.0000000000
     13353       433  ECLIPA    CA4           -29.1396870160       -5.9945773595       15.7929312798  LPSA13    1               0.0000000000
     13354       433  ECLIPA    HA4           -28.0793714816       -5.7990792323       15.4903430209  LPSA13    1               0.0000000000
     13355       433  ECLIPA    OA4           -29.1728512246       -6.9590385496       16.8012065728  LPSA13    1               0.0000000000
     13356       433  ECLIPA    HOA4          -28.8389070324       -6.6477035238       17.5928838569  LPSA13    1               0.0000000000
     13357       433  ECLIPA    CA5           -29.7176356135       -4.7635366654       16.3547806008  LPSA13    1               0.0000000000
     13358       433  ECLIPA    HA5           -30.8617448616       -4.7640629696       16.5880746347  LPSA13    1               0.0000000000
     13359       433  ECLIPA    OA5           -29.5799582496       -3.7308430868       15.3689671688  LPSA13    1               0.0000000000
     13360       433  ECLIPA    CA1           -30.2462665322       -4.0939907114       14.1076640156  LPSA13    1               0.0000000000
     13361       433  ECLIPA    HA1           -29.7523921732       -3.3609527430       13.4118188108  LPSA13    1               0.0000000000
     13362       433  ECLIPA    OA1           -31.6415311579       -3.8653097693       14.1359876212  LPSA13    1               0.0000000000
     13363       433  ECLIPA    OPA2          -32.9174956512       -2.9638379081       15.9734101064  LPSA13    1               0.0000000000
     13364       433  ECLIPA    OPA3          -31.2145000350       -1.4497240619       14.8300177673  LPSA13    1               0.0000000000
     13365       433  ECLIPA    OPA4          -33.2805532444       -2.0659963971       13.6615320840  LPSA13    1               0.0000000000
     13366       433  ECLIPA    PA            -32.2554297108       -2.5196397291       14.6765383084  LPSA13    1               0.0000000000
     13367       433  ECLIPA    CA3           -29.8302154923       -6.4680027255       14.5219348229  LPSA13    1               0.0000000000
     13368       433  ECLIPA    HA3           -30.9334115573       -6.7540173946       14.7377032538  LPSA13    1               0.0000000000
     13369       433  ECLIPA    OA3           -29.2334218519       -7.7230935429       14.2498111976  LPSA13    1               0.0000000000
     13370       433  ECLIPA    C31           -28.0851801593       -7.6976795382       13.5006246295  LPSA13    1               0.0000000000
     13371       433  ECLIPA    O31           -28.0108296669       -7.5486344637       12.2941239937  LPSA13    1               0.0000000000
     13372       433  ECLIPA    C32           -26.9683043822       -8.4091051407       14.2780289507  LPSA13    1               0.0000000000
     13373       433  ECLIPA    H32R          -26.6777193628       -9.3160912042       13.7149713840  LPSA13    1               0.0000000000
     13374       433  ECLIPA    H32S          -27.3182875848       -8.6725807763       15.2729523512  LPSA13    1               0.0000000000
     13375       433  ECLIPA    CA2           -29.6858570701       -5.3580437597       13.4984733916  LPSA13    1               0.0000000000
     13376       433  ECLIPA    HA2           -28.6181955050       -5.1460890231       13.3982259915  LPSA13    1               0.0000000000
     13377       433  ECLIPA    NA2           -30.3320260588       -5.6594884754       12.2035087571  LPSA13    1               0.0000000000
     13378       433  ECLIPA    HNA2          -30.6418340733       -6.5720122728       12.0865030408  LPSA13    1               0.0000000000
     13379       433  ECLIPA    C73           -25.5984214762        2.0763672781       14.3319064372  LPSA13    1               0.0000000000
     13380       433  ECLIPA    H73R          -25.5841844815        2.6933054170       15.2227416964  LPSA13    1               0.0000000000
     13381       433  ECLIPA    O73           -26.8858392579        1.4142630232       14.2644256719  LPSA13    1               0.0000000000
     13382       433  ECLIPA    C81           -28.0045142957        1.8660158596       14.8555734565  LPSA13    1               0.0000000000
     13383       433  ECLIPA    O81           -27.9163502870        2.8386586527       15.6690894779  LPSA13    1               0.0000000000
     13384       433  ECLIPA    C82           -29.2587900932        1.1240198574       14.3536111794  LPSA13    1               0.0000000000
     13385       433  ECLIPA    H82R          -30.1566341522        1.4737511102       14.8531840528  LPSA13    1               0.0000000000
     13386       433  ECLIPA    H82S          -29.1829771170        0.0267597342       14.5323473422  LPSA13    1               0.0000000000
     13387       433  ECLIPA    C83           -29.4113931870        1.3211639148       12.8301722806  LPSA13    1               0.0000000000
     13388       433  ECLIPA    H83R          -28.7406963734        0.5940297508       12.2351841548  LPSA13    1               0.0000000000
     13389       433  ECLIPA    H83S          -28.9851229025        2.2970675166       12.5911296392  LPSA13    1               0.0000000000
     13390       433  ECLIPA    C84           -30.8356024817        1.0472053532       12.3050927261  LPSA13    1               0.0000000000
     13391       433  ECLIPA    H84R          -31.4727021939        1.8978112686       12.5767117503  LPSA13    1               0.0000000000
     13392       433  ECLIPA    H84S          -31.0936648602        0.1038346317       12.7369555497  LPSA13    1               0.0000000000
     13393       433  ECLIPA    C85           -30.8395111664        0.8646887358       10.7695484051  LPSA13    1               0.0000000000
     13394       433  ECLIPA    H85R          -29.9726578627        0.2279892317       10.5503608829  LPSA13    1               0.0000000000
     13395       433  ECLIPA    H85S          -30.6339470615        1.8427586750       10.2367999955  LPSA13    1               0.0000000000
     13396       433  ECLIPA    C86           -32.1060752520        0.0944053514       10.3034592726  LPSA13    1               0.0000000000
     13397       433  ECLIPA    H86R          -32.9648963704        0.7776487651        9.9932223571  LPSA13    1               0.0000000000
     13398       433  ECLIPA    H86S          -32.4972201820       -0.5350800410       11.0807540114  LPSA13    1               0.0000000000
     13399       433  ECLIPA    C87           -31.7916176352       -0.9305729133        9.1601018854  LPSA13    1               0.0000000000
     13400       433  ECLIPA    H87R          -32.6950602168       -1.4157088824        8.8049419625  LPSA13    1               0.0000000000
     13401       433  ECLIPA    H87S          -31.1440597134       -1.7661580510        9.5406723883  LPSA13    1               0.0000000000
     13402       433  ECLIPA    C88           -31.0147055709       -0.2982388754        8.0318999685  LPSA13    1               0.0000000000
     13403       433  ECLIPA    H88R          -29.9335505295       -0.1293895820        8.3479828359  LPSA13    1               0.0000000000
     13404       433  ECLIPA    H88S          -31.3236818349        0.7822281932        7.9254521495  LPSA13    1               0.0000000000
     13405       433  ECLIPA    C89           -30.9794929075       -1.1335887502        6.7101000712  LPSA13    1               0.0000000000
     13406       433  ECLIPA    H89R          -31.2595517720       -2.1964007754        6.8746682686  LPSA13    1               0.0000000000
     13407       433  ECLIPA    H89S          -30.0198248303       -1.1750640301        6.2317001698  LPSA13    1               0.0000000000
     13408       433  ECLIPA    C810          -31.9404244810       -0.4744703188        5.7047246593  LPSA13    1               0.0000000000
     13409       433  ECLIPA    H810R         -31.8855580055        0.5861768268        6.0108430704  LPSA13    1               0.0000000000
     13410       433  ECLIPA    H810S         -32.9298734401       -0.8613495899        5.8554647029  LPSA13    1               0.0000000000
     13411       433  ECLIPA    C811          -31.5840055622       -0.6468966008        4.2179945741  LPSA13    1               0.0000000000
     13412       433  ECLIPA    H811R         -32.3496792231       -0.4961343315        3.5081125689  LPSA13    1               0.0000000000
     13413       433  ECLIPA    H811S         -31.1157820156       -1.7002638462        4.1819101877  LPSA13    1               0.0000000000
     13414       433  ECLIPA    C812          -30.3695233206        0.1647389214        3.7413673409  LPSA13    1               0.0000000000
     13415       433  ECLIPA    H812R         -30.1286175889       -0.1937263126        2.6403157337  LPSA13    1               0.0000000000
     13416       433  ECLIPA    H812S         -29.5219709922        0.1302178890        4.4144737196  LPSA13    1               0.0000000000
     13417       433  ECLIPA    C813          -30.6061800321        1.6849689286        3.6785234959  LPSA13    1               0.0000000000
     13418       433  ECLIPA    H813R         -31.4269038626        1.8452894723        2.9398073555  LPSA13    1               0.0000000000
     13419       433  ECLIPA    H813S         -30.9460665811        2.1830481885        4.6616087352  LPSA13    1               0.0000000000
     13420       433  ECLIPA    C814          -29.4237050052        2.4620892153        3.1377409857  LPSA13    1               0.0000000000
     13421       433  ECLIPA    H814R         -28.9188818606        2.0325064184        2.1719074593  LPSA13    1               0.0000000000
     13422       433  ECLIPA    H814S         -28.6522408860        2.5312077300        3.9166242729  LPSA13    1               0.0000000000
     13423       433  ECLIPA    H814T         -29.7156787939        3.5095175641        2.8964685373  LPSA13    1               0.0000000000
     13424       433  ECLIPA    C74           -25.6172149332        3.0523709078       13.1792855021  LPSA13    1               0.0000000000
     13425       433  ECLIPA    H74R          -24.7521753984        3.6865631903       12.9935747315  LPSA13    1               0.0000000000
     13426       433  ECLIPA    H74S          -26.5210259463        3.7677453569       13.3086690609  LPSA13    1               0.0000000000
     13427       433  ECLIPA    C75           -25.9776482445        2.3192629119       11.8151371119  LPSA13    1               0.0000000000
     13428       433  ECLIPA    H75R          -26.6145629501        3.0614169678       11.2107603889  LPSA13    1               0.0000000000
     13429       433  ECLIPA    H75S          -26.5968305246        1.4222402330       12.0082837783  LPSA13    1               0.0000000000
     13430       433  ECLIPA    C76           -24.7741235513        1.9035098594       10.9251453624  LPSA13    1               0.0000000000
     13431       433  ECLIPA    H76R          -24.3263363989        0.9657324079       11.3555905686  LPSA13    1               0.0000000000
     13432       433  ECLIPA    H76S          -23.8935861235        2.6699169257       10.9731137071  LPSA13    1               0.0000000000
     13433       433  ECLIPA    C77           -25.0433504707        1.6573484473        9.4191603634  LPSA13    1               0.0000000000
     13434       433  ECLIPA    H77R          -25.4109611870        2.5800011398        9.0408775908  LPSA13    1               0.0000000000
     13435       433  ECLIPA    H77S          -25.9223318191        0.9854682181        9.2852383479  LPSA13    1               0.0000000000
     13436       433  ECLIPA    C78           -23.7822307574        1.0132070196        8.8297405752  LPSA13    1               0.0000000000
     13437       433  ECLIPA    H78R          -22.9308997617        1.6094925952        9.1562620580  LPSA13    1               0.0000000000
     13438       433  ECLIPA    H78S          -23.7382746065        0.0000365978        9.3169442960  LPSA13    1               0.0000000000
     13439       433  ECLIPA    C79           -23.9225645412        0.6528082456        7.2570767761  LPSA13    1               0.0000000000
     13440       433  ECLIPA    H79R          -24.2146660652       -0.4391280469        7.1763205913  LPSA13    1               0.0000000000
     13441       433  ECLIPA    H79S          -22.9412844089        0.7741212803        6.7882549413  LPSA13    1               0.0000000000
     13442       433  ECLIPA    C710          -24.7392210992        1.6058362233        6.3785096220  LPSA13    1               0.0000000000
     13443       433  ECLIPA    H710R         -25.7514237135        1.6224910121        6.8460783027  LPSA13    1               0.0000000000
     13444       433  ECLIPA    H710S         -24.3327889029        2.5400044772        6.4843026416  LPSA13    1               0.0000000000
     13445       433  ECLIPA    C711          -24.8776590358        1.1574156286        4.9384125046  LPSA13    1               0.0000000000
     13446       433  ECLIPA    H711R         -23.8508738581        1.1560993106        4.5670708729  LPSA13    1               0.0000000000
     13447       433  ECLIPA    H711S         -25.3622439034        0.1480379738        4.9306188492  LPSA13    1               0.0000000000
     13448       433  ECLIPA    C712          -25.7772030223        2.1434968265        4.2148670498  LPSA13    1               0.0000000000
     13449       433  ECLIPA    H712R         -25.2961133872        3.1228975519        4.3130666899  LPSA13    1               0.0000000000
     13450       433  ECLIPA    H712S         -26.6753957101        2.2020037338        4.8522839389  LPSA13    1               0.0000000000
     13451       433  ECLIPA    C713          -26.1125435041        1.6635752927        2.7357390519  LPSA13    1               0.0000000000
     13452       433  ECLIPA    H713R         -26.6648458754        0.6934380708        2.8800411466  LPSA13    1               0.0000000000
     13453       433  ECLIPA    H713S         -26.7721918352        2.4885929164        2.2750064041  LPSA13    1               0.0000000000
     13454       433  ECLIPA    C714          -24.8285019411        1.6039916483        1.8879763961  LPSA13    1               0.0000000000
     13455       433  ECLIPA    H714R         -24.3840852685        2.6014531432        1.7626189762  LPSA13    1               0.0000000000
     13456       433  ECLIPA    H714S         -24.1531878790        0.8011634802        2.2081901572  LPSA13    1               0.0000000000
     13457       433  ECLIPA    H714T         -25.2281884347        1.3473972493        0.9249202435  LPSA13    1               0.0000000000
     13458       433  ECLIPA    C51           -26.5110215918       -2.5227022876       14.2380633031  LPSA13    1               0.0000000000
     13459       433  ECLIPA    O51           -27.4426131279       -1.6968277063       14.1304636378  LPSA13    1               0.0000000000
     13460       433  ECLIPA    C52           -25.6080338920       -2.9245272846       13.0157035712  LPSA13    1               0.0000000000
     13461       433  ECLIPA    H52R          -24.7226149156       -2.3170317194       12.8950255930  LPSA13    1               0.0000000000
     13462       433  ECLIPA    H52S          -25.3450220827       -3.9378761812       13.2222025935  LPSA13    1               0.0000000000
     13463       433  ECLIPA    C53           -26.5492774070       -2.9790631302       11.7526064304  LPSA13    1               0.0000000000
     13464       433  ECLIPA    H53R          -27.5855933256       -3.1740460389       12.0082431084  LPSA13    1               0.0000000000
     13465       433  ECLIPA    O53           -25.9241644479       -3.8989565633       10.8431816314  LPSA13    1               0.0000000000
     13466       433  ECLIPA    C61           -26.5815391296       -4.9972298342       10.5090573566  LPSA13    1               0.0000000000
     13467       433  ECLIPA    O61           -27.6776131306       -5.2969588327       10.8659713306  LPSA13    1               0.0000000000
     13468       433  ECLIPA    C62           -25.7049258876       -5.8431084000        9.5765835255  LPSA13    1               0.0000000000
     13469       433  ECLIPA    H62R          -24.9726331718       -6.3806730469       10.2152837125  LPSA13    1               0.0000000000
     13470       433  ECLIPA    H62S          -25.0422497340       -5.1253599224        9.0470049452  LPSA13    1               0.0000000000
     13471       433  ECLIPA    C63           -26.5551151478       -6.7796783287        8.6803029234  LPSA13    1               0.0000000000
     13472       433  ECLIPA    H63R          -27.3838550394       -6.1736668997        8.2798705976  LPSA13    1               0.0000000000
     13473       433  ECLIPA    H63S          -27.0282245833       -7.6423276721        9.3252199642  LPSA13    1               0.0000000000
     13474       433  ECLIPA    C64           -25.8943241771       -7.4313680045        7.5279067597  LPSA13    1               0.0000000000
     13475       433  ECLIPA    H64R          -26.5731704419       -8.1643697347        6.9620099216  LPSA13    1               0.0000000000
     13476       433  ECLIPA    H64S          -24.9866084302       -7.9881328879        7.9657393466  LPSA13    1               0.0000000000
     13477       433  ECLIPA    C65           -25.3471670970       -6.3406415682        6.5414948800  LPSA13    1               0.0000000000
     13478       433  ECLIPA    H65R          -24.6582247948       -5.8048047457        7.2423230371  LPSA13    1               0.0000000000
     13479       433  ECLIPA    H65S          -26.1902323248       -5.7099159871        6.1828980290  LPSA13    1               0.0000000000
     13480       433  ECLIPA    C66           -24.6048638645       -6.8473953396        5.2222643966  LPSA13    1               0.0000000000
     13481       433  ECLIPA    H66R          -23.7433815388       -7.4311138996        5.5395647249  LPSA13    1               0.0000000000
     13482       433  ECLIPA    H66S          -24.2773285400       -5.8467622775        4.8113963288  LPSA13    1               0.0000000000
     13483       433  ECLIPA    C67           -25.4052834039       -7.5717992283        4.1696839457  LPSA13    1               0.0000000000
     13484       433  ECLIPA    H67R          -25.9934486114       -8.3961101505        4.5058181646  LPSA13    1               0.0000000000
     13485       433  ECLIPA    H67S          -24.7219869011       -7.9298686386        3.3478820057  LPSA13    1               0.0000000000
     13486       433  ECLIPA    C68           -26.4624803597       -6.7273638633        3.5077075145  LPSA13    1               0.0000000000
     13487       433  ECLIPA    H68R          -26.1559713589       -5.7758915008        3.0112508411  LPSA13    1               0.0000000000
     13488       433  ECLIPA    H68S          -27.1647068188       -6.5817131787        4.3087918325  LPSA13    1               0.0000000000
     13489       433  ECLIPA    C69           -27.0295995700       -7.4659058026        2.2963532923  LPSA13    1               0.0000000000
     13490       433  ECLIPA    H69R          -26.9757634914       -8.5715003310        2.3203210098  LPSA13    1               0.0000000000
     13491       433  ECLIPA    H69S          -26.3586927042       -7.2422167733        1.4693744207  LPSA13    1               0.0000000000
     13492       433  ECLIPA    C610          -28.4154768865       -7.0688570158        1.9396251084  LPSA13    1               0.0000000000
     13493       433  ECLIPA    H610R         -28.5421758396       -5.9576657630        2.0603347121  LPSA13    1               0.0000000000
     13494       433  ECLIPA    H610S         -29.1464156635       -7.5100657383        2.6933643884  LPSA13    1               0.0000000000
     13495       433  ECLIPA    C611          -28.8715580169       -7.5889992483        0.5312153135  LPSA13    1               0.0000000000
     13496       433  ECLIPA    H611R         -28.7837660098       -8.6921928987        0.5735373188  LPSA13    1               0.0000000000
     13497       433  ECLIPA    H611S         -29.9354910119       -7.5199790662        0.3609598123  LPSA13    1               0.0000000000
     13498       433  ECLIPA    C612          -28.1031997805       -6.8918062311       -0.5788949292  LPSA13    1               0.0000000000
     13499       433  ECLIPA    H612R         -28.4240518602       -5.8125575730       -0.6060949542  LPSA13    1               0.0000000000
     13500       433  ECLIPA    H612S         -27.0394004737       -6.8562302956       -0.3132441764  LPSA13    1               0.0000000000
     13501       433  ECLIPA    H612T         -28.2912489604       -7.3425566674       -1.5574606966  LPSA13    1               0.0000000000
     13502       433  ECLIPA    C54           -26.4558822624       -1.5538505673       11.1776054589  LPSA13    1               0.0000000000
     13503       433  ECLIPA    H54R          -25.3807399036       -1.3585454317       10.8869876633  LPSA13    1               0.0000000000
     13504       433  ECLIPA    H54S          -26.6787900792       -0.8078200220       11.9574517429  LPSA13    1               0.0000000000
     13505       433  ECLIPA    C55           -27.3348102126       -1.1751065547        9.9916770240  LPSA13    1               0.0000000000
     13506       433  ECLIPA    H55R          -27.3981245773       -0.0825911729        9.7856946516  LPSA13    1               0.0000000000
     13507       433  ECLIPA    H55S          -28.4002091809       -1.5203855758       10.2436295858  LPSA13    1               0.0000000000
     13508       433  ECLIPA    C56           -26.7048034802       -1.7510956160        8.7515486822  LPSA13    1               0.0000000000
     13509       433  ECLIPA    H56R          -26.6403382027       -2.8789025885        8.8382497819  LPSA13    1               0.0000000000
     13510       433  ECLIPA    H56S          -25.7550910847       -1.4050014705        8.4741334449  LPSA13    1               0.0000000000
     13511       433  ECLIPA    C57           -27.5762061982       -1.7157191702        7.4395707935  LPSA13    1               0.0000000000
     13512       433  ECLIPA    H57R          -27.9183088447       -0.7115801557        7.1827428724  LPSA13    1               0.0000000000
     13513       433  ECLIPA    H57S          -28.5131888016       -2.3066043015        7.5196553379  LPSA13    1               0.0000000000
     13514       433  ECLIPA    C58           -26.7944382125       -2.3822082669        6.2350750625  LPSA13    1               0.0000000000
     13515       433  ECLIPA    H58R          -25.7225734017       -2.0409146052        6.2095761879  LPSA13    1               0.0000000000
     13516       433  ECLIPA    H58S          -26.6404505681       -3.4584223179        6.5224540661  LPSA13    1               0.0000000000
     13517       433  ECLIPA    C59           -27.4600136363       -2.0644822013        4.8667186835  LPSA13    1               0.0000000000
     13518       433  ECLIPA    H59R          -27.5248470107       -0.9813386561        4.6589989540  LPSA13    1               0.0000000000
     13519       433  ECLIPA    H59S          -28.4520414008       -2.5077410779        5.0825555512  LPSA13    1               0.0000000000
     13520       433  ECLIPA    C510          -26.6348357573       -2.5839377044        3.6752379292  LPSA13    1               0.0000000000
     13521       433  ECLIPA    H510R         -26.2276477784       -3.6462362580        3.7937959224  LPSA13    1               0.0000000000
     13522       433  ECLIPA    H510S         -25.6942359734       -1.9011433439        3.4613250382  LPSA13    1               0.0000000000
     13523       433  ECLIPA    C511          -27.3358465497       -2.5668019716        2.3004848829  LPSA13    1               0.0000000000
     13524       433  ECLIPA    H511R         -27.9781957570       -3.4677158365        2.2679211996  LPSA13    1               0.0000000000
     13525       433  ECLIPA    H511S         -28.0446598573       -1.6948872436        2.1940961976  LPSA13    1               0.0000000000
     13526       433  ECLIPA    C512          -26.4268440146       -2.6428283335        1.0189424135  LPSA13    1               0.0000000000
     13527       433  ECLIPA    H512R         -27.0283447248       -2.3968896389        0.0815295424  LPSA13    1               0.0000000000
     13528       433  ECLIPA    H512S         -25.6016044246       -1.9261214868        1.1129704346  LPSA13    1               0.0000000000
     13529       433  ECLIPA    C513          -25.9076905263       -4.1051941795        0.6457389972  LPSA13    1               0.0000000000
     13530       433  ECLIPA    H513R         -26.7726295341       -4.8243660819        0.5010832175  LPSA13    1               0.0000000000
     13531       433  ECLIPA    H513S         -25.3455745434       -4.4939760390        1.4088770719  LPSA13    1               0.0000000000
     13532       433  ECLIPA    C514          -25.1554348597       -4.0861865220       -0.6567184026  LPSA13    1               0.0000000000
     13533       433  ECLIPA    H514R         -24.3498533529       -3.3528266532       -0.6273993866  LPSA13    1               0.0000000000
     13534       433  ECLIPA    H514S         -24.6663237915       -5.0617368727       -0.7024724270  LPSA13    1               0.0000000000
     13535       433  ECLIPA    H514T         -25.8564142892       -3.8682643926       -1.5427815912  LPSA13    1               0.0000000000
     13536       433  ECLIPA    C33           -25.6001443368       -7.6150615975       14.4880792826  LPSA13    1               0.0000000000
     13537       433  ECLIPA    H33R          -24.8361211241       -8.3639263892       14.8828993596  LPSA13    1               0.0000000000
     13538       433  ECLIPA    O33           -25.7485255431       -6.6059869182       15.4699768821  LPSA13    1               0.0000000000
     13539       433  ECLIPA    HO33          -25.8017729506       -7.0135803530       16.2926205744  LPSA13    1               0.0000000000
     13540       433  ECLIPA    C34           -24.9758187086       -6.9644038871       13.2255459338  LPSA13    1               0.0000000000
     13541       433  ECLIPA    H34R          -25.6774295583       -6.2547468382       12.8010908313  LPSA13    1               0.0000000000
     13542       433  ECLIPA    H34S          -24.8694351879       -7.7458640266       12.3772221142  LPSA13    1               0.0000000000
     13543       433  ECLIPA    C35           -23.6318431145       -6.2405019508       13.4256256262  LPSA13    1               0.0000000000
     13544       433  ECLIPA    H35R          -22.8864800413       -6.9848511417       13.6963698038  LPSA13    1               0.0000000000
     13545       433  ECLIPA    H35S          -23.7301750594       -5.5422110713       14.2668166019  LPSA13    1               0.0000000000
     13546       433  ECLIPA    C36           -23.0071939047       -5.5671105839       12.1865608177  LPSA13    1               0.0000000000
     13547       433  ECLIPA    H36R          -23.9771487672       -5.2614499038       11.7430812241  LPSA13    1               0.0000000000
     13548       433  ECLIPA    H36S          -22.4451880854       -6.2551554162       11.4785220412  LPSA13    1               0.0000000000
     13549       433  ECLIPA    C37           -22.2950043356       -4.2712239960       12.5255831563  LPSA13    1               0.0000000000
     13550       433  ECLIPA    H37R          -21.1714736023       -4.6064075540       12.6765215637  LPSA13    1               0.0000000000
     13551       433  ECLIPA    H37S          -22.5926326896       -3.8716693210       13.5128993321  LPSA13    1               0.0000000000
     13552       433  ECLIPA    C38           -22.3120382972       -3.1674269504       11.4317274953  LPSA13    1               0.0000000000
     13553       433  ECLIPA    H38R          -23.2523361159       -2.5919556505       11.4067421357  LPSA13    1               0.0000000000
     13554       433  ECLIPA    H38S          -21.5605185455       -2.4114523193       11.7230999881  LPSA13    1               0.0000000000
     13555       433  ECLIPA    C39           -22.1094173122       -3.7573863071       10.0213367345  LPSA13    1               0.0000000000
     13556       433  ECLIPA    H39R          -22.8675737590       -4.5582620680        9.8128797222  LPSA13    1               0.0000000000
     13557       433  ECLIPA    H39S          -21.0401171503       -4.0943160929        9.9697980947  LPSA13    1               0.0000000000
     13558       433  ECLIPA    C310          -22.1651884131       -2.7653853096        8.8401719124  LPSA13    1               0.0000000000
     13559       433  ECLIPA    H310R         -21.2728334960       -2.0694179621        9.0626900142  LPSA13    1               0.0000000000
     13560       433  ECLIPA    H310S         -23.1196556881       -2.1645946141        8.8945759064  LPSA13    1               0.0000000000
     13561       433  ECLIPA    C311          -22.3404327394       -3.4575369935        7.5676235846  LPSA13    1               0.0000000000
     13562       433  ECLIPA    H311R         -21.7401321471       -4.4025486618        7.5507520616  LPSA13    1               0.0000000000
     13563       433  ECLIPA    H311S         -23.4006128467       -3.7430676981        7.2851462164  LPSA13    1               0.0000000000
     13564       433  ECLIPA    C312          -21.9746579651       -2.6115607499        6.3280121142  LPSA13    1               0.0000000000
     13565       433  ECLIPA    H312R         -22.2473501777       -1.5376285610        6.4861373960  LPSA13    1               0.0000000000
     13566       433  ECLIPA    H312S         -20.8679818664       -2.6889448679        6.1820758986  LPSA13    1               0.0000000000
     13567       433  ECLIPA    C313          -22.6227818523       -3.0936758012        4.9895779706  LPSA13    1               0.0000000000
     13568       433  ECLIPA    H313R         -22.1020512340       -3.9770632308        4.7825120466  LPSA13    1               0.0000000000
     13569       433  ECLIPA    H313S         -23.7068472689       -3.3471862029        5.1572698764  LPSA13    1               0.0000000000
     13570       433  ECLIPA    C314          -22.5227263623       -2.1813605928        3.8116661598  LPSA13    1               0.0000000000
     13571       433  ECLIPA    H314R         -21.4396764860       -1.9613629757        3.6067793993  LPSA13    1               0.0000000000
     13572       433  ECLIPA    H314S         -22.9763690774       -2.5423900913        2.8849361441  LPSA13    1               0.0000000000
     13573       433  ECLIPA    H314T         -22.9982613516       -1.1648119447        4.0446347774  LPSA13    1               0.0000000000
     13574       433  ECLIPA    C11           -30.6816753825       -4.7880287095       11.2900808200  LPSA13    1               0.0000000000
     13575       433  ECLIPA    O11           -30.3109610469       -3.6303502098       11.1394597694  LPSA13    1               0.0000000000
     13576       433  ECLIPA    C12           -31.7589113345       -5.2939781591       10.2853014675  LPSA13    1               0.0000000000
     13577       433  ECLIPA    H12R          -32.7538104078       -4.8203752754       10.4852637814  LPSA13    1               0.0000000000
     13578       433  ECLIPA    H12S          -31.8146582448       -6.3895323399       10.5222272274  LPSA13    1               0.0000000000
     13579       433  ECLIPA    C13           -31.4211815807       -5.1161970237        8.8110583416  LPSA13    1               0.0000000000
     13580       433  ECLIPA    H13R          -30.9698444610       -4.0778458559        8.5839874118  LPSA13    1               0.0000000000
     13581       433  ECLIPA    O13           -32.7017533141       -5.1833049934        8.1311342176  LPSA13    1               0.0000000000
     13582       433  ECLIPA    HO13          -32.6505372288       -4.7363256573        7.3064966676  LPSA13    1               0.0000000000
     13583       433  ECLIPA    C14           -30.4087069475       -6.1806709815        8.4581579993  LPSA13    1               0.0000000000
     13584       433  ECLIPA    H14R          -30.6325657037       -7.1864711728        8.9706443184  LPSA13    1               0.0000000000
     13585       433  ECLIPA    H14S          -29.4074951770       -5.7822664517        8.7243868424  LPSA13    1               0.0000000000
     13586       433  ECLIPA    C15           -30.3313886609       -6.4970943846        6.9526486677  LPSA13    1               0.0000000000
     13587       433  ECLIPA    H15R          -31.3080306584       -6.7082690419        6.5500123177  LPSA13    1               0.0000000000
     13588       433  ECLIPA    H15S          -29.6608687568       -7.3547644867        6.8782608049  LPSA13    1               0.0000000000
     13589       433  ECLIPA    C16           -29.7769745665       -5.2854249436        6.1622847334  LPSA13    1               0.0000000000
     13590       433  ECLIPA    H16R          -28.6345970613       -5.2019718520        6.2733383262  LPSA13    1               0.0000000000
     13591       433  ECLIPA    H16S          -30.0576047735       -4.3744012029        6.7182496574  LPSA13    1               0.0000000000
     13592       433  ECLIPA    C17           -30.1431602805       -5.3152097474        4.6801229578  LPSA13    1               0.0000000000
     13593       433  ECLIPA    H17R          -29.9378131489       -6.3997355774        4.4246758429  LPSA13    1               0.0000000000
     13594       433  ECLIPA    H17S          -29.5222008132       -4.7176134665        4.0046542873  LPSA13    1               0.0000000000
     13595       433  ECLIPA    C18           -31.5851767086       -4.9531546658        4.4504458171  LPSA13    1               0.0000000000
     13596       433  ECLIPA    H18R          -32.0862944193       -5.6331441195        5.0865821920  LPSA13    1               0.0000000000
     13597       433  ECLIPA    H18S          -31.7284626348       -3.8828749628        4.7749867078  LPSA13    1               0.0000000000
     13598       433  ECLIPA    C19           -32.0001949195       -5.1182747059        3.0097966450  LPSA13    1               0.0000000000
     13599       433  ECLIPA    H19R          -33.0670776872       -4.9670847352        2.9245509529  LPSA13    1               0.0000000000
     13600       433  ECLIPA    H19S          -31.7222299876       -6.1541177419        2.6238151240  LPSA13    1               0.0000000000
     13601       433  ECLIPA    C110          -31.3540938552       -4.0409126387        2.1045801788  LPSA13    1               0.0000000000
     13602       433  ECLIPA    H110R         -31.4686899595       -3.0093841672        2.4416701971  LPSA13    1               0.0000000000
     13603       433  ECLIPA    H110S         -30.2917515672       -4.3659361937        2.1583327743  LPSA13    1               0.0000000000
     13604       433  ECLIPA    C111          -31.8644155164       -4.2109152378        0.7563571155  LPSA13    1               0.0000000000
     13605       433  ECLIPA    H111R         -31.9332727717       -5.2766181464        0.3999767799  LPSA13    1               0.0000000000
     13606       433  ECLIPA    H111S         -32.8738715249       -3.8934732649        0.7977177860  LPSA13    1               0.0000000000
     13607       433  ECLIPA    C112          -31.1497697694       -3.3460085880       -0.2937360943  LPSA13    1               0.0000000000
     13608       433  ECLIPA    H112R         -31.2838145018       -2.3468083397        0.1973446929  LPSA13    1               0.0000000000
     13609       433  ECLIPA    H112S         -30.0643850661       -3.4491484875       -0.2177998937  LPSA13    1               0.0000000000
     13610       433  ECLIPA    C113          -31.5307914522       -3.6727206664       -1.7468031795  LPSA13    1               0.0000000000
     13611       433  ECLIPA    H113R         -31.1553988215       -4.6958457200       -1.9802017524  LPSA13    1               0.0000000000
     13612       433  ECLIPA    H113S         -32.6161330510       -3.7675166770       -1.8531093719  LPSA13    1               0.0000000000
     13613       433  ECLIPA    C114          -31.1851091256       -2.6872814802       -2.8344928043  LPSA13    1               0.0000000000
     13614       433  ECLIPA    H114R         -31.4502652439       -1.6348235678       -2.7829422503  LPSA13    1               0.0000000000
     13615       433  ECLIPA    H114S         -30.0707224806       -2.6839914687       -2.9951089580  LPSA13    1               0.0000000000
     13616       433  ECLIPA    H114T         -31.7758065675       -2.9276065848       -3.7399523103  LPSA13    1               0.0000000000
     13617       434  AKDO      C1            -25.1363740566       -2.2486683297       22.4410509549  LPSA13    2               0.0000000000
     13618       434  AKDO      O11           -24.3437596342       -1.2464214528       22.4913720772  LPSA13    2               0.0000000000
     13619       434  AKDO      O12           -24.9233343381       -3.4401904151       22.0800765534  LPSA13    2               0.0000000000
     13620       434  AKDO      C2            -26.5717097551       -1.9591219898       22.8913181237  LPSA13    2               0.0000000000
     13621       434  AKDO      C6            -27.9294373570       -0.2483317638       23.8039205188  LPSA13    2               0.0000000000
     13622       434  AKDO      H6            -28.5529806819       -0.2698625299       22.9487387861  LPSA13    2               0.0000000000
     13623       434  AKDO      O6            -26.5602064818       -0.6793382798       23.4267274814  LPSA13    2               0.0000000000
     13624       434  AKDO      C3            -27.0435109287       -2.8676935954       23.9587385105  LPSA13    2               0.0000000000
     13625       434  AKDO      H31           -26.4056298230       -2.9495049574       24.7868435866  LPSA13    2               0.0000000000
     13626       434  AKDO      H32           -27.1933953140       -3.9195577388       23.4151264596  LPSA13    2               0.0000000000
     13627       434  AKDO      C4            -28.4568103487       -2.4794676944       24.3842593775  LPSA13    2               0.0000000000
     13628       434  AKDO      H4            -29.1420498070       -2.4259049631       23.5563617270  LPSA13    2               0.0000000000
     13629       434  AKDO      O4            -28.9371715413       -3.4187667496       25.3355834555  LPSA13    2               0.0000000000
     13630       434  AKDO      C5            -28.5387901307       -1.1251355544       24.9292437177  LPSA13    2               0.0000000000
     13631       434  AKDO      H5            -29.6083053586       -0.7962024014       25.0107888161  LPSA13    2               0.0000000000
     13632       434  AKDO      O5            -27.7742419782       -1.0988394417       26.2083878813  LPSA13    2               0.0000000000
     13633       434  AKDO      C7            -27.9925842399        1.2984916290       24.1981149098  LPSA13    2               0.0000000000
     13634       434  AKDO      H7            -27.3913160018        1.4403309304       25.0939202098  LPSA13    2               0.0000000000
     13635       434  AKDO      O7            -29.3604943352        1.7618547526       24.3482682347  LPSA13    2               0.0000000000
     13636       434  AKDO      HO7           -29.6853355430        1.8615304815       23.4945166536  LPSA13    2               0.0000000000
     13637       434  AKDO      C8            -27.3714261393        2.0739342201       22.9864433882  LPSA13    2               0.0000000000
     13638       434  AKDO      H81           -26.3287326383        1.6815667955       22.9153150275  LPSA13    2               0.0000000000
     13639       434  AKDO      H82           -28.0367268246        1.8412635042       22.0745354517  LPSA13    2               0.0000000000
     13640       434  AKDO      O8            -27.3320061440        3.5160434251       23.3537996748  LPSA13    2               0.0000000000
     13641       434  AKDO      HO8           -26.5368038392        3.9191284703       22.9179804014  LPSA13    2               0.0000000000
     13642       435  AKDO      C1            -30.4366272491       -4.4311668616       23.8027969005  LPSA13    3               1.0000000000
     13643       435  AKDO      O11           -30.0178408381       -4.7420792064       22.6471489042  LPSA13    3               1.0000000000
     13644       435  AKDO      O12           -31.5684413541       -3.9593268573       24.0656860145  LPSA13    3               1.0000000000
     13645       435  AKDO      C2            -29.5454601591       -4.6529617239       25.0166033796  LPSA13    3               1.0000000000
     13646       435  AKDO      C6            -27.5738975032       -5.8046834949       25.7688829792  LPSA13    3               1.0000000000
     13647       435  AKDO      H6            -27.0398932335       -4.8218304530       25.9810553331  LPSA13    3               1.0000000000
     13648       435  AKDO      O6            -28.4932054980       -5.6324676955       24.7076657818  LPSA13    3               1.0000000000
     13649       435  AKDO      C3            -30.2647101522       -5.0958467290       26.3187707743  LPSA13    3               1.0000000000
     13650       435  AKDO      H31           -30.7853890637       -6.1266551814       26.1504935106  LPSA13    3               1.0000000000
     13651       435  AKDO      H32           -31.0542147349       -4.3825627082       26.5929217108  LPSA13    3               1.0000000000
     13652       435  AKDO      C4            -29.2272424984       -5.2334560551       27.4036122013  LPSA13    3               1.0000000000
     13653       435  AKDO      H4            -28.6379723101       -4.3113506704       27.4051754129  LPSA13    3               1.0000000000
     13654       435  AKDO      O4            -29.7144701102       -5.4323304687       28.7388570077  LPSA13    3               1.0000000000
     13655       435  AKDO      HO4           -29.4359152105       -4.7817523323       29.3717785514  LPSA13    3               1.0000000000
     13656       435  AKDO      C5            -28.2775270266       -6.2147965915       27.0369167275  LPSA13    3               1.0000000000
     13657       435  AKDO      H5            -27.5544734081       -6.3710948505       27.9236884022  LPSA13    3               1.0000000000
     13658       435  AKDO      O5            -28.9142720910       -7.4927090880       26.8495261943  LPSA13    3               1.0000000000
     13659       435  AKDO      HO5           -29.5722299883       -7.4270565337       26.1887877298  LPSA13    3               1.0000000000
     13660       435  AKDO      C7            -26.5631040422       -6.8325788172       25.3258859863  LPSA13    3               1.0000000000
     13661       435  AKDO      H7            -27.0487476519       -7.8333951722       25.1324849511  LPSA13    3               1.0000000000
     13662       435  AKDO      O7            -25.5556280766       -6.9644063219       26.3661029982  LPSA13    3               1.0000000000
     13663       435  AKDO      HO7           -24.9979021172       -7.7453649050       26.1647669547  LPSA13    3               1.0000000000
     13664       435  AKDO      C8            -25.8647704252       -6.2797636735       24.1539635864  LPSA13    3               1.0000000000
     13665       435  AKDO      H81           -26.5767775390       -6.0818385067       23.3419478721  LPSA13    3               1.0000000000
     13666       435  AKDO      H82           -25.2855136035       -5.3534104520       24.2853144505  LPSA13    3               1.0000000000
     13667       435  AKDO      O8            -24.9459062853       -7.2251141285       23.6541307456  LPSA13    3               1.0000000000
     13668       435  AKDO      HO8           -25.6122571079       -7.8102201702       23.2473452835  LPSA13    3               1.0000000000
     13669       436  AHEP      C1            -28.2401579558       -0.2940292242       27.2793229502  LPSA13    4               2.0000000000
     13670       436  AHEP      H1            -27.8038966459        0.6672398984       26.8517192453  LPSA13    4               2.0000000000
     13671       436  AHEP      C5            -30.3823050127       -1.1525078374       28.0185271385  LPSA13    4               2.0000000000
     13672       436  AHEP      H5            -29.9731560636       -2.1357341587       27.5619054335  LPSA13    4               2.0000000000
     13673       436  AHEP      O5            -29.6518859365       -0.1001767014       27.3942805697  LPSA13    4               2.0000000000
     13674       436  AHEP      C2            -27.6982253731       -0.3888805730       28.6827861277  LPSA13    4               2.0000000000
     13675       436  AHEP      H2            -26.6220530876       -0.5850137312       28.7442425996  LPSA13    4               2.0000000000
     13676       436  AHEP      O2            -27.9110445195        0.8074400263       29.3407203943  LPSA13    4               2.0000000000
     13677       436  AHEP      HO2           -27.1532457905        1.0227828122       29.8507927467  LPSA13    4               2.0000000000
     13678       436  AHEP      C3            -28.4070560314       -1.4982638498       29.4857672188  LPSA13    4               2.0000000000
     13679       436  AHEP      H3            -28.1340589433       -2.5305456421       29.2269906369  LPSA13    4               2.0000000000
     13680       436  AHEP      O3            -28.0276333954       -1.4396492502       30.7882097304  LPSA13    4               2.0000000000
     13681       436  AHEP      C4            -29.8949938505       -1.2603963879       29.4546205599  LPSA13    4               2.0000000000
     13682       436  AHEP      H4            -30.2495633336       -0.3378918253       29.9788637739  LPSA13    4               2.0000000000
     13683       436  AHEP      O4            -30.5430695646       -2.3642897128       30.0145912217  LPSA13    4               2.0000000000
     13684       436  AHEP      P4            -31.2906422160       -2.3078802416       31.4978499249  LPSA13    4               2.0000000000
     13685       436  AHEP      OP42          -31.1520328703       -3.6233650107       32.1560374192  LPSA13    4               2.0000000000
     13686       436  AHEP      OP43          -32.6919278588       -2.0290442769       31.0397938518  LPSA13    4               2.0000000000
     13687       436  AHEP      OP44          -30.7479597373       -1.0904681058       32.3098937101  LPSA13    4               2.0000000000
     13688       436  AHEP      C6            -31.9298916701       -0.9954912252       27.7982482844  LPSA13    4               2.0000000000
     13689       436  AHEP      H6            -32.3802868998       -1.9945929130       28.0833143566  LPSA13    4               2.0000000000
     13690       436  AHEP      O6            -32.3911973023        0.0046061094       28.7103505027  LPSA13    4               2.0000000000
     13691       436  AHEP      HO6           -33.1901382759       -0.2966023730       29.2203787365  LPSA13    4               2.0000000000
     13692       436  AHEP      C7            -32.3316055802       -0.6876229924       26.3054198206  LPSA13    4               2.0000000000
     13693       436  AHEP      H71           -33.4609461449       -0.7488773310       26.1576126064  LPSA13    4               2.0000000000
     13694       436  AHEP      H72           -31.7334977079       -1.3341175836       25.6323487339  LPSA13    4               2.0000000000
     13695       436  AHEP      O7            -32.0102615433        0.6604840871       25.9755159574  LPSA13    4               2.0000000000
     13696       436  AHEP      HO7           -32.7176037751        1.2250250816       26.3256794122  LPSA13    4               2.0000000000
     13697       437  AHEP      C1            -27.3732059427       -2.5552829352       31.4342177374  LPSA13    5               3.0000000000
     13698       437  AHEP      H1            -27.6855408522       -3.5318120349       30.9794447437  LPSA13    5               3.0000000000
     13699       437  AHEP      C5            -25.4055564272       -1.3015251057       31.9165413065  LPSA13    5               3.0000000000
     13700       437  AHEP      H5            -26.0339132024       -0.4000462133       31.6031509785  LPSA13    5               3.0000000000
     13701       437  AHEP      O5            -25.9429995277       -2.4619428338       31.3013865768  LPSA13    5               3.0000000000
     13702       437  AHEP      C2            -27.6488914961       -2.6607494061       32.9718957084  LPSA13    5               3.0000000000
     13703       437  AHEP      H2            -28.7799712884       -2.6661181595       33.0921707216  LPSA13    5               3.0000000000
     13704       437  AHEP      O2            -27.1334123046       -3.8815155601       33.4691025827  LPSA13    5               3.0000000000
     13705       437  AHEP      HO2           -27.8432835902       -4.4922211649       33.6403503244  LPSA13    5               3.0000000000
     13706       437  AHEP      C3            -27.1181178750       -1.4087038936       33.7004304811  LPSA13    5               3.0000000000
     13707       437  AHEP      H3            -27.6221640422       -0.5061501295       33.3375632548  LPSA13    5               3.0000000000
     13708       437  AHEP      O3            -27.2858998054       -1.3898280624       35.1462238331  LPSA13    5               3.0000000000
     13709       437  AHEP      C4            -25.6496068387       -1.3597551008       33.4524658705  LPSA13    5               3.0000000000
     13710       437  AHEP      H4            -25.1262979072       -2.2763966909       33.8188816395  LPSA13    5               3.0000000000
     13711       437  AHEP      O4            -25.1243755100       -0.1523135843       34.0881196202  LPSA13    5               3.0000000000
     13712       437  AHEP      P4            -24.0714003862       -0.2539244946       35.2810123301  LPSA13    5               3.0000000000
     13713       437  AHEP      OP42          -23.9273679377        1.1496496429       35.8202965042  LPSA13    5               3.0000000000
     13714       437  AHEP      OP43          -22.7653557234       -0.7564492509       34.6107506294  LPSA13    5               3.0000000000
     13715       437  AHEP      OP44          -24.6015377525       -1.2851837764       36.2417033353  LPSA13    5               3.0000000000
     13716       437  AHEP      C6            -23.9366227876       -1.0405623193       31.5493607386  LPSA13    5               3.0000000000
     13717       437  AHEP      H6            -23.5770418767       -0.0794332361       31.9533288164  LPSA13    5               3.0000000000
     13718       437  AHEP      O6            -23.1127629548       -2.0913788896       32.0428602265  LPSA13    5               3.0000000000
     13719       437  AHEP      HO6           -23.1408684419       -2.9462323216       31.5367188277  LPSA13    5               3.0000000000
     13720       437  AHEP      C7            -23.8150211072       -0.8006143392       30.0822725317  LPSA13    5               3.0000000000
     13721       437  AHEP      H71           -22.9907391238       -0.0726033756       29.9169108581  LPSA13    5               3.0000000000
     13722       437  AHEP      H72           -24.7223974579       -0.3707963327       29.6179339851  LPSA13    5               3.0000000000
     13723       437  AHEP      O7            -23.3678886173       -2.0412049946       29.4957736452  LPSA13    5               3.0000000000
     13724       438  AHEP      C1            -24.3605165201       -2.7258991482       28.7926622005  LPSA13    6               4.0000000000
     13725       438  AHEP      H1            -25.3926809811       -2.2974586012       29.0422981953  LPSA13    6               4.0000000000
     13726       438  AHEP      C5            -22.9325110528       -3.1321102355       26.9237617191  LPSA13    6               4.0000000000
     13727       438  AHEP      H5            -22.1264627996       -2.6357370007       27.4818042043  LPSA13    6               4.0000000000
     13728       438  AHEP      O5            -24.2058731393       -2.6263240339       27.3547530115  LPSA13    6               4.0000000000
     13729       438  AHEP      C2            -24.3674768933       -4.1614403096       29.2397872647  LPSA13    6               4.0000000000
     13730       438  AHEP      H2            -24.5768983576       -4.1602157268       30.3523091474  LPSA13    6               4.0000000000
     13731       438  AHEP      O2            -25.4593668880       -4.8801790982       28.7267108980  LPSA13    6               4.0000000000
     13732       438  AHEP      HO2           -26.0193067229       -5.0102980909       29.4669064354  LPSA13    6               4.0000000000
     13733       438  AHEP      C3            -23.0054940694       -4.7867342444       28.8468391403  LPSA13    6               4.0000000000
     13734       438  AHEP      H3            -22.2371004980       -4.2654708166       29.4311808254  LPSA13    6               4.0000000000
     13735       438  AHEP      O3            -22.8787385018       -6.2442095158       29.2225362108  LPSA13    6               4.0000000000
     13736       438  AHEP      HO3           -22.4072802375       -6.4398542627       29.9865592523  LPSA13    6               4.0000000000
     13737       438  AHEP      C4            -22.8692974098       -4.6198272635       27.2761740859  LPSA13    6               4.0000000000
     13738       438  AHEP      H4            -23.5840132777       -5.2721397228       26.7944950683  LPSA13    6               4.0000000000
     13739       438  AHEP      O4            -21.6217744264       -5.1413568959       26.7938835778  LPSA13    6               4.0000000000
     13740       438  AHEP      HO4           -20.9444192676       -4.4518348380       27.1589530594  LPSA13    6               4.0000000000
     13741       438  AHEP      C6            -22.6229466500       -2.8168198208       25.4906533340  LPSA13    6               4.0000000000
     13742       438  AHEP      H6            -21.6054210445       -3.1622582854       25.3442628137  LPSA13    6               4.0000000000
     13743       438  AHEP      O6            -23.4016590046       -3.6580488620       24.6375675438  LPSA13    6               4.0000000000
     13744       438  AHEP      HO6           -23.8987783543       -3.1400368430       23.9977784313  LPSA13    6               4.0000000000
     13745       438  AHEP      C7            -22.6374564556       -1.3484690920       25.1799756221  LPSA13    6               4.0000000000
     13746       438  AHEP      H71           -22.2290343866       -1.2227449653       24.1408078076  LPSA13    6               4.0000000000
     13747       438  AHEP      H72           -21.9739145118       -0.8746047008       25.9252229174  LPSA13    6               4.0000000000
     13748       438  AHEP      O7            -23.9034621175       -0.7621832613       25.2517430265  LPSA13    6               4.0000000000
     13749       438  AHEP      HO7           -24.0158876715       -0.5510750423       26.2011285002  LPSA13    6               4.0000000000
     13750       439  AGLC      C1            -28.5067933340       -0.8695676239       35.6520976122  LPSA13    7               4.0000000000
     13751       439  AGLC      H1            -28.6797324247        0.1693446899       35.2047739589  LPSA13    7               4.0000000000
     13752       439  AGLC      C5            -29.5536016911       -2.9357081186       36.0987679218  LPSA13    7               4.0000000000
     13753       439  AGLC      H5            -28.6424031528       -3.4905470424       35.8327124756  LPSA13    7               4.0000000000
     13754       439  AGLC      O5            -29.5993738764       -1.7154520737       35.4366254460  LPSA13    7               4.0000000000
     13755       439  AGLC      C2            -28.4421079481       -0.6658100505       37.1582745954  LPSA13    7               4.0000000000
     13756       439  AGLC      H2            -29.4847565142       -0.3139965203       37.4887389927  LPSA13    7               4.0000000000
     13757       439  AGLC      O2            -27.6286010664        0.4725350263       37.5024056006  LPSA13    7               4.0000000000
     13758       439  AGLC      HO2           -26.7524512922        0.1207874589       37.6430208865  LPSA13    7               4.0000000000
     13759       439  AGLC      C3            -28.3473361497       -1.8485736496       37.9903802326  LPSA13    7               4.0000000000
     13760       439  AGLC      H3            -27.4157895725       -2.3187065692       37.6727250444  LPSA13    7               4.0000000000
     13761       439  AGLC      O3            -28.1554681520       -1.6481062729       39.4204481292  LPSA13    7               4.0000000000
     13762       439  AGLC      C4            -29.5495538550       -2.6543800211       37.5928595998  LPSA13    7               4.0000000000
     13763       439  AGLC      H4            -30.5135942123       -2.1392471552       37.9560286200  LPSA13    7               4.0000000000
     13764       439  AGLC      O4            -29.3606922404       -3.9390484052       38.2243117391  LPSA13    7               4.0000000000
     13765       439  AGLC      HO4           -30.1352310992       -4.2849824796       38.6132003238  LPSA13    7               4.0000000000
     13766       439  AGLC      C6            -30.6352699490       -3.8846367112       35.5245160098  LPSA13    7               4.0000000000
     13767       439  AGLC      H61           -30.4940610144       -3.8891513863       34.4135318240  LPSA13    7               4.0000000000
     13768       439  AGLC      H62           -30.6406174209       -4.9398174184       35.8722646349  LPSA13    7               4.0000000000
     13769       439  AGLC      O6            -31.9294095912       -3.2289651077       35.6892983147  LPSA13    7               4.0000000000
     13770       439  AGLC      HO6           -32.2236555295       -3.6735758774       36.4386090630  LPSA13    7               4.0000000000
     13771       440  AGLC      C1            -26.9395583938       -2.0639380430       39.9328324507  LPSA13    8               5.0000000000
     13772       440  AGLC      H1            -26.7146302357       -3.0884392502       39.5884769495  LPSA13    8               5.0000000000
     13773       440  AGLC      C5            -25.8396156683        0.1438426708       40.2153373402  LPSA13    8               5.0000000000
     13774       440  AGLC      H5            -26.7548245860        0.6175243974       39.8400606936  LPSA13    8               5.0000000000
     13775       440  AGLC      O5            -25.8077818084       -1.1820176279       39.6195505863  LPSA13    8               5.0000000000
     13776       440  AGLC      C2            -26.9925545842       -2.1574969024       41.4170311384  LPSA13    8               5.0000000000
     13777       440  AGLC      H2            -26.0272551633       -2.6598388613       41.6529594578  LPSA13    8               5.0000000000
     13778       440  AGLC      O2            -27.9295002696       -3.0899593450       41.9438754185  LPSA13    8               5.0000000000
     13779       440  AGLC      C3            -27.0789055339       -0.8563251184       42.1297388169  LPSA13    8               5.0000000000
     13780       440  AGLC      H3            -28.0333275094       -0.4698778750       41.6567950186  LPSA13    8               5.0000000000
     13781       440  AGLC      O3            -27.2364189641       -1.0725429341       43.5370978028  LPSA13    8               5.0000000000
     13782       440  AGLC      C4            -25.9034127720       -0.0805476963       41.7603093222  LPSA13    8               5.0000000000
     13783       440  AGLC      H4            -25.0023940403       -0.5943123364       42.0401368658  LPSA13    8               5.0000000000
     13784       440  AGLC      O4            -25.9107874891        1.1782643279       42.3914819843  LPSA13    8               5.0000000000
     13785       440  AGLC      HO4           -26.7781153197        1.5019961300       42.3800652601  LPSA13    8               5.0000000000
     13786       440  AGLC      C6            -24.7548967599        1.1370513460       39.7357334439  LPSA13    8               5.0000000000
     13787       440  AGLC      H61           -24.6014496787        1.1433793309       38.6468043611  LPSA13    8               5.0000000000
     13788       440  AGLC      H62           -24.9156770563        2.1581529835       40.0276014644  LPSA13    8               5.0000000000
     13789       440  AGLC      O6            -23.4962596271        0.9248807863       40.3040784562  LPSA13    8               5.0000000000
     13790       440  AGLC      HO6           -23.4323506926        1.2805668130       41.2121845210  LPSA13    8               5.0000000000
     13791       441  AGAL      C1            -27.9462982436       -4.3979003117       41.4573847493  LPSA13    9               6.0000000000
     13792       441  AGAL      H1            -27.8983598143       -4.3942047854       40.3420235153  LPSA13    9               6.0000000000
     13793       441  AGAL      C5            -26.8989745390       -5.5201679222       43.2125447641  LPSA13    9               6.0000000000
     13794       441  AGAL      H5            -27.0507677130       -4.4998755931       43.7424973645  LPSA13    9               6.0000000000
     13795       441  AGAL      O5            -26.8565266163       -5.2905408427       41.8451689838  LPSA13    9               6.0000000000
     13796       441  AGAL      C2            -29.2613161065       -5.0240285981       41.8393925249  LPSA13    9               6.0000000000
     13797       441  AGAL      H2            -29.3192399636       -6.0146452104       41.4115621152  LPSA13    9               6.0000000000
     13798       441  AGAL      O2            -30.3715303069       -4.4070266506       41.1608705954  LPSA13    9               6.0000000000
     13799       441  AGAL      C3            -29.3458324334       -5.2907831485       43.3264191845  LPSA13    9               6.0000000000
     13800       441  AGAL      H3            -29.3399480173       -4.2898043171       43.9424563891  LPSA13    9               6.0000000000
     13801       441  AGAL      O3            -30.5820626215       -5.7821923693       43.7491515633  LPSA13    9               6.0000000000
     13802       441  AGAL      HO3           -31.2392542058       -5.3856359941       43.1585960960  LPSA13    9               6.0000000000
     13803       441  AGAL      C4            -28.2142809115       -6.1813813978       43.6505755014  LPSA13    9               6.0000000000
     13804       441  AGAL      H4            -28.1056933934       -6.3701077950       44.7734818408  LPSA13    9               6.0000000000
     13805       441  AGAL      O4            -28.2605204275       -7.4387476274       43.0499075873  LPSA13    9               6.0000000000
     13806       441  AGAL      HO4           -27.8237924059       -8.0509221886       43.6622427513  LPSA13    9               6.0000000000
     13807       441  AGAL      C6            -25.5926833547       -6.0153507646       43.8349081587  LPSA13    9               6.0000000000
     13808       441  AGAL      H61           -24.7199710391       -5.3396361475       43.6417203355  LPSA13    9               6.0000000000
     13809       441  AGAL      H62           -25.6051537516       -6.0903554878       44.9292747136  LPSA13    9               6.0000000000
     13810       441  AGAL      O6            -25.2802373524       -7.3063810431       43.4062227539  LPSA13    9               6.0000000000
     13811       441  AGAL      HO6           -24.6223414107       -7.2159639811       42.6923548993  LPSA13    9               6.0000000000
     13812       442  AGAL      C1            -31.6067939329       -3.9393385669       41.7517281777  LPSA13    10              7.0000000000
     13813       442  AGAL      H1            -32.2010400750       -4.8585054003       41.8429972083  LPSA13    10              7.0000000000
     13814       442  AGAL      C5            -30.9549787237       -2.0287203590       43.0613392294  LPSA13    10              7.0000000000
     13815       442  AGAL      H5            -29.8788340331       -2.2255407203       42.6233508762  LPSA13    10              7.0000000000
     13816       442  AGAL      O5            -31.6671433503       -3.2807621843       43.0470213554  LPSA13    10              7.0000000000
     13817       442  AGAL      C2            -32.2416866056       -2.9859495693       40.7227968417  LPSA13    10              7.0000000000
     13818       442  AGAL      H2            -33.3513257539       -2.8975328605       41.0433947026  LPSA13    10              7.0000000000
     13819       442  AGAL      O2            -32.5733830612       -3.5982642456       39.5532095562  LPSA13    10              7.0000000000
     13820       442  AGAL      HO2           -33.4869993842       -3.4552690810       39.3379401176  LPSA13    10              7.0000000000
     13821       442  AGAL      C3            -31.5610018188       -1.6642891769       40.6928251787  LPSA13    10              7.0000000000
     13822       442  AGAL      H3            -30.5277870488       -1.9208697693       40.4679648945  LPSA13    10              7.0000000000
     13823       442  AGAL      O3            -32.0741763313       -0.7477589638       39.7732034444  LPSA13    10              7.0000000000
     13824       442  AGAL      HO3           -31.4410338422       -0.6962349618       39.0151094934  LPSA13    10              7.0000000000
     13825       442  AGAL      C4            -31.6175256705       -1.0561221637       42.0524071915  LPSA13    10              7.0000000000
     13826       442  AGAL      H4            -31.0308469505       -0.1189758199       42.1099272557  LPSA13    10              7.0000000000
     13827       442  AGAL      O4            -32.9090303739       -0.7577238616       42.4965010455  LPSA13    10              7.0000000000
     13828       442  AGAL      HO4           -33.3220202778       -1.5995189578       42.5675127347  LPSA13    10              7.0000000000
     13829       442  AGAL      C6            -30.7122543456       -1.3998552302       44.3959537205  LPSA13    10              7.0000000000
     13830       442  AGAL      H61           -30.2710303018       -2.0942340616       45.1044438806  LPSA13    10              7.0000000000
     13831       442  AGAL      H62           -29.8694094360       -0.5643337807       44.2564473849  LPSA13    10              7.0000000000
     13832       442  AGAL      O6            -31.7926079718       -0.7639526489       45.1112340130  LPSA13    10              7.0000000000
     13833       442  AGAL      HO6           -31.9547342104       -1.2769320158       45.9237589285  LPSA13    10              7.0000000000
     13834       443  BGLC      C1            -26.1999433856       -1.0947633932       44.5018065681  LPSA13    11              6.0000000000
     13835       443  BGLC      H1            -25.9471285379       -0.0483925768       44.5883763758  LPSA13    11              6.0000000000
     13836       443  BGLC      C5            -23.9733394465       -2.0603766659       45.1248117688  LPSA13    11              6.0000000000
     13837       443  BGLC      H5            -23.5139644599       -1.0437407619       45.3871201921  LPSA13    11              6.0000000000
     13838       443  BGLC      O5            -25.0849595662       -1.9787020123       44.0830650888  LPSA13    11              6.0000000000
     13839       443  BGLC      C2            -26.7452351362       -1.6386307960       45.7977571702  LPSA13    11              6.0000000000
     13840       443  BGLC      H2            -27.2101966427       -2.6544044015       45.7293388291  LPSA13    11              6.0000000000
     13841       443  BGLC      O2            -27.8608125836       -0.8093261524       46.0886391483  LPSA13    11              6.0000000000
     13842       443  BGLC      HO2           -28.6010446049       -1.3528717535       46.2788110113  LPSA13    11              6.0000000000
     13843       443  BGLC      C3            -25.7468878790       -1.7541134422       46.8736276645  LPSA13    11              6.0000000000
     13844       443  BGLC      H3            -25.4296012302       -0.6752309512       47.1984917368  LPSA13    11              6.0000000000
     13845       443  BGLC      O3            -26.3960349243       -2.3215450349       48.0056213318  LPSA13    11              6.0000000000
     13846       443  BGLC      C4            -24.6357012004       -2.5748005398       46.4390836423  LPSA13    11              6.0000000000
     13847       443  BGLC      H4            -25.0788723974       -3.5999577326       46.2001611147  LPSA13    11              6.0000000000
     13848       443  BGLC      O4            -23.6931299203       -2.7888769503       47.4766894645  LPSA13    11              6.0000000000
     13849       443  BGLC      HO4           -24.0913124401       -3.3820024379       48.1247908570  LPSA13    11              6.0000000000
     13850       443  BGLC      C6            -22.7828475476       -2.8316009557       44.5291127165  LPSA13    11              6.0000000000
     13851       443  BGLC      H61           -22.0810013549       -3.2318278403       45.2481190913  LPSA13    11              6.0000000000
     13852       443  BGLC      H62           -23.2128006567       -3.6438307443       43.8913252379  LPSA13    11              6.0000000000
     13853       443  BGLC      O6            -21.9954155438       -2.0825431838       43.5637942269  LPSA13    11              6.0000000000
     13854       443  BGLC      HO6           -21.1874869803       -1.9656683132       44.0054369298  LPSA13    11              6.0000000000
     13855       444  BGLCNA    C1            -26.3321971397       -1.7305840168       49.3238540420  LPSA13    12              7.0000000000
     13856       444  BGLCNA    H1            -27.1702049569       -0.9573258661       49.3874222992  LPSA13    12              7.0000000000
     13857       444  BGLCNA    C5            -25.0688176022       -0.4114047062       50.8763077070  LPSA13    12              7.0000000000
     13858       444  BGLCNA    H5            -25.9309641179        0.3891026060       50.9814236466  LPSA13    12              7.0000000000
     13859       444  BGLCNA    O5            -25.0702512008       -1.0774725994       49.5875345322  LPSA13    12              7.0000000000
     13860       444  BGLCNA    C2            -26.5267857954       -2.8207983026       50.3245054808  LPSA13    12              7.0000000000
     13861       444  BGLCNA    H2            -25.5311215097       -3.4386958918       50.3375086743  LPSA13    12              7.0000000000
     13862       444  BGLCNA    N             -27.7631898991       -3.5728811798       50.0347611965  LPSA13    12              7.0000000000
     13863       444  BGLCNA    HN            -28.4796599643       -2.9582312214       49.9972643287  LPSA13    12              7.0000000000
     13864       444  BGLCNA    C             -27.7441683836       -4.8630726651       49.8903426450  LPSA13    12              7.0000000000
     13865       444  BGLCNA    O             -26.7081136443       -5.4827871020       50.0855928044  LPSA13    12              7.0000000000
     13866       444  BGLCNA    CT            -29.0481997901       -5.5270183548       49.5677689528  LPSA13    12              7.0000000000
     13867       444  BGLCNA    HT1           -29.4043350853       -6.1711260440       50.3918503408  LPSA13    12              7.0000000000
     13868       444  BGLCNA    HT2           -28.8891605869       -6.3215998111       48.7104760971  LPSA13    12              7.0000000000
     13869       444  BGLCNA    HT3           -29.7430252790       -4.7180333256       49.2316245990  LPSA13    12              7.0000000000
     13870       444  BGLCNA    C3            -26.5674136873       -2.2717696295       51.6995695120  LPSA13    12              7.0000000000
     13871       444  BGLCNA    H3            -27.5111806707       -1.5719572794       51.8605307917  LPSA13    12              7.0000000000
     13872       444  BGLCNA    O3            -26.8045076915       -3.2724696853       52.7272334264  LPSA13    12              7.0000000000
     13873       444  BGLCNA    C4            -25.2899944543       -1.5387063544       51.9591692987  LPSA13    12              7.0000000000
     13874       444  BGLCNA    H4            -24.3421172958       -2.1966916771       51.9037868612  LPSA13    12              7.0000000000
     13875       444  BGLCNA    O4            -25.2604142136       -0.9781094346       53.2294962294  LPSA13    12              7.0000000000
     13876       444  BGLCNA    HO4           -25.8314697352       -0.1569561975       53.2834945119  LPSA13    12              7.0000000000
     13877       444  BGLCNA    C6            -23.7619595312        0.4038308801       50.9528560558  LPSA13    12              7.0000000000
     13878       444  BGLCNA    H61           -23.6568750228        0.8505516527       51.9144325068  LPSA13    12              7.0000000000
     13879       444  BGLCNA    H62           -22.9946086618       -0.3523121158       50.8287962869  LPSA13    12              7.0000000000
     13880       444  BGLCNA    O6            -23.6657801625        1.2817955922       49.8597561973  LPSA13    12              7.0000000000
     13881       444  BGLCNA    HO6           -24.0787458199        2.0678618276       50.1903398796  LPSA13    12              7.0000000000
     13882       445  AGAL      C1            -27.7062348834       -2.8837556917       53.8132743488  LPSA13    13              8.0000000000
     13883       445  AGAL      H1            -27.4060679456       -1.8828267359       54.1959401301  LPSA13    13              8.0000000000
     13884       445  AGAL      C5            -29.4598336878       -4.4539449487       53.2950732168  LPSA13    13              8.0000000000
     13885       445  AGAL      H5            -28.7502902392       -4.8355879065       52.5641412600  LPSA13    13              8.0000000000
     13886       445  AGAL      O5            -29.1307979684       -3.0696496168       53.4918445955  LPSA13    13              8.0000000000
     13887       445  AGAL      C2            -27.5423970991       -3.7374554321       55.1010141246  LPSA13    13              8.0000000000
     13888       445  AGAL      H2            -28.3738854687       -3.4918309533       55.7917211299  LPSA13    13              8.0000000000
     13889       445  AGAL      O2            -26.3256553363       -3.4798239679       55.7701983428  LPSA13    13              8.0000000000
     13890       445  AGAL      C3            -27.9105617958       -5.2271082516       54.8979691660  LPSA13    13              8.0000000000
     13891       445  AGAL      H3            -27.3503711483       -5.6030483590       54.0477453328  LPSA13    13              8.0000000000
     13892       445  AGAL      O3            -27.4845659260       -6.0574635749       55.9888739531  LPSA13    13              8.0000000000
     13893       445  AGAL      HO3           -27.1439508575       -6.8925789862       55.6848713412  LPSA13    13              8.0000000000
     13894       445  AGAL      C4            -29.2823562717       -5.3516343265       54.5514025965  LPSA13    13              8.0000000000
     13895       445  AGAL      H4            -29.5265605113       -6.4240311454       54.1954731349  LPSA13    13              8.0000000000
     13896       445  AGAL      O4            -30.1695076565       -4.9549651488       55.5743212917  LPSA13    13              8.0000000000
     13897       445  AGAL      HO4           -29.9551625636       -4.1388077946       56.0499681296  LPSA13    13              8.0000000000
     13898       445  AGAL      C6            -30.7421159703       -4.7171939619       52.5301443486  LPSA13    13              8.0000000000
     13899       445  AGAL      H61           -30.7656466876       -4.0939673278       51.6253596531  LPSA13    13              8.0000000000
     13900       445  AGAL      H62           -30.8295316498       -5.8204358300       52.3684678279  LPSA13    13              8.0000000000
     13901       445  AGAL      O6            -31.8763676921       -4.3722545550       53.2985910507  LPSA13    13              8.0000000000
     13902       445  AGAL      HO6           -32.0497555711       -5.0878529933       53.9299633642  LPSA13    13              8.0000000000
     13903       446  ARHM      C1            -26.3257795666       -2.8337356119       57.0117786358  LPSA13    14              9.0000000000
     13904       446  ARHM      H1            -27.2379927637       -2.2018457354       56.9981767125  LPSA13    14              9.0000000000
     13905       446  ARHM      C5            -24.0100127454       -2.6802514668       57.1930138837  LPSA13    14              9.0000000000
     13906       446  ARHM      H5            -23.9486803695       -3.2608511926       56.1976867078  LPSA13    14              9.0000000000
     13907       446  ARHM      O5            -25.2003461470       -1.9848177962       57.1718909996  LPSA13    14              9.0000000000
     13908       446  ARHM      C2            -26.3619721394       -3.8865172509       58.1413490634  LPSA13    14              9.0000000000
     13909       446  ARHM      H2            -27.2073969268       -4.5134296695       57.8875987320  LPSA13    14              9.0000000000
     13910       446  ARHM      O2            -26.4709507565       -3.3707279731       59.4330148990  LPSA13    14              9.0000000000
     13911       446  ARHM      C3            -25.0887109838       -4.6813889453       58.1095432995  LPSA13    14              9.0000000000
     13912       446  ARHM      H3            -24.9194706578       -5.0169005058       57.0440121713  LPSA13    14              9.0000000000
     13913       446  ARHM      O3            -25.1121563339       -5.8584512143       58.8567888868  LPSA13    14              9.0000000000
     13914       446  ARHM      HO3           -25.0519847096       -5.5599655762       59.8104957846  LPSA13    14              9.0000000000
     13915       446  ARHM      C4            -23.9789876438       -3.7229597872       58.3490442956  LPSA13    14              9.0000000000
     13916       446  ARHM      H4            -24.0275206293       -3.1266066400       59.2902338481  LPSA13    14              9.0000000000
     13917       446  ARHM      O4            -22.7284094511       -4.4589225342       58.4446785014  LPSA13    14              9.0000000000
     13918       446  ARHM      HO4           -22.2958680541       -4.4629390401       59.2969967688  LPSA13    14              9.0000000000
     13919       446  ARHM      C6            -22.8300296349       -1.6952963672       57.2492155848  LPSA13    14              9.0000000000
     13920       446  ARHM      H61           -22.9181428362       -0.8014908238       56.5358243550  LPSA13    14              9.0000000000
     13921       446  ARHM      H62           -22.7312184916       -1.4126834868       58.3170764683  LPSA13    14              9.0000000000
     13922       446  ARHM      H63           -21.8352022597       -2.0266901324       56.9421594120  LPSA13    14              9.0000000000
     13923       447  ARHM      C1            -27.4296723456       -2.4809036587       59.7267990175  LPSA13    15             10.0000000000
     13924       447  ARHM      H1            -28.3016584116       -2.5868985748       59.0458905905  LPSA13    15             10.0000000000
     13925       447  ARHM      C5            -25.9789048567       -0.6875440748       60.6468530148  LPSA13    15             10.0000000000
     13926       447  ARHM      H5            -24.9832398570       -1.1948244899       60.4457705401  LPSA13    15             10.0000000000
     13927       447  ARHM      O5            -26.9823717944       -1.1031595631       59.6688136410  LPSA13    15             10.0000000000
     13928       447  ARHM      C2            -27.9469678891       -2.7367807658       61.1407671534  LPSA13    15             10.0000000000
     13929       447  ARHM      H2            -28.1934153643       -3.8637157348       61.2133420761  LPSA13    15             10.0000000000
     13930       447  ARHM      O2            -29.1269923086       -1.8994918015       61.3234079317  LPSA13    15             10.0000000000
     13931       447  ARHM      C3            -26.8596971818       -2.4173180452       62.1677656617  LPSA13    15             10.0000000000
     13932       447  ARHM      H3            -25.9533111255       -3.0108835029       61.8628392879  LPSA13    15             10.0000000000
     13933       447  ARHM      O3            -27.3153206406       -3.0185457210       63.4092175029  LPSA13    15             10.0000000000
     13934       447  ARHM      C4            -26.5157036156       -1.0114440446       62.0487117432  LPSA13    15             10.0000000000
     13935       447  ARHM      H4            -27.4932558625       -0.3895132860       62.1496903561  LPSA13    15             10.0000000000
     13936       447  ARHM      O4            -25.5548767675       -0.4774821055       62.9635513464  LPSA13    15             10.0000000000
     13937       447  ARHM      HO4           -25.6367712629        0.4642991057       62.9565205260  LPSA13    15             10.0000000000
     13938       447  ARHM      C6            -25.6653521819        0.7772971187       60.4460959132  LPSA13    15             10.0000000000
     13939       447  ARHM      H61           -24.8393109804        1.1711335412       61.0956562646  LPSA13    15             10.0000000000
     13940       447  ARHM      H62           -25.5689995446        0.9875788963       59.3910198679  LPSA13    15             10.0000000000
     13941       447  ARHM      H63           -26.4735617266        1.4449485709       60.8578185328  LPSA13    15             10.0000000000
     13942       448  BMANNA    C1            -29.8904065699       -2.0068393638       62.5145562334  LPSA13    16             11.0000000000
     13943       448  BMANNA    H1            -29.2576332921       -1.5141494234       63.3432051365  LPSA13    16             11.0000000000
     13944       448  BMANNA    C5            -30.8952999527       -3.3216107710       64.1851548173  LPSA13    16             11.0000000000
     13945       448  BMANNA    H5            -30.3308040679       -2.8168459516       64.9800677769  LPSA13    16             11.0000000000
     13946       448  BMANNA    O5            -30.1908235189       -3.3383082780       62.9158851071  LPSA13    16             11.0000000000
     13947       448  BMANNA    C2            -31.1865871425       -1.1969388720       62.2781089586  LPSA13    16             11.0000000000
     13948       448  BMANNA    H2            -30.8260351643       -0.1743371935       61.9912908466  LPSA13    16             11.0000000000
     13949       448  BMANNA    N             -32.1047477545       -1.6432596636       61.2264456342  LPSA13    16             11.0000000000
     13950       448  BMANNA    HN            -32.7528555973       -2.2830666755       61.5688724990  LPSA13    16             11.0000000000
     13951       448  BMANNA    C             -32.0465207690       -1.2758090213       59.9704010620  LPSA13    16             11.0000000000
     13952       448  BMANNA    O             -31.2162359439       -0.4200927404       59.5582221915  LPSA13    16             11.0000000000
     13953       448  BMANNA    CT            -33.0369177250       -1.9326094477       59.1331689300  LPSA13    16             11.0000000000
     13954       448  BMANNA    HT1           -33.8785451445       -1.3275151722       58.8344492748  LPSA13    16             11.0000000000
     13955       448  BMANNA    HT2           -33.4560881651       -2.8673109974       59.5043001239  LPSA13    16             11.0000000000
     13956       448  BMANNA    HT3           -32.5947000892       -2.2133546239       58.1231520073  LPSA13    16             11.0000000000
     13957       448  BMANNA    C3            -31.8891449317       -1.1526394806       63.6119771117  LPSA13    16             11.0000000000
     13958       448  BMANNA    H3            -31.2240176534       -0.6847103558       64.3839812837  LPSA13    16             11.0000000000
     13959       448  BMANNA    O3            -33.0408072723       -0.3591253808       63.6122488842  LPSA13    16             11.0000000000
     13960       448  BMANNA    HO3           -32.9973778908        0.2971863847       64.2950500102  LPSA13    16             11.0000000000
     13961       448  BMANNA    C4            -32.2345762693       -2.5637553607       64.1045846713  LPSA13    16             11.0000000000
     13962       448  BMANNA    H4            -32.9198377798       -3.0892602414       63.4124605202  LPSA13    16             11.0000000000
     13963       448  BMANNA    O4            -32.8895253980       -2.6709347400       65.3816866120  LPSA13    16             11.0000000000
     13964       448  BMANNA    HO4           -33.3820876968       -3.4887124788       65.4353184152  LPSA13    16             11.0000000000
     13965       448  BMANNA    C6            -31.1293707507       -4.7315049702       64.7427751243  LPSA13    16             11.0000000000
     13966       448  BMANNA    H61           -31.1372401783       -4.6430945626       65.8875394407  LPSA13    16             11.0000000000
     13967       448  BMANNA    H62           -32.1025842147       -5.1229167362       64.4389269682  LPSA13    16             11.0000000000
     13968       448  BMANNA    O6            -30.1222206760       -5.6915665509       64.3660927576  LPSA13    16             11.0000000000
     13969       448  BMANNA    HO6           -30.6615941025       -6.3705875379       63.9036969990  LPSA13    16             11.0000000000
     13970       449  BGLCNA    C1            -26.3552913064       -3.5764820994       64.1715778089  LPSA13    17             11.0000000000
     13971       449  BGLCNA    H1            -25.3425349152       -3.0660885501       63.9082176002  LPSA13    17             11.0000000000
     13972       449  BGLCNA    C5            -25.1012953107       -5.6382880061       64.5563394407  LPSA13    17             11.0000000000
     13973       449  BGLCNA    H5            -24.0802938533       -5.1756162216       64.2825289487  LPSA13    17             11.0000000000
     13974       449  BGLCNA    O5            -26.1029946547       -4.9581574193       63.7849982893  LPSA13    17             11.0000000000
     13975       449  BGLCNA    C2            -26.7799239985       -3.4652756907       65.5899343931  LPSA13    17             11.0000000000
     13976       449  BGLCNA    H2            -27.7624740013       -3.9980238405       65.8249043900  LPSA13    17             11.0000000000
     13977       449  BGLCNA    N             -27.1129119268       -2.1304431911       65.8849826081  LPSA13    17             11.0000000000
     13978       449  BGLCNA    HN            -26.5994054996       -1.3879759831       65.4150135415  LPSA13    17             11.0000000000
     13979       449  BGLCNA    C             -27.9246909901       -1.6393077746       66.8043620798  LPSA13    17             11.0000000000
     13980       449  BGLCNA    O             -28.6568180016       -2.3591726320       67.4729873017  LPSA13    17             11.0000000000
     13981       449  BGLCNA    CT            -27.9047239421       -0.1676365175       66.9728872304  LPSA13    17             11.0000000000
     13982       449  BGLCNA    HT1           -28.7216783471        0.4466560999       66.5529393721  LPSA13    17             11.0000000000
     13983       449  BGLCNA    HT2           -26.8893545921        0.1827095284       66.7043805047  LPSA13    17             11.0000000000
     13984       449  BGLCNA    HT3           -27.9331030797        0.1047149571       68.1408097225  LPSA13    17             11.0000000000
     13985       449  BGLCNA    C3            -25.6642689313       -4.0766110208       66.4076579941  LPSA13    17             11.0000000000
     13986       449  BGLCNA    H3            -24.7636481300       -3.4768929895       66.0441361901  LPSA13    17             11.0000000000
     13987       449  BGLCNA    O3            -25.9171124288       -3.7426603593       67.8205355914  LPSA13    17             11.0000000000
     13988       449  BGLCNA    C4            -25.5448046561       -5.5514201493       66.0496966154  LPSA13    17             11.0000000000
     13989       449  BGLCNA    H4            -26.5583152796       -6.0827559984       66.1123142204  LPSA13    17             11.0000000000
     13990       449  BGLCNA    O4            -24.6761757228       -6.2496465600       66.9186044206  LPSA13    17             11.0000000000
     13991       449  BGLCNA    HO4           -24.5368251513       -7.1678818707       66.7204061560  LPSA13    17             11.0000000000
     13992       449  BGLCNA    C6            -25.0266705981       -7.1146731632       64.1200051697  LPSA13    17             11.0000000000
     13993       449  BGLCNA    H61           -24.0075241671       -7.4489866916       64.1272946536  LPSA13    17             11.0000000000
     13994       449  BGLCNA    H62           -25.6169327138       -7.7816414950       64.8212395067  LPSA13    17             11.0000000000
     13995       449  BGLCNA    O6            -25.5294306086       -7.3204491512       62.7926115083  LPSA13    17             11.0000000000
     13996       449  BGLCNA    HO6           -25.0218325237       -6.7935482828       62.1856770532  LPSA13    17             11.0000000000
     13997       450  AGAL      C1            -24.7352163201       -3.4820801697       68.6198653987  LPSA13    18             12.0000000000
     13998       450  AGAL      H1            -24.2350306080       -4.4779227685       68.8082567594  LPSA13    18             12.0000000000
     13999       450  AGAL      C5            -24.3447605689       -1.2363597175       67.8636918791  LPSA13    18             12.0000000000
     14000       450  AGAL      H5            -25.3368356121       -1.2930069155       67.4068928888  LPSA13    18             12.0000000000
     14001       450  AGAL      O5            -23.8266682922       -2.6103190515       67.9834320655  LPSA13    18             12.0000000000
     14002       450  AGAL      C2            -25.0935231170       -2.8105295542       70.0000206359  LPSA13    18             12.0000000000
     14003       450  AGAL      H2            -24.0571278697       -2.6886376876       70.3908489884  LPSA13    18             12.0000000000
     14004       450  AGAL      O2            -25.7244893066       -3.7244038650       70.8342757016  LPSA13    18             12.0000000000
     14005       450  AGAL      C3            -25.6535133801       -1.4370821870       69.8682924558  LPSA13    18             12.0000000000
     14006       450  AGAL      H3            -26.5249616210       -1.4726331966       69.0958348126  LPSA13    18             12.0000000000
     14007       450  AGAL      O3            -26.1443521319       -0.9379643866       71.0758896640  LPSA13    18             12.0000000000
     14008       450  AGAL      HO3           -27.0093358271       -0.5385263616       70.9682873819  LPSA13    18             12.0000000000
     14009       450  AGAL      C4            -24.6754072843       -0.5874033029       69.1634745928  LPSA13    18             12.0000000000
     14010       450  AGAL      H4            -25.0210652862        0.4407973167       68.9039691178  LPSA13    18             12.0000000000
     14011       450  AGAL      O4            -23.4854593919       -0.3993535047       69.9734134928  LPSA13    18             12.0000000000
     14012       450  AGAL      HO4           -23.6965686732        0.2579785748       70.7236544006  LPSA13    18             12.0000000000
     14013       450  AGAL      C6            -23.5837529103       -0.5723252186       66.8042742825  LPSA13    18             12.0000000000
     14014       450  AGAL      H61           -23.7679693256       -1.1350547610       65.8877991861  LPSA13    18             12.0000000000
     14015       450  AGAL      H62           -24.0617289084        0.4330221751       66.6499463921  LPSA13    18             12.0000000000
     14016       450  AGAL      O6            -22.2622436713       -0.5020147278       66.9803033045  LPSA13    18             12.0000000000
     14017       450  AGAL      HO6           -21.8781124604       -1.0326104656       67.6707071977  LPSA13    18             12.0000000000
     14018       451  ARHM      C1            -25.1952989126       -3.6137548629       72.1803514454  LPSA13    19             13.0000000000
     14019       451  ARHM      H1            -24.7140992519       -2.6664059117       72.3185909119  LPSA13    19             13.0000000000
     14020       451  ARHM      C5            -24.4294808790       -5.8569104450       72.2512180912  LPSA13    19             13.0000000000
     14021       451  ARHM      H5            -24.8387661984       -5.9610097730       71.2133247196  LPSA13    19             13.0000000000
     14022       451  ARHM      O5            -24.0778302274       -4.4821095553       72.4162684983  LPSA13    19             13.0000000000
     14023       451  ARHM      C2            -26.3177268644       -3.8927918718       73.1100514097  LPSA13    19             13.0000000000
     14024       451  ARHM      H2            -27.2071535339       -3.3419457310       72.9420985559  LPSA13    19             13.0000000000
     14025       451  ARHM      O2            -25.9117312370       -3.6542097321       74.4131644751  LPSA13    19             13.0000000000
     14026       451  ARHM      C3            -26.6753686412       -5.4063366599       72.9859276785  LPSA13    19             13.0000000000
     14027       451  ARHM      H3            -26.9411463379       -5.5847804795       71.9471750908  LPSA13    19             13.0000000000
     14028       451  ARHM      O3            -27.7710184531       -5.7272485917       73.7644258584  LPSA13    19             13.0000000000
     14029       451  ARHM      HO3           -27.5963997489       -5.3803425229       74.6464134549  LPSA13    19             13.0000000000
     14030       451  ARHM      C4            -25.5306789510       -6.2922540632       73.2443334127  LPSA13    19             13.0000000000
     14031       451  ARHM      H4            -25.2087169766       -6.0734162193       74.2703943704  LPSA13    19             13.0000000000
     14032       451  ARHM      O4            -25.8019443670       -7.6564215202       73.1708570575  LPSA13    19             13.0000000000
     14033       451  ARHM      HO4           -26.0400852459       -7.8324099360       72.2126258713  LPSA13    19             13.0000000000
     14034       451  ARHM      C6            -23.1862875217       -6.7631276490       72.3031700958  LPSA13    19             13.0000000000
     14035       451  ARHM      H61           -22.5878086022       -6.3279962549       71.5186681997  LPSA13    19             13.0000000000
     14036       451  ARHM      H62           -22.6101058098       -6.7501454752       73.2001761489  LPSA13    19             13.0000000000
     14037       451  ARHM      H63           -23.4034190847       -7.8131029396       72.0875448643  LPSA13    19             13.0000000000
     14038       452  ARHM      C1            -25.8607334438       -2.2951307345       74.6981797177  LPSA13    20             14.0000000000
     14039       452  ARHM      H1            -26.3538607170       -1.6577468959       73.8936196974  LPSA13    20             14.0000000000
     14040       452  ARHM      C5            -23.8467716150       -2.2401542197       75.9960310464  LPSA13    20             14.0000000000
     14041       452  ARHM      H5            -23.8346059570       -3.3440477373       75.8071112250  LPSA13    20             14.0000000000
     14042       452  ARHM      O5            -24.5673081923       -1.7154017663       74.8741575474  LPSA13    20             14.0000000000
     14043       452  ARHM      C2            -26.6938034513       -2.0025916585       75.9438944127  LPSA13    20             14.0000000000
     14044       452  ARHM      H2            -27.7132341977       -2.5529898066       75.7904987900  LPSA13    20             14.0000000000
     14045       452  ARHM      O2            -26.8753007602       -0.5938893063       76.2145535291  LPSA13    20             14.0000000000
     14046       452  ARHM      C3            -25.9383070014       -2.5552056939       77.0746584307  LPSA13    20             14.0000000000
     14047       452  ARHM      H3            -25.8176903149       -3.6956338123       76.9570890266  LPSA13    20             14.0000000000
     14048       452  ARHM      O3            -26.7751431944       -2.3663361733       78.2431898216  LPSA13    20             14.0000000000
     14049       452  ARHM      C4            -24.5813855568       -1.9508449726       77.2147849866  LPSA13    20             14.0000000000
     14050       452  ARHM      H4            -24.6038173285       -0.8830223338       77.2882629629  LPSA13    20             14.0000000000
     14051       452  ARHM      O4            -23.9714358117       -2.4459924227       78.4294019453  LPSA13    20             14.0000000000
     14052       452  ARHM      HO4           -23.1062909178       -2.3973577503       78.0714846557  LPSA13    20             14.0000000000
     14053       452  ARHM      C6            -22.4617191551       -1.7430778389       75.9818768401  LPSA13    20             14.0000000000
     14054       452  ARHM      H61           -22.2694903520       -0.6303631212       76.0487105533  LPSA13    20             14.0000000000
     14055       452  ARHM      H62           -21.8742803383       -2.2504478297       76.7492574554  LPSA13    20             14.0000000000
     14056       452  ARHM      H63           -21.8936448789       -1.9612438929       75.0059134709  LPSA13    20             14.0000000000
     14057       453  BMANNA    C1            -27.9542538596       -0.1939771715       75.4501725836  LPSA13    21             15.0000000000
     14058       453  BMANNA    H1            -28.2364871024       -0.9909699884       74.6495731600  LPSA13    21             15.0000000000
     14059       453  BMANNA    C5            -28.7036931434        1.1794373891       73.6578092950  LPSA13    21             15.0000000000
     14060       453  BMANNA    H5            -29.1208561797        0.2701325874       73.0422409194  LPSA13    21             15.0000000000
     14061       453  BMANNA    O5            -27.5682304532        0.8972460248       74.5460975074  LPSA13    21             15.0000000000
     14062       453  BMANNA    C2            -29.0952827841        0.2093634821       76.3268603500  LPSA13    21             15.0000000000
     14063       453  BMANNA    H2            -29.2852946888       -0.7202718590       76.8663433126  LPSA13    21             15.0000000000
     14064       453  BMANNA    N             -28.7224233583        1.2689806978       77.2602735953  LPSA13    21             15.0000000000
     14065       453  BMANNA    HN            -28.3160005391        2.0567757876       76.8630196157  LPSA13    21             15.0000000000
     14066       453  BMANNA    C             -29.1455943567        1.3610258454       78.6142451918  LPSA13    21             15.0000000000
     14067       453  BMANNA    O             -30.0330662774        0.6178844214       79.0340579138  LPSA13    21             15.0000000000
     14068       453  BMANNA    CT            -28.5107345951        2.4458497963       79.5125915666  LPSA13    21             15.0000000000
     14069       453  BMANNA    HT1           -29.0218288863        3.4144414473       79.3040814335  LPSA13    21             15.0000000000
     14070       453  BMANNA    HT2           -27.4249271676        2.4145185135       79.3224353366  LPSA13    21             15.0000000000
     14071       453  BMANNA    HT3           -28.6844107603        2.1993095245       80.6000991146  LPSA13    21             15.0000000000
     14072       453  BMANNA    C3            -30.2499864468        0.5252515322       75.4428482744  LPSA13    21             15.0000000000
     14073       453  BMANNA    H3            -30.4374606564       -0.4470320243       75.0091666053  LPSA13    21             15.0000000000
     14074       453  BMANNA    O3            -31.4071460111        0.8953632908       76.1769203835  LPSA13    21             15.0000000000
     14075       453  BMANNA    HO3           -31.1680621021        1.6108615920       76.7354970047  LPSA13    21             15.0000000000
     14076       453  BMANNA    C4            -29.8900007258        1.6331680726       74.4866217523  LPSA13    21             15.0000000000
     14077       453  BMANNA    H4            -29.6812607451        2.6938192828       75.0002820064  LPSA13    21             15.0000000000
     14078       453  BMANNA    O4            -30.9385358560        1.9464051737       73.6152290754  LPSA13    21             15.0000000000
     14079       453  BMANNA    HO4           -31.2662822724        2.8598558019       73.7703874424  LPSA13    21             15.0000000000
     14080       453  BMANNA    C6            -28.3592245270        2.1326719721       72.6348027846  LPSA13    21             15.0000000000
     14081       453  BMANNA    H61           -29.1361165282        2.2394575947       71.8494922130  LPSA13    21             15.0000000000
     14082       453  BMANNA    H62           -28.4235336462        3.1727971885       73.0558617198  LPSA13    21             15.0000000000
     14083       453  BMANNA    O6            -27.0883408022        2.0398566592       72.0654385618  LPSA13    21             15.0000000000
     14084       453  BMANNA    HO6           -26.4507331444        2.0464370174       72.7784055652  LPSA13    21             15.0000000000
     14085       454  BGLCNA    C1            -26.8279669604       -3.3401314454       79.2248726046  LPSA13    22             15.0000000000
     14086       454  BGLCNA    H1            -25.9121790296       -3.9990916126       79.2753119810  LPSA13    22             15.0000000000
     14087       454  BGLCNA    C5            -27.9288184827       -5.2866137135       80.1145289529  LPSA13    22             15.0000000000
     14088       454  BGLCNA    H5            -26.8809522631       -5.8072859224       80.0727605020  LPSA13    22             15.0000000000
     14089       454  BGLCNA    O5            -27.8852865544       -4.2429692002       79.0803056561  LPSA13    22             15.0000000000
     14090       454  BGLCNA    C2            -26.9600940013       -2.6546378874       80.5602818744  LPSA13    22             15.0000000000
     14091       454  BGLCNA    H2            -27.9689852591       -2.1171308556       80.4633107900  LPSA13    22             15.0000000000
     14092       454  BGLCNA    N             -25.8687604281       -1.7144474658       80.7025670875  LPSA13    22             15.0000000000
     14093       454  BGLCNA    HN            -24.9841987288       -2.0434657516       80.4501896382  LPSA13    22             15.0000000000
     14094       454  BGLCNA    C             -25.9503371852       -0.5589931804       81.3295640408  LPSA13    22             15.0000000000
     14095       454  BGLCNA    O             -27.0176694064       -0.1788346517       81.8448112003  LPSA13    22             15.0000000000
     14096       454  BGLCNA    CT            -24.7116689628        0.2568912136       81.4359073222  LPSA13    22             15.0000000000
     14097       454  BGLCNA    HT1           -24.7624027983        0.8578133590       80.5353412834  LPSA13    22             15.0000000000
     14098       454  BGLCNA    HT2           -23.8484700266       -0.4288988029       81.2752873926  LPSA13    22             15.0000000000
     14099       454  BGLCNA    HT3           -24.5544512858        0.7577111912       82.3679651303  LPSA13    22             15.0000000000
     14100       454  BGLCNA    C3            -27.0232334979       -3.6619776819       81.6855161512  LPSA13    22             15.0000000000
     14101       454  BGLCNA    H3            -26.0949660403       -4.2852810681       81.6419517197  LPSA13    22             15.0000000000
     14102       454  BGLCNA    O3            -27.0129159340       -2.9018584216       82.8729300216  LPSA13    22             15.0000000000
     14103       454  BGLCNA    C4            -28.1860635600       -4.6358149916       81.4704242134  LPSA13    22             15.0000000000
     14104       454  BGLCNA    H4            -29.0552283460       -4.0347997317       81.4144045074  LPSA13    22             15.0000000000
     14105       454  BGLCNA    O4            -28.3178931461       -5.5755328489       82.5140850489  LPSA13    22             15.0000000000
     14106       454  BGLCNA    HO4           -29.2627338100       -5.6936094471       82.7130071916  LPSA13    22             15.0000000000
     14107       454  BGLCNA    C6            -29.0465699197       -6.2450993859       79.7284495560  LPSA13    22             15.0000000000
     14108       454  BGLCNA    H61           -29.2681761334       -6.7910963161       80.6924177192  LPSA13    22             15.0000000000
     14109       454  BGLCNA    H62           -29.9767855621       -5.6985017474       79.4648784538  LPSA13    22             15.0000000000
     14110       454  BGLCNA    O6            -28.6841062041       -7.2200211625       78.8100863794  LPSA13    22             15.0000000000
     14111       454  BGLCNA    HO6           -28.3636462909       -6.7915846046       78.0328486455  LPSA13    22             15.0000000000
     14112       455  AGAL      C1            -26.6366387635       -3.4940195520       84.0628261254  LPSA13    23             16.0000000000
     14113       455  AGAL      H1            -27.4444596636       -4.1365865452       84.5106287163  LPSA13    23             16.0000000000
     14114       455  AGAL      C5            -24.2750053356       -3.5180957055       83.7583018441  LPSA13    23             16.0000000000
     14115       455  AGAL      H5            -24.4548213423       -2.8492155611       82.8366412438  LPSA13    23             16.0000000000
     14116       455  AGAL      O5            -25.4392836364       -4.2753793499       83.9976212264  LPSA13    23             16.0000000000
     14117       455  AGAL      C2            -26.4447011799       -2.4455532114       85.1427633740  LPSA13    23             16.0000000000
     14118       455  AGAL      H2            -26.1709524403       -3.0054078675       86.0076373284  LPSA13    23             16.0000000000
     14119       455  AGAL      O2            -27.6243608498       -1.7659755271       85.5000844886  LPSA13    23             16.0000000000
     14120       455  AGAL      C3            -25.2488656749       -1.5858072765       84.9194901020  LPSA13    23             16.0000000000
     14121       455  AGAL      H3            -25.3613362378       -1.1883662916       83.8641570193  LPSA13    23             16.0000000000
     14122       455  AGAL      O3            -25.1468415199       -0.4599374192       85.7108298168  LPSA13    23             16.0000000000
     14123       455  AGAL      HO3           -25.3328524821       -0.7851608638       86.6206525111  LPSA13    23             16.0000000000
     14124       455  AGAL      C4            -24.0467845796       -2.4816275306       84.8901212015  LPSA13    23             16.0000000000
     14125       455  AGAL      H4            -23.1075814198       -1.9331786760       84.6506069022  LPSA13    23             16.0000000000
     14126       455  AGAL      O4            -23.7063554655       -3.1163506817       86.1132943683  LPSA13    23             16.0000000000
     14127       455  AGAL      HO4           -23.3873612773       -3.9120561298       85.8278371007  LPSA13    23             16.0000000000
     14128       455  AGAL      C6            -23.1335756108       -4.4000283416       83.3278962909  LPSA13    23             16.0000000000
     14129       455  AGAL      H61           -23.4730969605       -5.0970410138       82.6074235255  LPSA13    23             16.0000000000
     14130       455  AGAL      H62           -22.3713126365       -3.8565962436       82.7620574208  LPSA13    23             16.0000000000
     14131       455  AGAL      O6            -22.6554694925       -5.1381926160       84.3845202183  LPSA13    23             16.0000000000
     14132       455  AGAL      HO6           -21.9626572051       -5.7465369944       84.1740981585  LPSA13    23             16.0000000000
     14133       456  ARHM      C1            -28.6676655117       -2.3181657085       86.2818185944  LPSA13    24             17.0000000000
     14134       456  ARHM      H1            -28.4827768777       -3.3715136368       86.3680542693  LPSA13    24             17.0000000000
     14135       456  ARHM      C5            -30.4454129630       -0.8472368506       85.6157638072  LPSA13    24             17.0000000000
     14136       456  ARHM      H5            -29.7379888582       -0.3250818060       85.0070975499  LPSA13    24             17.0000000000
     14137       456  ARHM      O5            -30.0786659010       -2.2008445456       85.8657410059  LPSA13    24             17.0000000000
     14138       456  ARHM      C2            -28.4877274001       -1.6265093050       87.5921581840  LPSA13    24             17.0000000000
     14139       456  ARHM      H2            -27.4585397423       -1.5989774638       87.8984046741  LPSA13    24             17.0000000000
     14140       456  ARHM      O2            -29.3711695714       -2.1394548581       88.6075763533  LPSA13    24             17.0000000000
     14141       456  ARHM      C3            -28.9169035744       -0.1622833256       87.4133527752  LPSA13    24             17.0000000000
     14142       456  ARHM      H3            -28.2309967486        0.2458675428       86.6640279609  LPSA13    24             17.0000000000
     14143       456  ARHM      O3            -28.6519462441        0.6857747264       88.5620392964  LPSA13    24             17.0000000000
     14144       456  ARHM      HO3           -29.4351510561        0.5941011218       89.1463757531  LPSA13    24             17.0000000000
     14145       456  ARHM      C4            -30.3603127995       -0.0534722895       86.9402325015  LPSA13    24             17.0000000000
     14146       456  ARHM      H4            -31.0216539278       -0.6240334178       87.7071552895  LPSA13    24             17.0000000000
     14147       456  ARHM      O4            -30.8505261479        1.2658664633       86.8379508285  LPSA13    24             17.0000000000
     14148       456  ARHM      HO4           -31.7714582084        1.3568926250       87.0219124236  LPSA13    24             17.0000000000
     14149       456  ARHM      C6            -31.8605840207       -0.7070119616       84.9175891319  LPSA13    24             17.0000000000
     14150       456  ARHM      H61           -31.8912071302        0.2423885903       84.3853494017  LPSA13    24             17.0000000000
     14151       456  ARHM      H62           -31.9265656512       -1.5196790508       84.2649634992  LPSA13    24             17.0000000000
     14152       456  ARHM      H63           -32.6937903010       -0.8616678579       85.6811466487  LPSA13    24             17.0000000000
     14153       457  ARHM      C1            -28.8599744134       -3.3479611817       89.1588742089  LPSA13    25             18.0000000000
     14154       457  ARHM      H1            -28.1852631885       -3.7962618589       88.4722246341  LPSA13    25             18.0000000000
     14155       457  ARHM      C5            -30.9206905170       -4.0267023624       90.1670531641  LPSA13    25             18.0000000000
     14156       457  ARHM      H5            -31.4441556482       -3.1518198008       89.8870230824  LPSA13    25             18.0000000000
     14157       457  ARHM      O5            -29.8747505009       -4.3688791187       89.2315309535  LPSA13    25             18.0000000000
     14158       457  ARHM      C2            -28.2395803419       -3.0568783777       90.4685713243  LPSA13    25             18.0000000000
     14159       457  ARHM      H2            -27.5434841971       -2.1606402300       90.3413143991  LPSA13    25             18.0000000000
     14160       457  ARHM      O2            -27.4951114450       -4.2253121735       90.9328696740  LPSA13    25             18.0000000000
     14161       457  ARHM      C3            -29.4089624934       -2.7395800637       91.4562257518  LPSA13    25             18.0000000000
     14162       457  ARHM      H3            -29.9149135465       -1.8200740711       91.0689171631  LPSA13    25             18.0000000000
     14163       457  ARHM      O3            -28.7972918860       -2.4338032263       92.6920647463  LPSA13    25             18.0000000000
     14164       457  ARHM      C4            -30.3734581747       -3.7883257582       91.5960769721  LPSA13    25             18.0000000000
     14165       457  ARHM      H4            -29.8763797248       -4.8042924018       91.8876801091  LPSA13    25             18.0000000000
     14166       457  ARHM      O4            -31.3098607674       -3.3628181044       92.5862492282  LPSA13    25             18.0000000000
     14167       457  ARHM      HO4           -31.5442555958       -4.1660241166       93.0149361445  LPSA13    25             18.0000000000
     14168       457  ARHM      C6            -32.0197790272       -5.0872954068       90.2083352735  LPSA13    25             18.0000000000
     14169       457  ARHM      H61           -32.3746496055       -5.3612488831       89.1912344565  LPSA13    25             18.0000000000
     14170       457  ARHM      H62           -31.6880822737       -6.0570679717       90.6686969550  LPSA13    25             18.0000000000
     14171       457  ARHM      H63           -32.9438761506       -4.7659192959       90.8233913566  LPSA13    25             18.0000000000
     14172       458  BMANNA    C1            -26.2412658925       -4.3887181072       90.3138108879  LPSA13    26             19.0000000000
     14173       458  BMANNA    H1            -25.8767736003       -3.4307151230       89.8388342826  LPSA13    26             19.0000000000
     14174       458  BMANNA    C5            -24.8940162769       -5.4135323135       88.6312665858  LPSA13    26             19.0000000000
     14175       458  BMANNA    H5            -24.7148864716       -4.4386081834       88.1771240033  LPSA13    26             19.0000000000
     14176       458  BMANNA    O5            -26.1931462273       -5.3614397658       89.2346891933  LPSA13    26             19.0000000000
     14177       458  BMANNA    C2            -25.2995977029       -4.7702001901       91.3475147821  LPSA13    26             19.0000000000
     14178       458  BMANNA    H2            -25.3528886126       -3.9236661786       92.1081287357  LPSA13    26             19.0000000000
     14179       458  BMANNA    N             -25.7365650535       -6.0613248632       91.9238920796  LPSA13    26             19.0000000000
     14180       458  BMANNA    HN            -25.8454124724       -6.7859981382       91.3050515894  LPSA13    26             19.0000000000
     14181       458  BMANNA    C             -25.8856218145       -6.3036044942       93.1798471680  LPSA13    26             19.0000000000
     14182       458  BMANNA    O             -25.8477749071       -5.3697156197       94.0003587425  LPSA13    26             19.0000000000
     14183       458  BMANNA    CT            -26.0858269538       -7.7350570612       93.6758917343  LPSA13    26             19.0000000000
     14184       458  BMANNA    HT1           -26.4488446914       -8.2921631650       92.8666282051  LPSA13    26             19.0000000000
     14185       458  BMANNA    HT2           -26.5980616289       -7.9774254665       94.6620984389  LPSA13    26             19.0000000000
     14186       458  BMANNA    HT3           -25.0715360671       -8.1147757246       93.8484898219  LPSA13    26             19.0000000000
     14187       458  BMANNA    C3            -23.9073704024       -4.7875397736       90.7100883268  LPSA13    26             19.0000000000
     14188       458  BMANNA    H3            -23.6899458275       -3.7551397064       90.3384445889  LPSA13    26             19.0000000000
     14189       458  BMANNA    O3            -22.9411618510       -5.0493235775       91.7636866611  LPSA13    26             19.0000000000
     14190       458  BMANNA    HO3           -22.9166731540       -4.2203108991       92.2265744207  LPSA13    26             19.0000000000
     14191       458  BMANNA    C4            -23.8976074599       -5.7415150195       89.6481622736  LPSA13    26             19.0000000000
     14192       458  BMANNA    H4            -24.1217784053       -6.8180016145       89.9013799111  LPSA13    26             19.0000000000
     14193       458  BMANNA    O4            -22.6156103352       -5.8236102873       89.0416847738  LPSA13    26             19.0000000000
     14194       458  BMANNA    HO4           -22.0760385281       -6.4198137478       89.5591157304  LPSA13    26             19.0000000000
     14195       458  BMANNA    C6            -25.0773066716       -6.3381694192       87.3900617492  LPSA13    26             19.0000000000
     14196       458  BMANNA    H61           -26.0671510110       -6.2034707917       86.9191763972  LPSA13    26             19.0000000000
     14197       458  BMANNA    H62           -24.3409475128       -6.1597606637       86.6504270337  LPSA13    26             19.0000000000
     14198       458  BMANNA    O6            -24.9596117080       -7.7145827079       87.7329108337  LPSA13    26             19.0000000000
     14199       458  BMANNA    HO6           -24.1461796706       -7.8628889421       88.1688153196  LPSA13    26             19.0000000000
     14200       459  BGLCNA    C1            -29.1276748580       -1.3737204752       93.4616184899  LPSA13    27             19.0000000000
     14201       459  BGLCNA    H1            -30.1994076758       -1.2026328009       93.4392217979  LPSA13    27             19.0000000000
     14202       459  BGLCNA    C5            -28.9628712994        0.9415917470       93.9656603721  LPSA13    27             19.0000000000
     14203       459  BGLCNA    H5            -30.0829100500        0.9561821298       93.9564344452  LPSA13    27             19.0000000000
     14204       459  BGLCNA    O5            -28.5782526854       -0.1024603280       93.0607755266  LPSA13    27             19.0000000000
     14205       459  BGLCNA    C2            -28.6861859265       -1.7393139206       94.8806799918  LPSA13    27             19.0000000000
     14206       459  BGLCNA    H2            -27.5831689476       -1.7802261505       94.8757458582  LPSA13    27             19.0000000000
     14207       459  BGLCNA    N             -29.2084384109       -3.0416032516       95.2501113516  LPSA13    27             19.0000000000
     14208       459  BGLCNA    HN            -30.2389465574       -3.1871925758       95.0827132934  LPSA13    27             19.0000000000
     14209       459  BGLCNA    C             -28.3365892808       -3.8676160357       95.9523160909  LPSA13    27             19.0000000000
     14210       459  BGLCNA    O             -27.2644590333       -3.5032709133       96.5238801166  LPSA13    27             19.0000000000
     14211       459  BGLCNA    CT            -28.8033313612       -5.3543468235       96.0293745529  LPSA13    27             19.0000000000
     14212       459  BGLCNA    HT1           -29.6927178709       -5.5244080321       95.3635606282  LPSA13    27             19.0000000000
     14213       459  BGLCNA    HT2           -28.9809012425       -5.7185240961       97.0167906789  LPSA13    27             19.0000000000
     14214       459  BGLCNA    HT3           -27.8950055582       -5.9978013686       95.7039804309  LPSA13    27             19.0000000000
     14215       459  BGLCNA    C3            -29.0905248723       -0.6543603271       95.7540348103  LPSA13    27             19.0000000000
     14216       459  BGLCNA    H3            -30.1968418684       -0.4908311406       95.7401190096  LPSA13    27             19.0000000000
     14217       459  BGLCNA    O3            -28.6593862622       -1.1214416668       97.0775356047  LPSA13    27             19.0000000000
     14218       459  BGLCNA    C4            -28.4781094349        0.7006005143       95.3486864533  LPSA13    27             19.0000000000
     14219       459  BGLCNA    H4            -27.3683981942        0.6072004108       95.3090014479  LPSA13    27             19.0000000000
     14220       459  BGLCNA    O4            -28.8486548067        1.7086811612       96.2156872787  LPSA13    27             19.0000000000
     14221       459  BGLCNA    HO4           -29.7539606058        1.8397099976       96.0162444362  LPSA13    27             19.0000000000
     14222       459  BGLCNA    C6            -28.5028425027        2.2758044970       93.2852949846  LPSA13    27             19.0000000000
     14223       459  BGLCNA    H61           -28.9951246436        3.0689112130       93.8557506920  LPSA13    27             19.0000000000
     14224       459  BGLCNA    H62           -27.4149867642        2.4365400853       93.4725180191  LPSA13    27             19.0000000000
     14225       459  BGLCNA    O6            -28.8372330165        2.2997167622       91.9076175409  LPSA13    27             19.0000000000
     14226       459  BGLCNA    HO6           -28.5043623121        3.1420723309       91.5273290588  LPSA13    27             19.0000000000
     14227       460  AGAL      C1            -29.2018869344       -0.4906030672       98.2622020222  LPSA13    28             20.0000000000
     14228       460  AGAL      H1            -28.8213558666        0.4943407580       98.3007149491  LPSA13    28             20.0000000000
     14229       460  AGAL      C5            -31.3380881336       -1.6336760003       98.1710438288  LPSA13    28             20.0000000000
     14230       460  AGAL      H5            -30.8212111029       -2.4442540227       97.4646141937  LPSA13    28             20.0000000000
     14231       460  AGAL      O5            -30.6119705114       -0.3382637868       98.1147365872  LPSA13    28             20.0000000000
     14232       460  AGAL      C2            -28.9714800429       -1.1772060040       99.6197190629  LPSA13    28             20.0000000000
     14233       460  AGAL      H2            -29.4807507536       -0.4943717873      100.2965066153  LPSA13    28             20.0000000000
     14234       460  AGAL      O2            -27.6307273574       -1.2578999244      100.0788731798  LPSA13    28             20.0000000000
     14235       460  AGAL      C3            -29.6852471754       -2.4869480181       99.7396972452  LPSA13    28             20.0000000000
     14236       460  AGAL      H3            -29.3646245415       -3.1300274409       98.8607737785  LPSA13    28             20.0000000000
     14237       460  AGAL      O3            -29.4595739226       -3.3048971232      100.9043404272  LPSA13    28             20.0000000000
     14238       460  AGAL      HO3           -29.0467997246       -4.1209665296      100.5606486229  LPSA13    28             20.0000000000
     14239       460  AGAL      C4            -31.1273146220       -2.2698955665       99.5102226768  LPSA13    28             20.0000000000
     14240       460  AGAL      H4            -31.6000396512       -3.2225268677       99.4798298294  LPSA13    28             20.0000000000
     14241       460  AGAL      O4            -31.7381922757       -1.4749546054      100.4757933835  LPSA13    28             20.0000000000
     14242       460  AGAL      HO4           -32.1919146701       -2.0608941031      101.0376442747  LPSA13    28             20.0000000000
     14243       460  AGAL      C6            -32.7721154394       -1.5865851899       97.6362902244  LPSA13    28             20.0000000000
     14244       460  AGAL      H61           -32.7495459383       -1.3226680732       96.5809275898  LPSA13    28             20.0000000000
     14245       460  AGAL      H62           -33.4065880204       -2.5384454625       97.7651048223  LPSA13    28             20.0000000000
     14246       460  AGAL      O6            -33.5098862286       -0.6129831776       98.3456070822  LPSA13    28             20.0000000000
     14247       460  AGAL      HO6           -33.3957997525        0.2482450637       97.9416813930  LPSA13    28             20.0000000000
     14248       461  ARHM      C1            -27.5927021578       -0.9015140738      101.4808913342  LPSA13    29             21.0000000000
     14249       461  ARHM      H1            -28.5774200401       -1.1452728672      101.9964955809  LPSA13    29             21.0000000000
     14250       461  ARHM      C5            -26.0764373428        0.8602888094      101.1486206043  LPSA13    29             21.0000000000
     14251       461  ARHM      H5            -26.0841535236        0.5211907925      100.0935446791  LPSA13    29             21.0000000000
     14252       461  ARHM      O5            -27.3037963952        0.4529007505      101.6833506475  LPSA13    29             21.0000000000
     14253       461  ARHM      C2            -26.6074853900       -1.7578292683      102.1437305515  LPSA13    29             21.0000000000
     14254       461  ARHM      H2            -26.7564683912       -2.7913231652      101.9067628034  LPSA13    29             21.0000000000
     14255       461  ARHM      O2            -26.6423493362       -1.6187375802      103.5748524404  LPSA13    29             21.0000000000
     14256       461  ARHM      C3            -25.2508272573       -1.3684898212      101.6289418068  LPSA13    29             21.0000000000
     14257       461  ARHM      H3            -25.1904046746       -1.6264150981      100.4952263366  LPSA13    29             21.0000000000
     14258       461  ARHM      O3            -24.3015956895       -2.2278205600      102.1995749427  LPSA13    29             21.0000000000
     14259       461  ARHM      HO3           -23.5340380219       -1.7646863095      102.2092645043  LPSA13    29             21.0000000000
     14260       461  ARHM      C4            -24.9261361938        0.0470606520      101.8247918557  LPSA13    29             21.0000000000
     14261       461  ARHM      H4            -24.8662181317        0.3177658659      102.9338171738  LPSA13    29             21.0000000000
     14262       461  ARHM      O4            -23.6434704628        0.5103529420      101.3452167393  LPSA13    29             21.0000000000
     14263       461  ARHM      HO4           -23.3957153105        0.1621717787      100.4362974805  LPSA13    29             21.0000000000
     14264       461  ARHM      C6            -26.0492631656        2.3975262679      101.2162231226  LPSA13    29             21.0000000000
     14265       461  ARHM      H61           -27.0681259234        2.6868919851      100.7685423143  LPSA13    29             21.0000000000
     14266       461  ARHM      H62           -26.0317604508        2.7103402710      102.3013153741  LPSA13    29             21.0000000000
     14267       461  ARHM      H63           -25.2149461647        2.7620796981      100.6072571094  LPSA13    29             21.0000000000
     14268       462  ARHM      C1            -27.3334930920       -2.5068550069      104.3945976075  LPSA13    30             22.0000000000
     14269       462  ARHM      H1            -26.9463037219       -3.5328827087      104.2094096401  LPSA13    30             22.0000000000
     14270       462  ARHM      C5            -29.3598313863       -1.1639360955      104.5143062533  LPSA13    30             22.0000000000
     14271       462  ARHM      H5            -28.7058201109       -0.4620708161      103.8668162917  LPSA13    30             22.0000000000
     14272       462  ARHM      O5            -28.7633823920       -2.4549589585      104.2052433351  LPSA13    30             22.0000000000
     14273       462  ARHM      C2            -27.0495128093       -2.1694740156      105.8471183130  LPSA13    30             22.0000000000
     14274       462  ARHM      H2            -26.0243325696       -2.1772624656      106.0289718167  LPSA13    30             22.0000000000
     14275       462  ARHM      O2            -27.7656217281       -3.1034648184      106.5813641610  LPSA13    30             22.0000000000
     14276       462  ARHM      C3            -27.6369722840       -0.8870538369      106.2079894766  LPSA13    30             22.0000000000
     14277       462  ARHM      H3            -27.2955288419       -0.1553555757      105.5270001340  LPSA13    30             22.0000000000
     14278       462  ARHM      O3            -27.2658897149       -0.4253393533      107.5373891676  LPSA13    30             22.0000000000
     14279       462  ARHM      C4            -29.1503357290       -0.8498201914      105.9708288384  LPSA13    30             22.0000000000
     14280       462  ARHM      H4            -29.6913334728       -1.6085359884      106.5400372406  LPSA13    30             22.0000000000
     14281       462  ARHM      O4            -29.7752615212        0.3105589350      106.2997755749  LPSA13    30             22.0000000000
     14282       462  ARHM      HO4           -29.7384496486        1.0639918011      105.6964454668  LPSA13    30             22.0000000000
     14283       462  ARHM      C6            -30.8046127280       -1.1454179797      104.0930490251  LPSA13    30             22.0000000000
     14284       462  ARHM      H61           -31.1669692641       -0.0867755461      104.2143179997  LPSA13    30             22.0000000000
     14285       462  ARHM      H62           -30.8573009252       -1.2906149932      103.0019050467  LPSA13    30             22.0000000000
     14286       462  ARHM      H63           -31.4560542369       -1.8915014009      104.6493652223  LPSA13    30             22.0000000000
     14287       463  BMANNA    C1            -27.0646268092       -4.2703270346      106.9502319096  LPSA13    31             23.0000000000
     14288       463  BMANNA    H1            -26.0097143249       -3.9802185426      107.1550799008  LPSA13    31             23.0000000000
     14289       463  BMANNA    C5            -26.2803046763       -6.4505237428      106.2136717625  LPSA13    31             23.0000000000
     14290       463  BMANNA    H5            -25.3049921244       -6.0682737435      106.5467054000  LPSA13    31             23.0000000000
     14291       463  BMANNA    O5            -27.0622416816       -5.2682027745      105.8742289322  LPSA13    31             23.0000000000
     14292       463  BMANNA    C2            -27.6921309399       -4.8770435065      108.0830629221  LPSA13    31             23.0000000000
     14293       463  BMANNA    H2            -27.5751433982       -4.1430574464      108.9031915743  LPSA13    31             23.0000000000
     14294       463  BMANNA    N             -29.0822224042       -5.0305063438      107.8252935315  LPSA13    31             23.0000000000
     14295       463  BMANNA    HN            -29.3719378980       -5.1062653036      106.8111160773  LPSA13    31             23.0000000000
     14296       463  BMANNA    C             -30.0090486155       -5.0300703347      108.7868858964  LPSA13    31             23.0000000000
     14297       463  BMANNA    O             -29.7294998440       -4.8204669647      109.9536662434  LPSA13    31             23.0000000000
     14298       463  BMANNA    CT            -31.4503396896       -5.2921708493      108.3237946568  LPSA13    31             23.0000000000
     14299       463  BMANNA    HT1           -31.4224655822       -6.0411895129      107.5739831696  LPSA13    31             23.0000000000
     14300       463  BMANNA    HT2           -31.8499880011       -4.3494142556      107.9347099034  LPSA13    31             23.0000000000
     14301       463  BMANNA    HT3           -32.1065523640       -5.5261064942      109.1768357935  LPSA13    31             23.0000000000
     14302       463  BMANNA    C3            -26.9210524773       -6.0903791893      108.4884560283  LPSA13    31             23.0000000000
     14303       463  BMANNA    H3            -25.8132665961       -5.8462810587      108.6988550870  LPSA13    31             23.0000000000
     14304       463  BMANNA    O3            -27.3689922772       -6.6107691951      109.7404994872  LPSA13    31             23.0000000000
     14305       463  BMANNA    HO3           -27.8153709860       -5.8298205781      110.0111610137  LPSA13    31             23.0000000000
     14306       463  BMANNA    C4            -26.9555831837       -7.1076700943      107.4199857710  LPSA13    31             23.0000000000
     14307       463  BMANNA    H4            -28.0305802576       -7.4673970869      107.0572414185  LPSA13    31             23.0000000000
     14308       463  BMANNA    O4            -26.2860013504       -8.2828729579      107.8525671122  LPSA13    31             23.0000000000
     14309       463  BMANNA    HO4           -25.3835313240       -8.0934496372      108.1943429300  LPSA13    31             23.0000000000
     14310       463  BMANNA    C6            -26.1531364778       -7.4487901952      105.0512686782  LPSA13    31             23.0000000000
     14311       463  BMANNA    H61           -25.3451231270       -8.2338102662      105.3397811046  LPSA13    31             23.0000000000
     14312       463  BMANNA    H62           -27.0703488671       -8.0016519895      104.8698551944  LPSA13    31             23.0000000000
     14313       463  BMANNA    O6            -25.7691517132       -6.7980363315      103.8241467834  LPSA13    31             23.0000000000
     14314       463  BMANNA    HO6           -24.8249326362       -6.4714015444      103.8134147631  LPSA13    31             23.0000000000
     14315       464  BGLCNA    C1            -27.9734211480       -0.9516548067      108.6103969990  LPSA13    32             23.0000000000
     14316       464  BGLCNA    H1            -28.2569370271       -2.0377201974      108.4325564695  LPSA13    32             23.0000000000
     14317       464  BGLCNA    C5            -29.9990994697       -0.8828977588      109.9277617404  LPSA13    32             23.0000000000
     14318       464  BGLCNA    H5            -30.1867765982       -1.9481142575      109.5374749077  LPSA13    32             23.0000000000
     14319       464  BGLCNA    O5            -29.1750206527       -0.2546466505      108.9423333575  LPSA13    32             23.0000000000
     14320       464  BGLCNA    C2            -27.1448094256       -0.9822433876      109.8194522937  LPSA13    32             23.0000000000
     14321       464  BGLCNA    H2            -27.0565100065        0.0393060211      110.1044894257  LPSA13    32             23.0000000000
     14322       464  BGLCNA    N             -25.8592372641       -1.5511091024      109.5956973249  LPSA13    32             23.0000000000
     14323       464  BGLCNA    HN            -25.9379545160       -2.2751894413      108.8809076996  LPSA13    32             23.0000000000
     14324       464  BGLCNA    C             -24.6541800064       -1.1828959105      110.0864625708  LPSA13    32             23.0000000000
     14325       464  BGLCNA    O             -24.5305404638       -0.2951520069      110.9304085025  LPSA13    32             23.0000000000
     14326       464  BGLCNA    CT            -23.4186547582       -1.9622718174      109.5841031968  LPSA13    32             23.0000000000
     14327       464  BGLCNA    HT1           -23.8759080802       -2.4623488011      108.6281101354  LPSA13    32             23.0000000000
     14328       464  BGLCNA    HT2           -23.0815937419       -2.7654313061      110.1898124037  LPSA13    32             23.0000000000
     14329       464  BGLCNA    HT3           -22.5664983639       -1.2927325574      109.3122359934  LPSA13    32             23.0000000000
     14330       464  BGLCNA    C3            -27.8981404351       -1.7100136805      110.8930231790  LPSA13    32             23.0000000000
     14331       464  BGLCNA    H3            -28.1851850124       -2.6254319731      110.4606187373  LPSA13    32             23.0000000000
     14332       464  BGLCNA    O3            -27.1224514959       -2.0065356360      112.0657798240  LPSA13    32             23.0000000000
     14333       464  BGLCNA    C4            -29.1491707016       -0.9221822656      111.1707572500  LPSA13    32             23.0000000000
     14334       464  BGLCNA    H4            -28.8275481397        0.0924701199      111.5318289610  LPSA13    32             23.0000000000
     14335       464  BGLCNA    O4            -29.9024420538       -1.4949670892      112.2070236435  LPSA13    32             23.0000000000
     14336       464  BGLCNA    HO4           -29.6618820505       -1.1391748213      113.0745323218  LPSA13    32             23.0000000000
     14337       464  BGLCNA    C6            -31.3288927399       -0.1644930773      110.0229508171  LPSA13    32             23.0000000000
     14338       464  BGLCNA    H61           -32.0590062540       -0.7205544140      110.7194343748  LPSA13    32             23.0000000000
     14339       464  BGLCNA    H62           -31.1735845994        0.8477626836      110.5717638480  LPSA13    32             23.0000000000
     14340       464  BGLCNA    O6            -31.9749451671       -0.0579226157      108.7709294272  LPSA13    32             23.0000000000
     14341       464  BGLCNA    HO6           -31.8086802872       -0.8755992436      108.2360311317  LPSA13    32             23.0000000000
     14342       465  AGAL      C1            -27.4159859115       -3.2878479065      112.6842874521  LPSA13    33             24.0000000000
     14343       465  AGAL      H1            -28.4959259453       -3.4307284217      112.5979959475  LPSA13    33             24.0000000000
     14344       465  AGAL      C5            -25.2908562476       -4.2345779513      112.2149219831  LPSA13    33             24.0000000000
     14345       465  AGAL      H5            -25.0839704610       -3.2027592295      111.8792915250  LPSA13    33             24.0000000000
     14346       465  AGAL      O5            -26.6867002894       -4.3982080389      112.0726784748  LPSA13    33             24.0000000000
     14347       465  AGAL      C2            -26.9933958901       -3.1867829407      114.1482787662  LPSA13    33             24.0000000000
     14348       465  AGAL      H2            -27.1456337041       -4.2525096377      114.5751854976  LPSA13    33             24.0000000000
     14349       465  AGAL      O2            -27.9349842243       -2.3956906523      114.8486222260  LPSA13    33             24.0000000000
     14350       465  AGAL      C3            -25.4989821391       -3.0419016754      114.2945545625  LPSA13    33             24.0000000000
     14351       465  AGAL      H3            -25.1348310911       -2.1102421131      113.7405815065  LPSA13    33             24.0000000000
     14352       465  AGAL      O3            -25.0815644056       -2.7653994486      115.5672660328  LPSA13    33             24.0000000000
     14353       465  AGAL      HO3           -25.3769444114       -3.3418678327      116.2400186851  LPSA13    33             24.0000000000
     14354       465  AGAL      C4            -24.7829806647       -4.2176124930      113.6708488317  LPSA13    33             24.0000000000
     14355       465  AGAL      H4            -23.6963084108       -4.0693146242      113.6729875792  LPSA13    33             24.0000000000
     14356       465  AGAL      O4            -24.9909767521       -5.5292135641      114.2435538900  LPSA13    33             24.0000000000
     14357       465  AGAL      HO4           -25.6692141943       -5.5421474826      114.9085525172  LPSA13    33             24.0000000000
     14358       465  AGAL      C6            -24.5160098558       -5.1523207292      111.2992528405  LPSA13    33             24.0000000000
     14359       465  AGAL      H61           -24.8206405030       -4.8448174814      110.2783408757  LPSA13    33             24.0000000000
     14360       465  AGAL      H62           -23.4124554721       -5.0879686421      111.3458027743  LPSA13    33             24.0000000000
     14361       465  AGAL      O6            -24.7308510961       -6.5240744190      111.4129476537  LPSA13    33             24.0000000000
     14362       465  AGAL      HO6           -25.4716224935       -6.8553959065      110.8444757795  LPSA13    33             24.0000000000
     14363       466  ARHM      C1            -28.4351407362       -2.9733943069      116.0109133884  LPSA13    34             25.0000000000
     14364       466  ARHM      H1            -27.6417825795       -3.4135273306      116.6389743656  LPSA13    34             25.0000000000
     14365       466  ARHM      C5            -30.5408588699       -3.7043302542      115.0727799907  LPSA13    34             25.0000000000
     14366       466  ARHM      H5            -30.1772291997       -3.3895165303      114.0209633333  LPSA13    34             25.0000000000
     14367       466  ARHM      O5            -29.3721574351       -4.0634332546      115.8926868953  LPSA13    34             25.0000000000
     14368       466  ARHM      C2            -29.0584053996       -1.8290665955      116.7601555753  LPSA13    34             25.0000000000
     14369       466  ARHM      H2            -28.4213953982       -0.9098542885      116.8710959342  LPSA13    34             25.0000000000
     14370       466  ARHM      O2            -29.4929036872       -2.1558088375      118.1592972339  LPSA13    34             25.0000000000
     14371       466  ARHM      C3            -30.2982868941       -1.3830149427      115.9988665506  LPSA13    34             25.0000000000
     14372       466  ARHM      H3            -30.0469973108       -1.0757625722      114.9724172480  LPSA13    34             25.0000000000
     14373       466  ARHM      O3            -31.0388584405       -0.2864648715      116.5878695042  LPSA13    34             25.0000000000
     14374       466  ARHM      HO3           -31.3881734136        0.3339685864      115.9559434517  LPSA13    34             25.0000000000
     14375       466  ARHM      C4            -31.3111423678       -2.5432356215      115.7987835878  LPSA13    34             25.0000000000
     14376       466  ARHM      H4            -31.5855296400       -3.0293372539      116.7495315617  LPSA13    34             25.0000000000
     14377       466  ARHM      O4            -32.4581380534       -2.1557275570      115.1362621200  LPSA13    34             25.0000000000
     14378       466  ARHM      HO4           -33.0584619364       -1.6678075314      115.6953140327  LPSA13    34             25.0000000000
     14379       466  ARHM      C6            -31.4879654713       -4.9359225306      114.8413279703  LPSA13    34             25.0000000000
     14380       466  ARHM      H61           -31.9524553240       -5.3388349861      115.7172490283  LPSA13    34             25.0000000000
     14381       466  ARHM      H62           -32.4214640390       -4.5450066651      114.3996926230  LPSA13    34             25.0000000000
     14382       466  ARHM      H63           -31.1190398706       -5.7239797250      114.1590834060  LPSA13    34             25.0000000000
     14383       467  ARHM      C1            -28.4869857966       -2.6268014168      119.0795908573  LPSA13    35             26.0000000000
     14384       467  ARHM      H1            -27.5026332083       -2.0299543205      118.8787348947  LPSA13    35             26.0000000000
     14385       467  ARHM      C5            -29.3918839896       -4.8755074401      119.2408916176  LPSA13    35             26.0000000000
     14386       467  ARHM      H5            -30.2689162461       -4.6026043741      118.5254732223  LPSA13    35             26.0000000000
     14387       467  ARHM      O5            -28.1860358239       -4.0782091967      118.9290334222  LPSA13    35             26.0000000000
     14388       467  ARHM      C2            -28.9238202959       -2.3460474820      120.5365485050  LPSA13    35             26.0000000000
     14389       467  ARHM      H2            -29.0413716060       -1.2391644106      120.7134209997  LPSA13    35             26.0000000000
     14390       467  ARHM      O2            -27.9472476920       -2.7719763691      121.4126203716  LPSA13    35             26.0000000000
     14391       467  ARHM      C3            -30.2179232416       -3.1209128138      120.8720061906  LPSA13    35             26.0000000000
     14392       467  ARHM      H3            -31.0005240696       -2.7453751406      120.1344793452  LPSA13    35             26.0000000000
     14393       467  ARHM      O3            -30.7058942854       -2.7842535354      122.1540075829  LPSA13    35             26.0000000000
     14394       467  ARHM      HO3           -29.9577959541       -2.6084493204      122.7288731339  LPSA13    35             26.0000000000
     14395       467  ARHM      C4            -29.9245610641       -4.5833728872      120.6788917534  LPSA13    35             26.0000000000
     14396       467  ARHM      H4            -29.0950164839       -4.9737242692      121.3307119103  LPSA13    35             26.0000000000
     14397       467  ARHM      O4            -31.1523675914       -5.2864679409      120.9693790153  LPSA13    35             26.0000000000
     14398       467  ARHM      HO4           -31.9507974279       -4.8804308097      120.5581709812  LPSA13    35             26.0000000000
     14399       467  ARHM      C6            -29.1352267580       -6.3752863953      118.8642347863  LPSA13    35             26.0000000000
     14400       467  ARHM      H61           -28.9988746706       -6.4966984587      117.7433556958  LPSA13    35             26.0000000000
     14401       467  ARHM      H62           -28.2353227729       -6.5947561505      119.4176110492  LPSA13    35             26.0000000000
     14402       467  ARHM      H63           -30.0968841694       -6.9300949740      119.0633705917  LPSA13    35             26.0000000000
     14403       468  BMANNA    C1            -26.7702716721       -2.0223969071      121.4471464502  LPSA13    36             27.0000000000
     14404       468  BMANNA    H1            -26.9431071542       -0.9768781020      121.0972061898  LPSA13    36             27.0000000000
     14405       468  BMANNA    C5            -24.5164767253       -1.5119757573      120.7299884793  LPSA13    36             27.0000000000
     14406       468  BMANNA    H5            -24.8922855158       -0.5262735123      120.4610684421  LPSA13    36             27.0000000000
     14407       468  BMANNA    O5            -25.6260627885       -2.4636753227      120.6641532654  LPSA13    36             27.0000000000
     14408       468  BMANNA    C2            -26.3052591896       -1.9264488597      122.8920138725  LPSA13    36             27.0000000000
     14409       468  BMANNA    H2            -27.1466903028       -1.5032441453      123.4719477421  LPSA13    36             27.0000000000
     14410       468  BMANNA    N             -26.0194205479       -3.2522260251      123.4395449790  LPSA13    36             27.0000000000
     14411       468  BMANNA    HN            -25.5281911034       -3.9222389822      122.8746519580  LPSA13    36             27.0000000000
     14412       468  BMANNA    C             -26.1292630715       -3.4942311323      124.7737151700  LPSA13    36             27.0000000000
     14413       468  BMANNA    O             -26.6107862317       -2.7331190785      125.6190347561  LPSA13    36             27.0000000000
     14414       468  BMANNA    CT            -25.5886143483       -4.7700171841      125.3570716528  LPSA13    36             27.0000000000
     14415       468  BMANNA    HT1           -24.6399638160       -5.0353297714      124.8802869227  LPSA13    36             27.0000000000
     14416       468  BMANNA    HT2           -26.2483799756       -5.6643384841      125.1731404614  LPSA13    36             27.0000000000
     14417       468  BMANNA    HT3           -25.4730901641       -4.7913298918      126.4547536948  LPSA13    36             27.0000000000
     14418       468  BMANNA    C3            -25.1280383466       -0.9891330856      122.9763638711  LPSA13    36             27.0000000000
     14419       468  BMANNA    H3            -25.4123349528        0.0162018635      122.6403873786  LPSA13    36             27.0000000000
     14420       468  BMANNA    O3            -24.6692022204       -0.8086062496      124.3414054450  LPSA13    36             27.0000000000
     14421       468  BMANNA    HO3           -24.7462690782        0.0620633807      124.7171830083  LPSA13    36             27.0000000000
     14422       468  BMANNA    C4            -24.0071837410       -1.4366549062      122.1146940524  LPSA13    36             27.0000000000
     14423       468  BMANNA    H4            -23.6080122533       -2.3759949769      122.4263894750  LPSA13    36             27.0000000000
     14424       468  BMANNA    O4            -22.8883636729       -0.5582074429      122.2172873890  LPSA13    36             27.0000000000
     14425       468  BMANNA    HO4           -22.7725422282       -0.6206022646      123.1985163392  LPSA13    36             27.0000000000
     14426       468  BMANNA    C6            -23.4924729222       -1.9026020586      119.7412642597  LPSA13    36             27.0000000000
     14427       468  BMANNA    H61           -23.8896216944       -1.8690059686      118.6946701192  LPSA13    36             27.0000000000
     14428       468  BMANNA    H62           -22.7901745381       -1.0640454770      119.7045442506  LPSA13    36             27.0000000000
     14429       468  BMANNA    O6            -22.8274171459       -3.1694397408      120.0914698020  LPSA13    36             27.0000000000
     14430       468  BMANNA    HO6           -22.0788478903       -2.9246408439      120.6476247167  LPSA13    36             27.0000000000
     14431       469  ECLIPA    HB6S           19.6371758733       22.8271353099       20.4612168218  LPSA14    1               0.0000000000
     14432       469  ECLIPA    OB6            21.1050353248       23.4083873967       21.7140249152  LPSA14    1               0.0000000000
     14433       469  ECLIPA    CB6            20.0882314539       23.7512395104       20.7042159014  LPSA14    1               0.0000000000
     14434       469  ECLIPA    HB6R           19.4477088131       24.5400464372       21.0541931349  LPSA14    1               0.0000000000
     14435       469  ECLIPA    CB5            20.7263348927       24.3881280092       19.3988764877  LPSA14    1               0.0000000000
     14436       469  ECLIPA    OB5            21.7468214247       23.3987517384       18.9716901872  LPSA14    1               0.0000000000
     14437       469  ECLIPA    HB5            21.2533760184       25.2840600402       19.7771798410  LPSA14    1               0.0000000000
     14438       469  ECLIPA    CB1            22.4085697668       23.8622951552       17.7717324898  LPSA14    1               0.0000000000
     14439       469  ECLIPA    HB1            22.9314635098       24.8354024288       17.9003641080  LPSA14    1               0.0000000000
     14440       469  ECLIPA    OA6            23.3245731094       22.9099061919       17.3217246577  LPSA14    1               0.0000000000
     14441       469  ECLIPA    CA6            23.0785041439       21.5101323573       17.5745106853  LPSA14    1               0.0000000000
     14442       469  ECLIPA    HA6R           21.9884929417       21.3700455115       17.7226451425  LPSA14    1               0.0000000000
     14443       469  ECLIPA    HA6S           23.7600616125       21.1889441060       18.4598965841  LPSA14    1               0.0000000000
     14444       469  ECLIPA    CB4            19.6630354258       24.6748473470       18.3206521937  LPSA14    1               0.0000000000
     14445       469  ECLIPA    HB4            19.1410562508       23.7458977514       18.0085584641  LPSA14    1               0.0000000000
     14446       469  ECLIPA    OB4            18.9056414268       25.7588451814       18.9017319965  LPSA14    1               0.0000000000
     14447       469  ECLIPA    PB             17.3710282374       25.5160922353       19.3234616795  LPSA14    1               0.0000000000
     14448       469  ECLIPA    OPB4           17.0961572819       26.3948253534       20.5579515876  LPSA14    1               0.0000000000
     14449       469  ECLIPA    OPB3           17.3932266207       24.0055030553       19.6614545037  LPSA14    1               0.0000000000
     14450       469  ECLIPA    OPB2           16.5090170191       25.7938647656       18.0829495795  LPSA14    1               0.0000000000
     14451       469  ECLIPA    CB3            20.4238720624       25.1441253131       17.0955893951  LPSA14    1               0.0000000000
     14452       469  ECLIPA    OB3            19.6307045935       25.3788170507       15.9186528231  LPSA14    1               0.0000000000
     14453       469  ECLIPA    HB3            21.1316575565       25.9969759539       17.3284540628  LPSA14    1               0.0000000000
     14454       469  ECLIPA    C71            19.1951401999       26.5731289580       15.6929469039  LPSA14    1               0.0000000000
     14455       469  ECLIPA    O71            19.5021492643       27.5726265178       16.3832172580  LPSA14    1               0.0000000000
     14456       469  ECLIPA    C72            18.4109457359       26.5429125699       14.3548430386  LPSA14    1               0.0000000000
     14457       469  ECLIPA    H72R           19.0755818912       26.1698925241       13.5774555414  LPSA14    1               0.0000000000
     14458       469  ECLIPA    H72S           17.9705564547       27.6073899124       14.1464415926  LPSA14    1               0.0000000000
     14459       469  ECLIPA    CB2            21.4208096451       24.0471653952       16.6720734084  LPSA14    1               0.0000000000
     14460       469  ECLIPA    HB2            20.7781140312       23.0653783652       16.5298168153  LPSA14    1               0.0000000000
     14461       469  ECLIPA    NB2            22.1861959596       24.4016696621       15.4577284722  LPSA14    1               0.0000000000
     14462       469  ECLIPA    HNB2           23.0067726439       24.9543420556       15.5965609326  LPSA14    1               0.0000000000
     14463       469  ECLIPA    CA4            24.8030781634       21.1710170819       15.7929312798  LPSA14    1               0.0000000000
     14464       469  ECLIPA    HA4            24.7339063870       22.2469835384       15.4903430209  LPSA14    1               0.0000000000
     14465       469  ECLIPA    OA4            25.7569092223       21.0244170718       16.8012065728  LPSA14    1               0.0000000000
     14466       469  ECLIPA    HOA4           25.4871010780       21.3927264350       17.5928838569  LPSA14    1               0.0000000000
     14467       469  ECLIPA    CA5            23.5125025282       20.7421810972       16.3547806008  LPSA14    1               0.0000000000
     14468       469  ECLIPA    HA5            23.3781857455       19.6059833809       16.5880746347  LPSA14    1               0.0000000000
     14469       469  ECLIPA    OA5            22.5032320445       21.0006074399       15.3689671688  LPSA14    1               0.0000000000
     14470       469  ECLIPA    CA1            22.7853208008       20.2961439148       14.1076640156  LPSA14    1               0.0000000000
     14471       469  ECLIPA    HA1            22.1155972874       20.8729688111       13.4118188108  LPSA14    1               0.0000000000
     14472       469  ECLIPA    OA1            22.3937941598       18.9375544850       14.1359876212  LPSA14    1               0.0000000000
     14473       469  ECLIPA    OPA2           21.3482255950       17.7767257806       15.9734101064  LPSA14    1               0.0000000000
     14474       469  ECLIPA    OPA3           20.0453711339       19.6462992777       14.8300177673  LPSA14    1               0.0000000000
     14475       469  ECLIPA    OPA4           20.4138530603       17.5220138625       13.6615320840  LPSA14    1               0.0000000000
     14476       469  ECLIPA    PA             20.9851511614       18.4865287724       14.6765383084  LPSA14    1               0.0000000000
     14477       469  ECLIPA    CA3            25.1918216303       20.4295053352       14.5219348229  LPSA14    1               0.0000000000
     14478       469  ECLIPA    HA3            25.3458254171       19.3002893317       14.7377032538  LPSA14    1               0.0000000000
     14479       469  ECLIPA    OA3            26.5085007675       20.8742205911       14.2498111976  LPSA14    1               0.0000000000
     14480       469  ECLIPA    C31            26.6185903284       22.0174551011       13.5006246295  LPSA14    1               0.0000000000
     14481       469  ECLIPA    O31            26.4793465880       22.1088531903       12.2941239937  LPSA14    1               0.0000000000
     14482       469  ECLIPA    C32            27.4566876508       23.0427017873       14.2780289507  LPSA14    1               0.0000000000
     14483       469  ECLIPA    H32R           28.3915997256       23.2243684748       13.7149713840  LPSA14    1               0.0000000000
     14484       469  ECLIPA    H32S           27.6770796645       22.6641056792       15.2729523512  LPSA14    1               0.0000000000
     14485       469  ECLIPA    CA2            24.1066116382       20.7036723151       13.4984733916  LPSA14    1               0.0000000000
     14486       469  ECLIPA    HA2            24.0219637116       21.7888731059       13.3982259915  LPSA14    1               0.0000000000
     14487       469  ECLIPA    NA2            24.3298010313       20.0264797476       12.2035087571  LPSA14    1               0.0000000000
     14488       469  ECLIPA    HNA2           25.1994527030       19.6112850264       12.0865030408  LPSA14    1               0.0000000000
     14489       469  ECLIPA    C73            17.2057389495       25.6388068975       14.3319064372  LPSA14    1               0.0000000000
     14490       469  ECLIPA    H73R           16.5947783001       25.7256541441       15.2227416964  LPSA14    1               0.0000000000
     14491       469  ECLIPA    O73            17.7114997490       24.2823288834       14.2644256719  LPSA14    1               0.0000000000
     14492       469  ECLIPA    C81            17.1310534211       23.2246916461       14.8555734565  LPSA14    1               0.0000000000
     14493       469  ECLIPA    O81            16.1755798004       23.4268723959       15.6690894779  LPSA14    1               0.0000000000
     14494       469  ECLIPA    C82            17.7200551448       21.8917089707       14.3536111794  LPSA14    1               0.0000000000
     14495       469  ECLIPA    H82R           17.2669455054       21.0413398990       14.8531840528  LPSA14    1               0.0000000000
     14496       469  ECLIPA    H82S           18.8186031770       21.8376755910       14.5323473422  LPSA14    1               0.0000000000
     14497       469  ECLIPA    C83            17.5062999354       21.7634038886       12.8301722806  LPSA14    1               0.0000000000
     14498       469  ECLIPA    H83R           18.3074117560       22.3437297964       12.2351841548  LPSA14    1               0.0000000000
     14499       469  ECLIPA    H83S           16.5874358716       22.3017188780       12.5911296392  LPSA14    1               0.0000000000
     14500       469  ECLIPA    C84            17.6104985035       20.3168327473       12.3050927261  LPSA14    1               0.0000000000
     14501       469  ECLIPA    H84R           16.6907350334       19.7844216040       12.5767117503  LPSA14    1               0.0000000000
     14502       469  ECLIPA    H84S           18.5168806212       19.9493875591       12.7369555497  LPSA14    1               0.0000000000
     14503       469  ECLIPA    C85            17.7912824613       20.2914407396       10.7695484051  LPSA14    1               0.0000000000
     14504       469  ECLIPA    H85R           18.5257079776       21.0772142883       10.5503608829  LPSA14    1               0.0000000000
     14505       469  ECLIPA    H85S           16.8442557494       20.6108430158       10.2367999955  LPSA14    1               0.0000000000
     14506       469  ECLIPA    C86            18.4069261852       18.9429215962       10.3034592726  LPSA14    1               0.0000000000
     14507       469  ECLIPA    H86R           17.6272277708       18.1706097043        9.9932223571  LPSA14    1               0.0000000000
     14508       469  ECLIPA    H86S           18.9859260192       18.4803144110       11.0807540114  LPSA14    1               0.0000000000
     14509       469  ECLIPA    C87            19.4618216602       19.1343884930        9.1601018854  LPSA14    1               0.0000000000
     14510       469  ECLIPA    H87R           19.8371010458       18.1800663308        8.8049419625  LPSA14    1               0.0000000000
     14511       469  ECLIPA    H87S           20.3679015921       19.6789552396        9.5406723883  LPSA14    1               0.0000000000
     14512       469  ECLIPA    C88            18.9254577621       19.9804100411        8.0318999685  LPSA14    1               0.0000000000
     14513       469  ECLIPA    H88R           18.8852051456       21.0739300612        8.3479828359  LPSA14    1               0.0000000000
     14514       469  ECLIPA    H88S           17.8161062042       19.8009259497        7.9254521495  LPSA14    1               0.0000000000
     14515       469  ECLIPA    C89            19.7591358936       19.9169268308        6.7101000712  LPSA14    1               0.0000000000
     14516       469  ECLIPA    H89R           20.7815344971       19.5135616562        6.8746682686  LPSA14    1               0.0000000000
     14517       469  ECLIPA    H89S           19.9134241592       20.8650186767        6.2317001698  LPSA14    1               0.0000000000
     14518       469  ECLIPA    C810           18.9913600634       19.0403728563        5.7047246593  LPSA14    1               0.0000000000
     14519       469  ECLIPA    H810R          17.9445711197       19.2198599166        6.0108430704  LPSA14    1               0.0000000000
     14520       469  ECLIPA    H810S          19.2589312110       18.0122237941        5.8554647029  LPSA14    1               0.0000000000
     14521       469  ECLIPA    C811           19.2045905507       19.3739864467        4.2179945741  LPSA14    1               0.0000000000
     14522       469  ECLIPA    H811R          18.9646402256       18.6314170841        3.5081125689  LPSA14    1               0.0000000000
     14523       469  ECLIPA    H811S          20.3057992977       19.7148018495        4.1819101877  LPSA14    1               0.0000000000
     14524       469  ECLIPA    C812           18.5417447565       20.6756602880        3.7413673409  LPSA14    1               0.0000000000
     14525       469  ECLIPA    H812R          18.9261037983       20.8726400397        2.6403157337  LPSA14    1               0.0000000000
     14526       469  ECLIPA    H812S          18.6759137973       21.5132373409        4.4144737196  LPSA14    1               0.0000000000
     14527       469  ECLIPA    C813           17.0042183164       20.6198201615        3.6785234959  LPSA14    1               0.0000000000
     14528       469  ECLIPA    H813R          16.7482883725       19.8237107804        2.9398073555  LPSA14    1               0.0000000000
     14529       469  ECLIPA    H813S          16.4695528300       20.3410036752        4.6616087352  LPSA14    1               0.0000000000
     14530       469  ECLIPA    C814           16.3718749910       21.8856420478        3.1377409857  LPSA14    1               0.0000000000
     14531       469  ECLIPA    H814R          16.8579600454       22.3363183248        2.1719074593  LPSA14    1               0.0000000000
     14532       469  ECLIPA    H814S          16.3941593683       22.6598756449        3.9166242729  LPSA14    1               0.0000000000
     14533       469  ECLIPA    H814T          15.2973357314       21.7191481471        2.8964685373  LPSA14    1               0.0000000000
     14534       469  ECLIPA    C74            16.2343224029       25.7351716854       13.1792855021  LPSA14    1               0.0000000000
     14535       469  ECLIPA    H74R           15.7064995063       26.6689255276       12.9935747315  LPSA14    1               0.0000000000
     14536       469  ECLIPA    H74S           15.4174145809       24.9219702588       13.3086690609  LPSA14    1               0.0000000000
     14537       469  ECLIPA    C75            16.9198422000       25.2908496023       11.8151371119  LPSA14    1               0.0000000000
     14538       469  ECLIPA    H75R           16.1077965674       24.7458405421       11.2107603889  LPSA14    1               0.0000000000
     14539       469  ECLIPA    H75S           17.7376393654       24.5702636057       12.0082837783  LPSA14    1               0.0000000000
     14540       469  ECLIPA    C76            17.4745396222       26.4369879262       10.9251453624  LPSA14    1               0.0000000000
     14541       469  ECLIPA    H76R           18.4585556082       26.7711322388       11.3555905686  LPSA14    1               0.0000000000
     14542       469  ECLIPA    H76S           16.8172498868       27.4017138753       10.9731137071  LPSA14    1               0.0000000000
     14543       469  ECLIPA    C77            17.6872556408       26.1406258666        9.4191603634  LPSA14    1               0.0000000000
     14544       469  ECLIPA    H77R           16.7277082294       25.8843166882        9.0408775908  LPSA14    1               0.0000000000
     14545       469  ECLIPA    H77S           18.2508607106       25.1885856476        9.2852383479  LPSA14    1               0.0000000000
     14546       469  ECLIPA    C78            18.4755376297       27.3170410212        8.8297405752  LPSA14    1               0.0000000000
     14547       469  ECLIPA    H78R           17.9837416345       28.2327143532        9.1562620580  LPSA14    1               0.0000000000
     14548       469  ECLIPA    H78S           19.4868275031       27.2412832566        9.3169442960  LPSA14    1               0.0000000000
     14549       469  ECLIPA    C79            18.8168856120       27.1352103248        7.2570767761  LPSA14    1               0.0000000000
     14550       469  ECLIPA    H79R           19.8667862171       26.7164539675        7.1763205913  LPSA14    1               0.0000000000
     14551       469  ECLIPA    H79S           18.8120671688       28.1239490836        6.7882549413  LPSA14    1               0.0000000000
     14552       469  ECLIPA    C710           17.7742521440       26.4365646986        6.3785096220  LPSA14    1               0.0000000000
     14553       469  ECLIPA    H710R          17.6384199125       25.4333792126        6.8460783027  LPSA14    1               0.0000000000
     14554       469  ECLIPA    H710S          16.8944945396       26.9502611211        6.4843026416  LPSA14    1               0.0000000000
     14555       469  ECLIPA    C711           18.2032319385       26.2462427926        4.9384125046  LPSA14    1               0.0000000000
     14556       469  ECLIPA    H711R          18.3255512298       27.2657169339        4.5670708729  LPSA14    1               0.0000000000
     14557       469  ECLIPA    H711S          19.1484640802       25.6460745310        4.9306188492  LPSA14    1               0.0000000000
     14558       469  ECLIPA    C712           17.1180068770       25.4691828987        4.2148670498  LPSA14    1               0.0000000000
     14559       469  ECLIPA    H712R          16.2021308167       26.0623473448        4.3130666899  LPSA14    1               0.0000000000
     14560       469  ECLIPA    H712S          16.9540508861       24.5841452749        4.8522839389  LPSA14    1               0.0000000000
     14561       469  ECLIPA    C713           17.5550620511       25.0796181517        2.7357390519  LPSA14    1               0.0000000000
     14562       469  ECLIPA    H713R          18.4533463640       24.4168290209        2.8800411466  LPSA14    1               0.0000000000
     14563       469  ECLIPA    H713S          16.6580510661       24.5217998183        2.2750064041  LPSA14    1               0.0000000000
     14564       469  ECLIPA    C714           17.7655616370       26.3476886823        1.8879763961  LPSA14    1               0.0000000000
     14565       469  ECLIPA    H714R          16.8274285713       26.9065643068        1.7626189762  LPSA14    1               0.0000000000
     14566       469  ECLIPA    H714S          18.6423841003       26.9236787151        2.2081901572  LPSA14    1               0.0000000000
     14567       469  ECLIPA    H714T          17.9732625712       25.9205466676        0.9249202435  LPSA14    1               0.0000000000
     14568       469  ECLIPA    C51            21.6652017209       24.1905418557       14.2380633031  LPSA14    1               0.0000000000
     14569       469  ECLIPA    O51            20.7352897836       23.3627765490       14.1304636378  LPSA14    1               0.0000000000
     14570       469  ECLIPA    C52            22.1706482569       25.0398791935       13.0157035712  LPSA14    1               0.0000000000
     14571       469  ECLIPA    H52R           21.6717378487       25.9907240968       12.8950255930  LPSA14    1               0.0000000000
     14572       469  ECLIPA    H52S           23.2079322470       25.1816294040       13.2222025935  LPSA14    1               0.0000000000
     14573       469  ECLIPA    C53            22.1138734270       24.0987680780       11.7526064304  LPSA14    1               0.0000000000
     14574       469  ECLIPA    H53R           22.1853620590       23.0466946997       12.0082431084  LPSA14    1               0.0000000000
     14575       469  ECLIPA    O53            23.1010288310       24.6111101007       10.8431816314  LPSA14    1               0.0000000000
     14576       469  ECLIPA    C61            24.1141728473       23.8288794110       10.5090573566  LPSA14    1               0.0000000000
     14577       469  ECLIPA    O61            24.2826347587       22.7051195289       10.8659713306  LPSA14    1               0.0000000000
     14578       469  ECLIPA    C62            25.0574698696       24.5996920030        9.5765835255  LPSA14    1               0.0000000000
     14579       469  ECLIPA    H62R           25.6775927343       25.2635263227       10.2152837125  LPSA14    1               0.0000000000
     14580       469  ECLIPA    H62S           24.4228234890       25.3423403271        9.0470049452  LPSA14    1               0.0000000000
     14581       469  ECLIPA    C63            25.8873132579       23.6450481111        8.6803029234  LPSA14    1               0.0000000000
     14582       469  ECLIPA    H63R           25.1878538148       22.8935055990        8.2798705976  LPSA14    1               0.0000000000
     14583       469  ECLIPA    H63S           26.6881921127       23.0735680261        9.3252199642  LPSA14    1               0.0000000000
     14584       469  ECLIPA    C64            26.6123389234       24.2244287501        7.5279067597  LPSA14    1               0.0000000000
     14585       469  ECLIPA    H64R           27.2602265188       23.4639253304        6.9620099216  LPSA14    1               0.0000000000
     14586       469  ECLIPA    H64S           27.2722027600       25.0602006866        7.9657393466  LPSA14    1               0.0000000000
     14587       469  ECLIPA    C65            25.5936994097       24.8963205349        6.5414948800  LPSA14    1               0.0000000000
     14588       469  ECLIPA    H65R           25.1427925069       25.6436126873        7.2423230371  LPSA14    1               0.0000000000
     14589       469  ECLIPA    H65S           24.8680097354       24.1334652188        6.1828980290  LPSA14    1               0.0000000000
     14590       469  ECLIPA    C66            26.1844059201       25.5737268329        5.2222643966  LPSA14    1               0.0000000000
     14591       469  ECLIPA    H66R           26.8655867300       26.3604109238        5.5395647249  LPSA14    1               0.0000000000
     14592       469  ECLIPA    H66S           25.2293482961       26.0169094684        4.8113963288  LPSA14    1               0.0000000000
     14593       469  ECLIPA    C67            26.8094275311       24.6935107122        4.1696839457  LPSA14    1               0.0000000000
     14594       469  ECLIPA    H67R           27.5586752133       24.0122950941        4.5058181646  LPSA14    1               0.0000000000
     14595       469  ECLIPA    H67S           27.2455316358       25.3298447622        3.3478820057  LPSA14    1               0.0000000000
     14596       469  ECLIPA    C68            25.8462808913       23.7432028468        3.5077075145  LPSA14    1               0.0000000000
     14597       469  ECLIPA    H68R           24.9375632895       24.1597118435        3.0112508411  LPSA14    1               0.0000000000
     14598       469  ECLIPA    H68S           25.6188841204       23.0630360802        4.3087918325  LPSA14    1               0.0000000000
     14599       469  ECLIPA    C69            26.5128377181       23.0929948868        2.2963532923  LPSA14    1               0.0000000000
     14600       469  ECLIPA    H69R           27.6170719758       23.0161555171        2.3203210098  LPSA14    1               0.0000000000
     14601       469  ECLIPA    H69S           26.3697776059       23.7855890021        1.4693744207  LPSA14    1               0.0000000000
     14602       469  ECLIPA    C610           25.9552229713       21.7635703986        1.9396251084  LPSA14    1               0.0000000000
     14603       469  ECLIPA    H610R          24.8368437130       21.7687142958        2.0603347121  LPSA14    1               0.0000000000
     14604       469  ECLIPA    H610S          26.3072117490       20.9857268842        2.6933643884  LPSA14    1               0.0000000000
     14605       469  ECLIPA    C611           26.4179886029       21.2493662468        0.5312153135  LPSA14    1               0.0000000000
     14606       469  ECLIPA    H611R          27.5238406034       21.2065291154        0.5735373188  LPSA14    1               0.0000000000
     14607       469  ECLIPA    H611S          26.2240592214       20.2009824439        0.3609598123  LPSA14    1               0.0000000000
     14608       469  ECLIPA    C612           25.8162096279       22.0945375596       -0.5788949292  LPSA14    1               0.0000000000
     14609       469  ECLIPA    H612R          24.7066683606       21.9031168216       -0.6060949542  LPSA14    1               0.0000000000
     14610       469  ECLIPA    H612S          25.9062560903       23.1551158202       -0.3132441764  LPSA14    1               0.0000000000
     14611       469  ECLIPA    H612T          26.2416560755       21.8546755781       -1.5574606966  LPSA14    1               0.0000000000
     14612       469  ECLIPA    C54            20.7096006164       24.3594812845       11.1776054589  LPSA14    1               0.0000000000
     14613       469  ECLIPA    H54R           20.6423679076       25.4501484888       10.8869876633  LPSA14    1               0.0000000000
     14614       469  ECLIPA    H54S           19.9424984457       24.2260506693       11.9574517429  LPSA14    1               0.0000000000
     14615       469  ECLIPA    C55            20.2299097788       23.5313158004        9.9916770240  LPSA14    1               0.0000000000
     14616       469  ECLIPA    H55R           19.1375464492       23.5972014926        9.7856946516  LPSA14    1               0.0000000000
     14617       469  ECLIPA    H55S           20.4472194815       22.4326488549       10.2436295858  LPSA14    1               0.0000000000
     14618       469  ECLIPA    C56            20.8761343169       24.0890484675        8.7515486822  LPSA14    1               0.0000000000
     14619       469  ECLIPA    H56R           22.0036789232       24.0201463636        8.8382497819  LPSA14    1               0.0000000000
     14620       469  ECLIPA    H56S           20.6443808866       25.0729311532        8.4741334449  LPSA14    1               0.0000000000
     14621       469  ECLIPA    C57            20.7383049279       23.2278880589        7.4395707935  LPSA14    1               0.0000000000
     14622       469  ECLIPA    H57R           19.7008453543       23.0065127793        7.1827428724  LPSA14    1               0.0000000000
     14623       469  ECLIPA    H57S           21.2146436137       22.2277965162        7.5196553379  LPSA14    1               0.0000000000
     14624       469  ECLIPA    C58            21.4922846645       23.9256584051        6.2350750625  LPSA14    1               0.0000000000
     14625       469  ECLIPA    H58R           21.2796945805       25.0302764352        6.2095761879  LPSA14    1               0.0000000000
     14626       469  ECLIPA    H58S           22.5791466040       23.9517352691        6.5224540661  LPSA14    1               0.0000000000
     14627       469  ECLIPA    C59            21.0983312668       23.3021672521        4.8667186835  LPSA14    1               0.0000000000
     14628       469  ECLIPA    H59R           20.0150954359       23.3654399997        4.6589989540  LPSA14    1               0.0000000000
     14629       469  ECLIPA    H59S           21.4215851714       22.2648127175        5.0825555512  LPSA14    1               0.0000000000
     14630       469  ECLIPA    C510           21.7114182098       24.0603736568        3.6752379292  LPSA14    1               0.0000000000
     14631       469  ECLIPA    H510R          22.8143026512       24.3395262602        3.7937959224  LPSA14    1               0.0000000000
     14632       469  ECLIPA    H510S          21.1442371352       25.0748891673        3.4613250382  LPSA14    1               0.0000000000
     14633       469  ECLIPA    C511           21.6117840135       23.3662679074        2.3004848829  LPSA14    1               0.0000000000
     14634       469  ECLIPA    H511R          22.4307148996       22.6222178420        2.2679211996  LPSA14    1               0.0000000000
     14635       469  ECLIPA    H511S          20.6624084044       22.7651543151        2.1940961976  LPSA14    1               0.0000000000
     14636       469  ECLIPA    C512           21.7944113604       24.2599752804        1.0189424135  LPSA14    1               0.0000000000
     14637       469  ECLIPA    H512R          21.4792965801       23.6916517624        0.0815295424  LPSA14    1               0.0000000000
     14638       469  ECLIPA    H512S          21.1799583252       25.1639313372        1.1129704346  LPSA14    1               0.0000000000
     14639       469  ECLIPA    C513           23.3077706701       24.6031630012        0.6457389972  LPSA14    1               0.0000000000
     14640       469  ECLIPA    H513R          23.9199927918       23.6594936809        0.5010832175  LPSA14    1               0.0000000000
     14641       469  ECLIPA    H513S          23.7600914069       25.1155414390        1.4088770719  LPSA14    1               0.0000000000
     14642       469  ECLIPA    C514           23.3775528513       25.3524161801       -0.6567184026  LPSA14    1               0.0000000000
     14643       469  ECLIPA    H514R          22.7442460421       26.2388138035       -0.6273993866  LPSA14    1               0.0000000000
     14644       469  ECLIPA    H514S          24.4039487339       25.7231446736       -0.7024724270  LPSA14    1               0.0000000000
     14645       469  ECLIPA    H514T          23.0785352811       24.6820053302       -1.5427815912  LPSA14    1               0.0000000000
     14646       469  ECLIPA    C33            26.8294229876       24.4949091074       14.4880792826  LPSA14    1               0.0000000000
     14647       469  ECLIPA    H33R           27.6631130074       25.1653499300       14.8828993596  LPSA14    1               0.0000000000
     14648       469  ECLIPA    O33            25.8098932591       24.4664868735       15.4699768821  LPSA14    1               0.0000000000
     14649       469  ECLIPA    HO33           26.2083705888       24.3655734842       16.2926205744  LPSA14    1               0.0000000000
     14650       469  ECLIPA    C34            26.2568799878       25.1915671724       13.2255459338  LPSA14    1               0.0000000000
     14651       469  ECLIPA    H34R           25.4694800952       24.5784829036       12.8010908313  LPSA14    1               0.0000000000
     14652       469  ECLIPA    H34S           27.0454318217       25.2051100080       12.3772221142  LPSA14    1               0.0000000000
     14653       469  ECLIPA    C35            25.6964178310       26.6114920232       13.4256256262  LPSA14    1               0.0000000000
     14654       469  ECLIPA    H35R           26.5234245227       27.2639349409       13.6963698038  LPSA14    1               0.0000000000
     14655       469  ECLIPA    H35S           24.9914045530       26.5961427061       14.2668166019  LPSA14    1               0.0000000000
     14656       469  ECLIPA    C36            25.1013377467       27.3111506982       12.1865608177  LPSA14    1               0.0000000000
     14657       469  ECLIPA    H36R           24.6834928967       26.3839794260       11.7430812241  LPSA14    1               0.0000000000
     14658       469  ECLIPA    H36S           25.8508228407       27.7881499918       11.4785220412  LPSA14    1               0.0000000000
     14659       469  ECLIPA    C37            23.8984178547       28.1711040483       12.5255831563  LPSA14    1               0.0000000000
     14660       469  ECLIPA    H37R           24.3636795720       29.2473014561       12.6765215637  LPSA14    1               0.0000000000
     14661       469  ECLIPA    H37S           23.4665706680       27.9226395986       13.5128993321  LPSA14    1               0.0000000000
     14662       469  ECLIPA    C38            22.8003058798       28.2842772096       11.4317274953  LPSA14    1               0.0000000000
     14663       469  ECLIPA    H38R           22.1180260239       27.4183549249       11.4067421357  LPSA14    1               0.0000000000
     14664       469  ECLIPA    H38S           22.1381704476       29.1196551178       11.7230999881  LPSA14    1               0.0000000000
     14665       469  ECLIPA    C39            23.4100336458       28.4159562041       10.0213367345  LPSA14    1               0.0000000000
     14666       469  ECLIPA    H39R           24.1159751112       27.5686960142        9.8128797222  LPSA14    1               0.0000000000
     14667       469  ECLIPA    H39S           23.8706380569       29.4380951835        9.9697980947  LPSA14    1               0.0000000000
     14668       469  ECLIPA    C310           22.4183732068       28.4774864296        8.8401719124  LPSA14    1               0.0000000000
     14669       469  ECLIPA    H310R          21.8324250343       29.4456458100        9.0626900142  LPSA14    1               0.0000000000
     14670       469  ECLIPA    H310S          21.7092804655       27.6004774655        8.8945759064  LPSA14    1               0.0000000000
     14671       469  ECLIPA    C311           23.0850476421       28.2218896283        7.5676235846  LPSA14    1               0.0000000000
     14672       469  ECLIPA    H311R          24.0942219559       28.7066318883        7.5507520616  LPSA14    1               0.0000000000
     14673       469  ECLIPA    H311S          23.2436404989       27.1354468323        7.2851462164  LPSA14    1               0.0000000000
     14674       469  ECLIPA    C312           22.2880757222       28.6848180776        6.3280121142  LPSA14    1               0.0000000000
     14675       469  ECLIPA    H312R          21.1894897712       28.5405949951        6.4861373960  LPSA14    1               0.0000000000
     14676       469  ECLIPA    H312S          22.4953482537       29.7746613630        6.1820758986  LPSA14    1               0.0000000000
     14677       469  ECLIPA    C313           22.6904459226       27.9843912665        4.9895779706  LPSA14    1               0.0000000000
     14678       469  ECLIPA    H313R          23.6290477224       28.3973808413        4.7825120466  LPSA14    1               0.0000000000
     14679       469  ECLIPA    H313S          22.8144266214       26.8780033880        5.1572698764  LPSA14    1               0.0000000000
     14680       469  ECLIPA    C314           21.7962809248       28.1912706934        3.8116661598  LPSA14    1               0.0000000000
     14681       469  ECLIPA    H314R          21.7054597655       29.2927004474        3.6067793993  LPSA14    1               0.0000000000
     14682       469  ECLIPA    H314S          22.1013300960       27.6982402532        2.8849361441  LPSA14    1               0.0000000000
     14683       469  ECLIPA    H314T          20.7307724851       27.8388555335        4.0446347774  LPSA14    1               0.0000000000
     14684       469  ECLIPA    C11            23.4232066178       19.7819734234       11.2900808200  LPSA14    1               0.0000000000
     14685       469  ECLIPA    O11            22.3172869202       20.2865427939       11.1394597694  LPSA14    1               0.0000000000
     14686       469  ECLIPA    C12            23.7986719479       18.6526161160       10.2853014675  LPSA14    1               0.0000000000
     14687       469  ECLIPA    H12R           23.2111155129       17.7204673656       10.4852637814  LPSA14    1               0.0000000000
     14688       469  ECLIPA    H12S           24.8800208879       18.4681407754       10.5222272274  LPSA14    1               0.0000000000
     14689       469  ECLIPA    C13            23.6619330752       19.0089446153        8.8110583416  LPSA14    1               0.0000000000
     14690       469  ECLIPA    H13R           22.6840109179       19.5795115243        8.5839874118  LPSA14    1               0.0000000000
     14691       469  ECLIPA    O13            23.5776510986       17.7293884452        8.1311342176  LPSA14    1               0.0000000000
     14692       469  ECLIPA    HO13           23.1398229545       17.8329265089        7.3064966676  LPSA14    1               0.0000000000
     14693       469  ECLIPA    C14            24.8383140425       19.8889091085        8.4581579993  LPSA14    1               0.0000000000
     14694       469  ECLIPA    H14R           25.8107216252       19.5480715215        8.9706443184  LPSA14    1               0.0000000000
     14695       469  ECLIPA    H14S           24.5606842689       20.9300973180        8.7243868424  LPSA14    1               0.0000000000
     14696       469  ECLIPA    C15            25.1616445937       19.9283963489        6.9526486677  LPSA14    1               0.0000000000
     14697       469  ECLIPA    H15R           25.2562450224       18.9336727260        6.5500123177  LPSA14    1               0.0000000000
     14698       469  ECLIPA    H15S           26.0923617677       20.4931622189        6.8782608049  LPSA14    1               0.0000000000
     14699       469  ECLIPA    C16            24.0237602330       20.6217483548        6.1622847334  LPSA14    1               0.0000000000
     14700       469  ECLIPA    H16R           24.0755240688       21.7659997644        6.2733383262  LPSA14    1               0.0000000000
     14701       469  ECLIPA    H16S           23.0860118487       20.4504429642        6.7182496574  LPSA14    1               0.0000000000
     14702       469  ECLIPA    C17            24.0101805069       20.2546043739        4.6801229578  LPSA14    1               0.0000000000
     14703       469  ECLIPA    H17R           25.1113492900       20.3307032012        4.4246758429  LPSA14    1               0.0000000000
     14704       469  ECLIPA    H17S           23.4899324192       20.9416661632        4.0046542873  LPSA14    1               0.0000000000
     14705       469  ECLIPA    C18            23.4806992904       18.8653078245        4.4504458171  LPSA14    1               0.0000000000
     14706       469  ECLIPA    H18R           24.0968903284       18.2875421093        5.0865821920  LPSA14    1               0.0000000000
     14707       469  ECLIPA    H18S           22.4009915960       18.8491587012        4.7749867078  LPSA14    1               0.0000000000
     14708       469  ECLIPA    C19            23.5957564462       18.4337216872        3.0097966450  LPSA14    1               0.0000000000
     14709       469  ECLIPA    H19R           23.3198822897       17.3920928200        2.9245509529  LPSA14    1               0.0000000000
     14710       469  ECLIPA    H19S           24.6571401146       18.5876697534        2.6238151240  LPSA14    1               0.0000000000
     14711       469  ECLIPA    C110           22.6020492423       19.2022928302        2.1045801788  LPSA14    1               0.0000000000
     14712       469  ECLIPA    H110R          21.5642039628       19.2100665421        2.4416701971  LPSA14    1               0.0000000000
     14713       469  ECLIPA    H110S          23.0500103771       20.2189256399        2.1583327743  LPSA14    1               0.0000000000
     14714       469  ECLIPA    C111           22.7107229060       18.6754919984        0.7563571155  LPSA14    1               0.0000000000
     14715       469  ECLIPA    H111R          23.7608834895       18.4815158144        0.3999767799  LPSA14    1               0.0000000000
     14716       469  ECLIPA    H111S          22.2765234475       17.7104833613        0.7977177860  LPSA14    1               0.0000000000
     14717       469  ECLIPA    C112           21.9360688279       19.4870911086       -0.2937360943  LPSA14    1               0.0000000000
     14718       469  ECLIPA    H112R          20.9280343436       19.4717416798        0.1973446929  LPSA14    1               0.0000000000
     14719       469  ECLIPA    H112S          22.1664083376       20.5527559262       -0.2177998937  LPSA14    1               0.0000000000
     14720       469  ECLIPA    C113           22.2155985235       19.0702200804       -1.7468031795  LPSA14    1               0.0000000000
     14721       469  ECLIPA    H113R          23.2758352215       19.3224157320       -1.9802017524  LPSA14    1               0.0000000000
     14722       469  ECLIPA    H113S          22.1818205432       17.9812702570       -1.8531093719  LPSA14    1               0.0000000000
     14723       469  ECLIPA    C114           21.2777676074       19.5296325676       -2.8344928043  LPSA14    1               0.0000000000
     14724       469  ECLIPA    H114R          20.2013944430       19.3903621998       -2.7829422503  LPSA14    1               0.0000000000
     14725       469  ECLIPA    H114S          21.4058369751       20.6366405421       -2.9951089580  LPSA14    1               0.0000000000
     14726       469  ECLIPA    H114T          21.4468009656       18.9147282274       -3.7399523103  LPSA14    1               0.0000000000
     14727       470  AKDO      C1             21.5550871624       25.5879055306       22.4410509549  LPSA14    2               0.0000000000
     14728       470  AKDO      O11            20.6532390398       26.4931162180       22.4913720772  LPSA14    2               0.0000000000
     14729       470  AKDO      O12            22.7634131321       25.6590332502       22.0800765534  LPSA14    2               0.0000000000
     14730       470  AKDO      C2             21.0983967175       24.1966976066       22.8913181237  LPSA14    2               0.0000000000
     14731       470  AKDO      C6             19.2395138917       23.0500581348       23.8039205188  LPSA14    2               0.0000000000
     14732       470  AKDO      H6             19.1874066756       22.4283229098       22.9487387861  LPSA14    2               0.0000000000
     14733       470  AKDO      O6             19.8288878359       24.3589500937       23.4267274814  LPSA14    2               0.0000000000
     14734       470  AKDO      C3             21.9450319773       23.6211044808       23.9587385105  LPSA14    2               0.0000000000
     14735       470  AKDO      H31            22.1014508910       24.2448981385       24.7868435866  LPSA14    2               0.0000000000
     14736       470  AKDO      H32            22.9719007587       23.3482968362       23.4151264596  LPSA14    2               0.0000000000
     14737       470  AKDO      C4             21.3929467855       22.2634091756       24.3842593775  LPSA14    2               0.0000000000
     14738       470  AKDO      H4             21.2589981952       21.5892579637       23.5563617270  LPSA14    2               0.0000000000
     14739       470  AKDO      O4             22.2690865042       21.6756942925       25.3355834555  LPSA14    2               0.0000000000
     14740       470  AKDO      C5             20.0383915391       22.3416160450       24.9292437177  LPSA14    2               0.0000000000
     14741       470  AKDO      H5             19.5857026836       21.3183210524       25.0107888161  LPSA14    2               0.0000000000
     14742       470  AKDO      O5             20.1023847954       23.1039350243       26.2083878813  LPSA14    2               0.0000000000
     14743       470  AKDO      C7             17.6960284664       23.1696527804       24.1981149098  LPSA14    2               0.0000000000
     14744       470  AKDO      H7             17.6260403663       23.7834471656       25.0939202098  LPSA14    2               0.0000000000
     14745       470  AKDO      O7             17.0746790761       21.8658857964       24.3482682347  LPSA14    2               0.0000000000
     14746       470  AKDO      HO7            16.9374137294       21.5550558015       23.4945166536  LPSA14    2               0.0000000000
     14747       470  AKDO      C8             16.9991969303       23.8778719613       22.9864433882  LPSA14    2               0.0000000000
     14748       470  AKDO      H81            17.5117168848       24.8670560843       22.9153150275  LPSA14    2               0.0000000000
     14749       470  AKDO      H82            17.1518368521       23.1897864157       22.0745354517  LPSA14    2               0.0000000000
     14750       470  AKDO      O8             15.5717839730       24.0869775437       23.3537996748  LPSA14    2               0.0000000000
     14751       470  AKDO      HO8            15.2652269817       24.9241436385       22.9179804014  LPSA14    2               0.0000000000
     14752       471  AKDO      C1             23.0977120604       20.0673718454       23.8027969005  LPSA14    3               1.0000000000
     14753       471  AKDO      O11            23.4558138132       20.4465969485       22.6471489042  LPSA14    3               1.0000000000
     14754       471  AKDO      O12            22.4957700471       18.9990544906       24.0656860145  LPSA14    3               1.0000000000
     14755       471  AKDO      C2             23.4229900107       20.9261884721       25.0166033796  LPSA14    3               1.0000000000
     14756       471  AKDO      C6             24.7990444151       22.7482742604       25.7688829792  LPSA14    3               1.0000000000
     14757       471  AKDO      H6             23.8859763721       23.3943914409       25.9810553331  LPSA14    3               1.0000000000
     14758       471  AKDO      O6             24.5196834431       21.8556696905       24.7076657818  LPSA14    3               1.0000000000
     14759       471  AKDO      C3             23.7780209745       20.1597547209       26.3187707743  LPSA14    3               1.0000000000
     14760       471  AKDO      H31            24.7402806807       19.5212182285       26.1504935106  LPSA14    3               1.0000000000
     14761       471  AKDO      H32            22.9766606388       19.4598167288       26.5929217108  LPSA14    3               1.0000000000
     14762       471  AKDO      C4             24.0369424040       21.1737740267       27.4036122013  LPSA14    3               1.0000000000
     14763       471  AKDO      H4             23.1907120391       21.8676125274       27.4051754129  LPSA14    3               1.0000000000
     14764       471  AKDO      O4             24.1770084257       20.6665035982       28.7388570077  LPSA14    3               1.0000000000
     14765       471  AKDO      HO4            23.5637935082       21.0197913120       29.3717785514  LPSA14    3               1.0000000000
     14766       471  AKDO      C5             25.1233728217       22.0012144617       27.0369167275  LPSA14    3               1.0000000000
     14767       471  AKDO      H5             25.3637975540       22.7008083646       27.9236884022  LPSA14    3               1.0000000000
     14768       471  AKDO      O5             26.3173354278       21.2182981693       26.8495261943  LPSA14    3               1.0000000000
     14769       471  AKDO      HO5            26.1745965498       20.5726632376       26.1887877298  LPSA14    3               1.0000000000
     14770       471  AKDO      C7             25.9389035366       23.6308802865       25.3258859863  LPSA14    3               1.0000000000
     14771       471  AKDO      H7             26.8755092658       23.0306696566       25.1324849511  LPSA14    3               1.0000000000
     14772       471  AKDO      O7             26.1885487580       24.6157983419       26.3661029982  LPSA14    3               1.0000000000
     14773       471  AKDO      HO7            27.0297956611       25.0775972183       26.1647669547  LPSA14    3               1.0000000000
     14774       471  AKDO      C8             25.4722434552       24.3894992897       24.1539635864  LPSA14    3               1.0000000000
     14775       471  AKDO      H81            25.1917838125       23.7057808606       23.3419478721  LPSA14    3               1.0000000000
     14776       471  AKDO      H82            24.6206147288       25.0738948397       24.2853144505  LPSA14    3               1.0000000000
     14777       471  AKDO      O8             26.5192986196       25.1905450271       23.6541307456  LPSA14    3               1.0000000000
     14778       471  AKDO      HO8            27.0217939003       24.4598802671       23.2473452835  LPSA14    3               1.0000000000
     14779       472  AHEP      C1             19.2482727848       22.7361173280       27.2793229502  LPSA14    4               2.0000000000
     14780       472  AHEP      H1             18.3451187052       23.2826289610       26.8517192453  LPSA14    4               2.0000000000
     14781       472  AHEP      C5             19.8483049297       20.5077230703       28.0185271385  LPSA14    4               2.0000000000
     14782       472  AHEP      H5             20.8728993222       20.7981420646       27.5619054335  LPSA14    4               2.0000000000
     14783       472  AHEP      O5             18.8893915411       21.3570745639       27.3942805697  LPSA14    4               2.0000000000
     14784       472  AHEP      C2             19.4063327580       23.2630943175       28.6827861277  LPSA14    4               2.0000000000
     14785       472  AHEP      H2             19.7279317021       24.3086511657       28.7442425996  LPSA14    4               2.0000000000
     14786       472  AHEP      O2             18.1932677119       23.1927511634       29.3407203943  LPSA14    4               2.0000000000
     14787       472  AHEP      HO2            18.0687363488       23.9706479231       29.8507927467  LPSA14    4               2.0000000000
     14788       472  AHEP      C3             20.4244449888       22.4284568858       29.4857672188  LPSA14    4               2.0000000000
     14789       472  AHEP      H3             21.4817067456       22.5778914420       29.2269906369  LPSA14    4               2.0000000000
     14790       472  AHEP      O3             20.4109558830       22.8121432838       30.7882097304  LPSA14    4               2.0000000000
     14791       472  AHEP      C4             20.0128738175       20.9789228043       29.4546205599  LPSA14    4               2.0000000000
     14792       472  AHEP      H4             19.0550104830       20.7355465137       29.9788637739  LPSA14    4               2.0000000000
     14793       472  AHEP      O4             21.0326946537       20.2052639220       30.0145912217  LPSA14    4               2.0000000000
     14794       472  AHEP      P4             20.8885728615       19.4695494349       31.4978499249  LPSA14    4               2.0000000000
     14795       472  AHEP      OP42           22.2112255715       19.4521558360       32.1560374192  LPSA14    4               2.0000000000
     14796       472  AHEP      OP43           20.4465311306       18.1108919887       31.0397938518  LPSA14    4               2.0000000000
     14797       472  AHEP      OP44           19.7436031943       20.1519283928       32.3098937101  LPSA14    4               2.0000000000
     14798       472  AHEP      C6             19.5099912040       18.9894271499       27.7982482844  LPSA14    4               2.0000000000
     14799       472  AHEP      H6             20.4490484267       18.4244213287       28.0833143566  LPSA14    4               2.0000000000
     14800       472  AHEP      O6             18.4624964310       18.6492033039       28.7103505027  LPSA14    4               2.0000000000
     14801       472  AHEP      HO6            18.6674462383       17.8203312958       29.2203787365  LPSA14    4               2.0000000000
     14802       472  AHEP      C7             19.1569244340       18.6267968007       26.3054198206  LPSA14    4               2.0000000000
     14803       472  AHEP      H71            19.0846530268       17.4981077165       26.1576126064  LPSA14    4               2.0000000000
     14804       472  AHEP      H72            19.8694036809       19.1445434628       25.6323487339  LPSA14    4               2.0000000000
     14805       472  AHEP      O7             17.8560847421       19.1047829760       25.9755159574  LPSA14    4               2.0000000000
     14806       472  AHEP      HO7            17.2121140827       18.4689045622       26.3256794122  LPSA14    4               2.0000000000
     14807       473  AHEP      C1             21.5959422508       23.3305264609       31.4342177374  LPSA14    5               3.0000000000
     14808       473  AHEP      H1             22.5288553491       22.9052790865       30.9794447437  LPSA14    5               3.0000000000
     14809       473  AHEP      C5             20.5828202088       25.4322250689       31.9165413065  LPSA14    5               3.0000000000
     14810       473  AHEP      H5             19.6135687091       24.9144915845       31.6031509785  LPSA14    5               3.0000000000
     14811       473  AHEP      O5             21.6718101642       24.7617660717       31.3013865768  LPSA14    5               3.0000000000
     14812       473  AHEP      C2             21.6681826788       23.0443324333       32.9718957084  LPSA14    5               3.0000000000
     14813       473  AHEP      H2             21.5402101886       21.9205026590       33.0921707216  LPSA14    5               3.0000000000
     14814       473  AHEP      O2             22.9411930245       23.4123452853       33.4691025827  LPSA14    5               3.0000000000
     14815       473  AHEP      HO2            23.4639803389       22.6354463204       33.6403503244  LPSA14    5               3.0000000000
     14816       473  AHEP      C3             20.4874174799       23.7189672586       33.7004304811  LPSA14    5               3.0000000000
     14817       473  AHEP      H3             19.5317492723       23.3248047126       33.3375632548  LPSA14    5               3.0000000000
     14818       473  AHEP      O3             20.4488991972       23.5545792570       35.1462238331  LPSA14    5               3.0000000000
     14819       473  AHEP      C4             20.6118817341       25.1830127830       33.4524658705  LPSA14    5               3.0000000000
     14820       473  AHEP      H4             21.5838098066       25.5946435208       33.8188816395  LPSA14    5               3.0000000000
     14821       473  AHEP      O4             19.4747564869       25.8468871209       34.0881196202  LPSA14    5               3.0000000000
     14822       473  AHEP      P4             19.6997580204       26.8805484283       35.2810123301  LPSA14    5               3.0000000000
     14823       473  AHEP      OP42           18.3229407103       27.1889958311       35.8202965042  LPSA14    5               3.0000000000
     14824       473  AHEP      OP43           20.3527049435       28.1182657254       34.6107506294  LPSA14    5               3.0000000000
     14825       473  AHEP      OP44           20.6613506843       26.2325662665       36.2417033353  LPSA14    5               3.0000000000
     14826       473  AHEP      C6             20.4967978495       26.9216772390       31.5493607386  LPSA14    5               3.0000000000
     14827       473  AHEP      H6             19.5847456365       27.3920263719       31.9533288164  LPSA14    5               3.0000000000
     14828       473  AHEP      O6             21.6373873438       27.6159510281       32.0428602265  LPSA14    5               3.0000000000
     14829       473  AHEP      HO6            22.4829707237       27.4872923469       31.5367188277  LPSA14    5               3.0000000000
     14830       473  AHEP      C7             20.2728535330       27.0707106074       30.0822725317  LPSA14    5               3.0000000000
     14831       473  AHEP      H71            19.6470623028       27.9750479822       29.9169108581  LPSA14    5               3.0000000000
     14832       473  AHEP      H72            19.7390918511       26.2203143307       29.6179339851  LPSA14    5               3.0000000000
     14833       473  AHEP      O7             21.5574951928       27.3685166577       29.4957736452  LPSA14    5               3.0000000000
     14834       474  AHEP      C1             22.1204310270       26.3021117234       28.7926622005  LPSA14    6               4.0000000000
     14835       474  AHEP      H1             21.5733302559       25.3276346723       29.0422981953  LPSA14    6               4.0000000000
     14836       474  AHEP      C5             22.6921092490       27.6722909353       26.9237617191  LPSA14    6               4.0000000000
     14837       474  AHEP      H5             22.2941924682       28.5312219047       27.4818042043  LPSA14    6               4.0000000000
     14838       474  AHEP      O5             22.0397754275       26.4674128210       27.3547530115  LPSA14    6               4.0000000000
     14839       474  AHEP      C2             23.5451472558       26.1260136238       29.2397872647  LPSA14    6               4.0000000000
     14840       474  AHEP      H2             23.5192497632       25.9181959894       30.3523091474  LPSA14    6               4.0000000000
     14841       474  AHEP      O2             24.1301918895       24.9570260349       28.7267108980  LPSA14    6               4.0000000000
     14842       474  AHEP      HO2            24.1934121367       24.3856533270       29.4669064354  LPSA14    6               4.0000000000
     14843       474  AHEP      C3             24.3266003635       27.4048102292       28.8468391403  LPSA14    6               4.0000000000
     14844       474  AHEP      H3             23.8995290487       28.2292823839       29.4311808254  LPSA14    6               4.0000000000
     14845       474  AHEP      O3             25.7888569800       27.3589111207       29.2225362108  LPSA14    6               4.0000000000
     14846       474  AHEP      HO3            26.0387021221       27.8040259002       29.9865592523  LPSA14    6               4.0000000000
     14847       474  AHEP      C4             24.1769081034       27.5597285870       27.2761740859  LPSA14    6               4.0000000000
     14848       474  AHEP      H4             24.7404413445       26.7731152116       26.7944950683  LPSA14    6               4.0000000000
     14849       474  AHEP      O4             24.8418303590       28.7370922290       26.7938835778  LPSA14    6               4.0000000000
     14850       474  AHEP      HO4            24.2369436813       29.4909906218       27.1589530594  LPSA14    6               4.0000000000
     14851       474  AHEP      C6             22.4154999927       28.0168565813       25.4906533340  LPSA14    6               4.0000000000
     14852       474  AHEP      H6             22.8784518743       28.9865790396       25.3442628137  LPSA14    6               4.0000000000
     14853       474  AHEP      O6             23.1590908832       27.1444278917       24.6375675438  LPSA14    6               4.0000000000
     14854       474  AHEP      HO6            22.5861008237       26.7118235789       23.9977784313  LPSA14    6               4.0000000000
     14855       474  AHEP      C7             20.9556724782       28.1755009164       25.1799756221  LPSA14    6               4.0000000000
     14856       474  AHEP      H71            20.8789592858       28.5958938619       24.1408078076  LPSA14    6               4.0000000000
     14857       474  AHEP      H72            20.5633125379       28.8902659476       25.9252229174  LPSA14    6               4.0000000000
     14858       474  AHEP      O7             20.2242670420       26.9874152717       25.2517430265  LPSA14    6               4.0000000000
     14859       474  AHEP      HO7            20.0013801294       26.9006534744       26.2011285002  LPSA14    6               4.0000000000
     14860       475  AGLC      C1             19.7883757144       22.4035099017       35.6520976122  LPSA14    7               4.0000000000
     14861       475  AGLC      H1             18.7363220181       22.3542174584       35.2047739589  LPSA14    7               4.0000000000
     14862       475  AGLC      C5             21.7167448160       21.1204912394       36.0987679218  LPSA14    7               4.0000000000
     14863       475  AGLC      H5             22.3751065812       21.9599486796       35.8327124756  LPSA14    7               4.0000000000
     14864       475  AGLC      O5             20.4995985174       21.2188517788       35.4366254460  LPSA14    7               4.0000000000
     14865       475  AGLC      C2             19.5936616942       22.4917584045       37.1582745954  LPSA14    7               4.0000000000
     14866       475  AGLC      H2             19.1214183006       21.4978394091       37.4887389927  LPSA14    7               4.0000000000
     14867       475  AGLC      O2             18.5591261598       23.4337558506       37.5024056006  LPSA14    7               4.0000000000
     14868       475  AGLC      HO2            19.0116812737       24.2623441966       37.6430208865  LPSA14    7               4.0000000000
     14869       475  AGLC      C3             20.7793517081       22.4464746749       37.9903802326  LPSA14    7               4.0000000000
     14870       475  AGLC      H3             21.3559959302       23.3161214013       37.6727250444  LPSA14    7               4.0000000000
     14871       475  AGLC      O3             20.6028941084       22.6606316574       39.4204481292  LPSA14    7               4.0000000000
     14872       475  AGLC      C4             21.4378544178       21.1576668922       37.5928595998  LPSA14    7               4.0000000000
     14873       475  AGLC      H4             20.8126942978       20.2610563277       37.9560286200  LPSA14    7               4.0000000000
     14874       475  AGLC      O4             22.7358280090       21.1938072191       38.2243117391  LPSA14    7               4.0000000000
     14875       475  AGLC      HO4            22.9880676256       20.3838961109       38.6132003238  LPSA14    7               4.0000000000
     14876       475  AGLC      C6             22.5315796950       19.9345250451       35.5245160098  LPSA14    7               4.0000000000
     14877       475  AGLC      H61            22.5527051375       20.0742177835       34.4135318240  LPSA14    7               4.0000000000
     14878       475  AGLC      H62            23.5787763777       19.8048561282       35.8722646349  LPSA14    7               4.0000000000
     14879       475  AGLC      O6             21.7279563107       18.7266789781       35.6892983147  LPSA14    7               4.0000000000
     14880       475  AGLC      HO6            22.1347900221       18.3820839404       36.4386090630  LPSA14    7               4.0000000000
     14881       476  AGLC      C1             21.1591293461       23.8190594546       39.9328324507  LPSA14    8               5.0000000000
     14882       476  AGLC      H1             22.2029995609       23.9216770680       39.5884769495  LPSA14    8               5.0000000000
     14883       476  AGLC      C5             19.0963693191       25.1715352403       40.2153373402  LPSA14    8               5.0000000000
     14884       476  AGLC      H5             18.5181265034       24.3185305585       39.8400606936  LPSA14    8               5.0000000000
     14885       476  AGLC      O5             20.4167411848       25.0468874865       39.6195505863  LPSA14    8               5.0000000000
     14886       476  AGLC      C2             21.2457902868       23.7554061929       41.4170311384  LPSA14    8               5.0000000000
     14887       476  AGLC      H2             21.8583970299       24.6547745234       41.6529594578  LPSA14    8               5.0000000000
     14888       476  AGLC      O2             22.0613301044       22.7150945905       41.9438754185  LPSA14    8               5.0000000000
     14889       476  AGLC      C3             19.9435097440       23.8230071249       42.1297388169  LPSA14    8               5.0000000000
     14890       476  AGLC      H3             19.4472719849       22.9207816178       41.6567950186  LPSA14    8               5.0000000000
     14891       476  AGLC      O3             20.1396568845       23.6411090112       43.5370978028  LPSA14    8               5.0000000000
     14892       476  AGLC      C4             19.3116770271       25.0817371435       41.7603093222  LPSA14    8               5.0000000000
     14893       476  AGLC      H4             19.9280510196       25.9159265473       42.0401368658  LPSA14    8               5.0000000000
     14894       476  AGLC      O4             18.0607688024       25.2227715794       42.3914819843  LPSA14    8               5.0000000000
     14895       476  AGLC      HO4            17.6370739189       24.3996418866       42.3800652601  LPSA14    8               5.0000000000
     14896       476  AGLC      C6             18.2379224912       26.3657494700       39.7357334439  LPSA14    8               5.0000000000
     14897       476  AGLC      H61            18.2497231700       26.5188729303       38.6468043611  LPSA14    8               5.0000000000
     14898       476  AGLC      H62            17.2049883237       26.3264319996       40.0276014644  LPSA14    8               5.0000000000
     14899       476  AGLC      O6             18.5969515307       27.5906094322       40.3040784562  LPSA14    8               5.0000000000
     14900       476  AGLC      HO6            18.2512763725       27.6959924791       41.2121845210  LPSA14    8               5.0000000000
     14901       477  AGAL      C1             23.3581759992       22.5442658187       41.4573847493  LPSA14    9               6.0000000000
     14902       477  AGAL      H1             23.3601560292       22.5923056918       40.3420235153  LPSA14    9               6.0000000000
     14903       477  AGAL      C5             24.5960549923       23.4520252199       43.2125447641  LPSA14    9               6.0000000000
     14904       477  AGAL      H5             23.5649836736       23.4215368573       43.7424973645  LPSA14    9               6.0000000000
     14905       477  AGAL      O5             24.3730309522       23.5212400977       41.8451689838  LPSA14    9               6.0000000000
     14906       477  AGAL      C2             23.8249587373       21.1646200359       41.8393925249  LPSA14    9               6.0000000000
     14907       477  AGAL      H2             24.8018448777       20.9903503760       41.4115621152  LPSA14    9               6.0000000000
     14908       477  AGAL      O2             23.0814121123       20.1348601655       41.1608705954  LPSA14    9               6.0000000000
     14909       477  AGAL      C3             24.0798935110       21.0492542664       43.3264191845  LPSA14    9               6.0000000000
     14910       477  AGAL      H3             23.0865842406       21.1730684032       43.9424563891  LPSA14    9               6.0000000000
     14911       477  AGAL      O3             24.4221816221       19.7637244342       43.7491515633  LPSA14    9               6.0000000000
     14912       477  AGAL      HO3            23.9509353818       19.1578492670       43.1585960960  LPSA14    9               6.0000000000
     14913       477  AGAL      C4             25.0976444004       22.0679579601       43.6505755014  LPSA14    9               6.0000000000
     14914       477  AGAL      H4             25.2978531422       22.1535462875       44.7734818408  LPSA14    9               6.0000000000
     14915       477  AGAL      O4             26.3407981813       21.8738533356       43.0499075873  LPSA14    9               6.0000000000
     14916       477  AGAL      HO4            27.0001771002       22.2353896401       43.6622427513  LPSA14    9               6.0000000000
     14917       477  AGAL      C6             25.2417402229       24.6908526043       43.8349081587  LPSA14    9               6.0000000000
     14918       477  AGAL      H61            24.6735886488       25.6371193841       43.6417203355  LPSA14    9               6.0000000000
     14919       477  AGAL      H62            25.3147525178       24.6696294071       44.9292747136  LPSA14    9               6.0000000000
     14920       477  AGAL      O6             26.5605964548       24.8489662476       43.4062227539  LPSA14    9               6.0000000000
     14921       477  AGAL      HO6            26.5483460997       25.5129332980       42.6923548993  LPSA14    9               6.0000000000
     14922       478  AGAL      C1             22.4714010023       18.9633249270       41.7517281777  LPSA14    10              7.0000000000
     14923       478  AGAL      H1             23.3141268523       18.2648914753       41.8429972083  LPSA14    10              7.0000000000
     14924       478  AGAL      C5             20.6509182533       19.8357741026       43.0613392294  LPSA14    10              7.0000000000
     14925       478  AGAL      H5             20.9731963591       20.8812225577       42.6233508762  LPSA14    10              7.0000000000
     14926       478  AGAL      O5             21.8103018865       18.9810128618       43.0470213554  LPSA14    10              7.0000000000
     14927       478  AGAL      C2             21.4498308802       18.4452189800       40.7227968417  LPSA14    10              7.0000000000
     14928       478  AGAL      H2             21.2312534353       17.3537335452       41.0433947026  LPSA14    10              7.0000000000
     14929       478  AGAL      O2             22.0187859867       18.0436696203       39.5532095562  LPSA14    10              7.0000000000
     14930       478  AGAL      HO2            21.7691127983       17.1532732469       39.3379401176  LPSA14    10              7.0000000000
     14931       478  AGAL      C3             20.2176037995       19.2769246932       40.6928251787  LPSA14    10              7.0000000000
     14932       478  AGAL      H3             20.5941661319       20.2726993520       40.4679648945  LPSA14    10              7.0000000000
     14933       478  AGAL      O3             19.2469807234       18.8753446189       39.7732034444  LPSA14    10              7.0000000000
     14934       478  AGAL      HO3            19.2704350463       19.5101469732       39.0151094934  LPSA14    10              7.0000000000
     14935       478  AGAL      C4             19.6070136022       19.2924705175       42.0524071915  LPSA14    10              7.0000000000
     14936       478  AGAL      H4             18.7455416836       19.9855082682       42.1099272557  LPSA14    10              7.0000000000
     14937       478  AGAL      O4             19.1584841414       18.0451344488       42.4965010455  LPSA14    10              7.0000000000
     14938       478  AGAL      HO4            19.9457394967       17.5358126936       42.5675127347  LPSA14    10              7.0000000000
     14939       478  AGAL      C6             20.0550422011       20.1509220114       44.3959537205  LPSA14    10              7.0000000000
     14940       478  AGAL      H61            20.7965823702       20.5072347896       45.1044438806  LPSA14    10              7.0000000000
     14941       478  AGAL      H62            19.3246774908       21.0863636312       44.2564473849  LPSA14    10              7.0000000000
     14942       478  AGAL      O6             19.2962458943       19.1530421512       45.1112340130  LPSA14    10              7.0000000000
     14943       478  AGAL      HO6            19.7865427425       18.9315884345       45.9237589285  LPSA14    10              7.0000000000
     14944       479  BGLC      C1             20.2838766970       24.6677423534       44.5018065681  LPSA14    11              6.0000000000
     14945       479  BGLC      H1             19.2745938662       25.0421156963       44.5883763758  LPSA14    11              6.0000000000
     14946       479  BGLC      C5             21.5051776208       26.7650258697       45.1248117688  LPSA14    11              6.0000000000
     14947       479  BGLC      H5             20.5497666945       27.3410153674       45.3871201921  LPSA14    11              6.0000000000
     14948       479  BGLC      O5             21.2930617760       25.6707786819       44.0830650888  LPSA14    11              6.0000000000
     14949       479  BGLC      C2             20.7596882022       24.0621531720       45.7977571702  LPSA14    11              6.0000000000
     14950       479  BGLC      H2             21.7135844383       23.4807177146       45.7293388291  LPSA14    11              6.0000000000
     14951       479  BGLC      O2             19.8046863799       23.0520884452       46.0886391483  LPSA14    11              6.0000000000
     14952       479  BGLC      HO2            20.2572035683       22.2529555025       46.2788110113  LPSA14    11              6.0000000000
     14953       479  BGLC      C3             20.9920266089       25.0399324683       46.8736276645  LPSA14    11              6.0000000000
     14954       479  BGLC      H3             19.9580570326       25.4821599690       47.1984917368  LPSA14    11              6.0000000000
     14955       479  BGLC      O3             21.4789981754       24.3284346172       48.0056213318  LPSA14    11              6.0000000000
     14956       479  BGLC      C4             21.9379534671       26.0466526506       46.4390836423  LPSA14    11              6.0000000000
     14957       479  BGLC      H4             22.9037359991       25.4857497350       46.2001611147  LPSA14    11              6.0000000000
     14958       479  BGLC      O4             22.2616250171       26.9574248809       47.4766894645  LPSA14    11              6.0000000000
     14959       479  BGLC      HO4            22.8036889290       26.4921143625       48.1247908570  LPSA14    11              6.0000000000
     14960       479  BGLC      C6             22.4113329350       27.8563280336       44.5291127165  LPSA14    11              6.0000000000
     14961       479  BGLC      H61            22.8914868896       28.5061140118       45.2481190913  LPSA14    11              6.0000000000
     14962       479  BGLC      H62            23.1672298253       27.3336457239       43.8913252379  LPSA14    11              6.0000000000
     14963       479  BGLC      O6             21.7602986087       28.7265527242       43.5637942269  LPSA14    11              6.0000000000
     14964       479  BGLC      HO6            21.7394569856       29.5426249795       44.0054369298  LPSA14    11              6.0000000000
     14965       480  BGLCNA    C1             20.8996793259       24.4614754312       49.3238540420  LPSA14    12              7.0000000000
     14966       480  BGLCNA    H1             20.0330464670       23.7204405080       49.3874222992  LPSA14    12              7.0000000000
     14967       480  BGLCNA    C5             19.7385897412       25.8715225529       50.8763077070  LPSA14    12              7.0000000000
     14968       480  BGLCNA    H5             18.8420527513       25.1097286193       50.9814236466  LPSA14    12              7.0000000000
     14969       480  BGLCNA    O5             20.3998466972       25.7915992674       49.5875345322  LPSA14    12              7.0000000000
     14970       480  BGLCNA    C2             21.9593623404       24.1397553002       50.3245054808  LPSA14    12              7.0000000000
     14971       480  BGLCNA    H2             22.6902980426       25.0556580243       50.3375086743  LPSA14    12              7.0000000000
     14972       480  BGLCNA    N              22.5604869165       22.8233309743       50.0347611965  LPSA14    12              7.0000000000
     14973       480  BGLCNA    HN             21.8656807498       22.1842939516       49.9972643287  LPSA14    12              7.0000000000
     14974       480  BGLCNA    C              23.8439285493       22.6901639296       49.8903426450  LPSA14    12              7.0000000000
     14975       480  BGLCNA    O              24.5814286690       23.6459614917       50.0855928044  LPSA14    12              7.0000000000
     14976       480  BGLCNA    CT             24.3495599453       21.3169710519       49.5677689528  LPSA14    12              7.0000000000
     14977       480  BGLCNA    HT1            24.9472062434       20.8874061951       50.3918503408  LPSA14    12              7.0000000000
     14978       480  BGLCNA    HT2            25.1573474055       21.3812561828       48.7104760971  LPSA14    12              7.0000000000
     14979       480  BGLCNA    HT3            23.4643240031       20.7223311911       49.2316245990  LPSA14    12              7.0000000000
     14980       480  BGLCNA    C3             21.4093717588       24.1641165309       51.6995695120  LPSA14    12              7.0000000000
     14981       480  BGLCNA    H3             20.6032085542       23.3094035194       51.8605307917  LPSA14    12              7.0000000000
     14982       480  BGLCNA    O3             22.3751549049       23.8107370137       52.7272334264  LPSA14    12              7.0000000000
     14983       480  BGLCNA    C4             20.8319680861       25.5190285801       51.9591692987  LPSA14    12              7.0000000000
     14984       480  BGLCNA    H4             21.5970801715       26.3827526616       51.9037868612  LPSA14    12              7.0000000000
     14985       480  BGLCNA    O4             20.2787642849       25.6144720267       53.2294962294  LPSA14    12              7.0000000000
     14986       480  BGLCNA    HO4            19.3960318931       25.1441736406       53.2834945119  LPSA14    12              7.0000000000
     14987       480  BGLCNA    C6             19.0830559602       27.2653527222       50.9528560558  LPSA14    12              7.0000000000
     14988       480  BGLCNA    H61            18.6518332606       27.4223533145       51.9144325068  LPSA14    12              7.0000000000
     14989       480  BGLCNA    H62            19.9243656428       27.9382402348       50.8287962869  LPSA14    12              7.0000000000
     14990       480  BGLCNA    O6             18.2225452405       27.4643346508       49.8597561973  LPSA14    12              7.0000000000
     14991       480  BGLCNA    HO6            17.3932870604       27.1468891729       50.1903398796  LPSA14    12              7.0000000000
     14992       481  AGAL      C1             21.8828765563       22.9611061969       53.8132743488  LPSA14    13              8.0000000000
     14993       481  AGAL      H1             20.9242995893       23.3771460550       54.1959401301  LPSA14    13              8.0000000000
     14994       481  AGAL      C5             23.2354517684       21.0346733885       53.2950732168  LPSA14    13              8.0000000000
     14995       481  AGAL      H5             23.6980584747       21.6942931942       52.5641412600  LPSA14    13              8.0000000000
     14996       481  AGAL      O5             21.8995825345       21.5245626212       53.4918445955  LPSA14    13              8.0000000000
     14997       481  AGAL      C2             22.7499358303       23.0231890593       55.1010141246  LPSA14    13              8.0000000000
     14998       481  AGAL      H2             22.4080277953       22.2264436866       55.7917211299  LPSA14    13              8.0000000000
     14999       481  AGAL      O2             22.6374994095       24.2618143214       55.7701983428  LPSA14    13              8.0000000000
     15000       481  AGAL      C3             24.1858167312       22.4820266024       54.8979691660  LPSA14    13              8.0000000000
     15001       481  AGAL      H3             24.6251583019       22.9940065924       54.0477453328  LPSA14    13              8.0000000000
     15002       481  AGAL      O3             25.0605910188       22.8071917755       55.9888739531  LPSA14    13              8.0000000000
     15003       481  AGAL      HO3            25.9300296343       23.0470101836       55.6848713412  LPSA14    13              8.0000000000
     15004       481  AGAL      C4             24.1478016098       21.1051164101       54.5514025965  LPSA14    13              8.0000000000
     15005       481  AGAL      H4             25.1839438684       20.7362263618       54.1954731349  LPSA14    13              8.0000000000
     15006       481  AGAL      O4             23.6493413558       20.2708973793       55.5743212917  LPSA14    13              8.0000000000
     15007       481  AGAL      HO4            22.8641337095       20.5799371791       56.0499681296  LPSA14    13              8.0000000000
     15008       481  AGAL      C6             23.3457422859       19.7303023153       52.5301443486  LPSA14    13              8.0000000000
     15009       481  AGAL      H61            22.7240858397       19.7803861946       51.6253596531  LPSA14    13              8.0000000000
     15010       481  AGAL      H62            24.4309930014       19.5134728771       52.3684678279  LPSA14    13              8.0000000000
     15011       481  AGAL      O6             22.8695291844       18.6446084151       53.2985910507  LPSA14    13              8.0000000000
     15012       481  AGAL      HO6            23.5597057605       18.3880917973       53.9299633642  LPSA14    13              8.0000000000
     15013       482  ARHM      C1             21.9958991501       24.3378359392       57.0117786358  LPSA14    14              9.0000000000
     15014       482  ARHM      H1             21.2609038351       23.5064517802       56.9981767125  LPSA14    14              9.0000000000
     15015       482  ARHM      C5             22.1164102269       26.6555525814       57.1930138837  LPSA14    14              9.0000000000
     15016       482  ARHM      H5             22.7001919700       26.6480307224       56.1976867078  LPSA14    14              9.0000000000
     15017       482  ARHM      O5             21.2855360094       25.5554754787       57.1718909996  LPSA14    14              9.0000000000
     15018       482  ARHM      C2             23.0370782235       24.1778196311       58.1413490634  LPSA14    14              9.0000000000
     15019       482  ARHM      H2             23.5599836946       23.2644018077       57.8875987320  LPSA14    14              9.0000000000
     15020       482  ARHM      O2             22.5120398842       24.1303890472       59.4330148990  LPSA14    14              9.0000000000
     15021       482  ARHM      C3             23.9764709396       25.3485272402       58.1095432995  LPSA14    14              9.0000000000
     15022       482  ARHM      H3             24.3295901244       25.4770462524       57.0440121713  LPSA14    14              9.0000000000
     15023       482  ARHM      O3             25.1425668314       25.1865221767       58.8567888868  LPSA14    14              9.0000000000
     15024       482  ARHM      HO3            24.8532529572       25.2814525866       59.8104957846  LPSA14    14              9.0000000000
     15025       482  ARHM      C4             23.1555081488       26.5634726869       58.3490442956  LPSA14    14              9.0000000000
     15026       482  ARHM      H4             22.5575912504       26.5855613599       59.2902338481  LPSA14    14              9.0000000000
     15027       482  ARHM      O4             24.0337291585       27.7185981517       58.4446785014  LPSA14    14              9.0000000000
     15028       482  ARHM      HO4            24.0886949988       28.1476517018       59.2969967688  LPSA14    14              9.0000000000
     15029       482  ARHM      C6             21.2773868513       27.9433943669       57.2492155848  LPSA14    14              9.0000000000
     15030       482  ARHM      H61            20.3794258297       27.9612350298       56.5358243550  LPSA14    14              9.0000000000
     15031       482  ARHM      H62            21.0083889887       28.0748243183       58.3170764683  LPSA14    14              9.0000000000
     15032       482  ARHM      H63            21.7237168058       28.8922320273       56.9421594120  LPSA14    14              9.0000000000
     15033       483  ARHM      C1             21.5154264717       23.2832195824       59.7267990175  LPSA14    15             10.0000000000
     15034       483  ARHM      H1             21.5179144444       22.4048185171       59.0458905905  LPSA14    15             10.0000000000
     15035       483  ARHM      C5             19.9055459610       24.9352333976       60.6468530148  LPSA14    15             10.0000000000
     15036       483  ARHM      H5             20.5266354897       25.8641736586       60.4457705401  LPSA14    15             10.0000000000
     15037       483  ARHM      O5             20.2000009625       23.8897773338       59.6688136410  LPSA14    15             10.0000000000
     15038       483  ARHM      C2             21.7085542549       22.7393726990       61.1407671534  LPSA14    15             10.0000000000
     15039       483  ARHM      H2             22.7985901974       22.3618274349       61.2133420761  LPSA14    15             10.0000000000
     15040       483  ARHM      O2             20.7380283347       21.6662511409       61.3234079317  LPSA14    15             10.0000000000
     15041       483  ARHM      C3             21.5194586348       23.8567163647       62.1677656617  LPSA14    15             10.0000000000
     15042       483  ARHM      H3             22.2157098629       24.6868307321       61.8628392879  LPSA14    15             10.0000000000
     15043       483  ARHM      O3             22.0627985458       23.3334103399       63.4092175029  LPSA14    15             10.0000000000
     15044       483  ARHM      C4             20.1639239813       24.3640023615       62.0487117432  LPSA14    15             10.0000000000
     15045       483  ARHM      H4             19.4311178189       23.4665607800       62.1496903561  LPSA14    15             10.0000000000
     15046       483  ARHM      O4             19.7469219491       25.3810632690       62.9635513464  LPSA14    15             10.0000000000
     15047       483  ARHM      HO4            18.8020525210       25.4107334883       62.9565205260  LPSA14    15             10.0000000000
     15048       483  ARHM      C6             18.4878674481       25.4192402529       60.4460959132  LPSA14    15             10.0000000000
     15049       483  ARHM      H61            18.1941291534       26.2859403213       61.0956562646  LPSA14    15             10.0000000000
     15050       483  ARHM      H62            18.2904068482       25.5397042232       59.3910198679  LPSA14    15             10.0000000000
     15051       483  ARHM      H63            17.7296171769       24.6953496148       60.8578185328  LPSA14    15             10.0000000000
     15052       484  BMANNA    C1             20.7546552968       20.8955058019       62.5145562334  LPSA14    16             11.0000000000
     15053       484  BMANNA    H1             20.3399747544       21.5819352929       63.3432051365  LPSA14    16             11.0000000000
     15054       484  BMANNA    C5             21.9418316792       19.7426628806       64.1851548173  LPSA14    16             11.0000000000
     15055       484  BMANNA    H5             21.5071135530       20.3627139088       64.9800677769  LPSA14    16             11.0000000000
     15056       484  BMANNA    O5             22.0414391483       20.4402617658       62.9158851071  LPSA14    16             11.0000000000
     15057       484  BMANNA    C2             19.7976373462       19.7038097310       62.2781089586  LPSA14    16             11.0000000000
     15058       484  BMANNA    H2             18.8246554000       20.1823680390       61.9912908466  LPSA14    16             11.0000000000
     15059       484  BMANNA    N              20.1326374672       18.7394466886       61.2264456342  LPSA14    16             11.0000000000
     15060       484  BMANNA    HN             20.6916025278       18.0204509658       61.5688724990  LPSA14    16             11.0000000000
     15061       484  BMANNA    C              19.7746100356       18.8405739084       59.9704010620  LPSA14    16             11.0000000000
     15062       484  BMANNA    O              19.0227109628       19.7659230472       59.5582221915  LPSA14    16             11.0000000000
     15063       484  BMANNA    CT             20.3101094695       17.7796717984       59.1331689300  LPSA14    16             11.0000000000
     15064       484  BMANNA    HT1            19.6100419237       17.0152234830       58.8344492748  LPSA14    16             11.0000000000
     15065       484  BMANNA    HT2            21.1888953825       17.2532630562       59.5043001239  LPSA14    16             11.0000000000
     15066       484  BMANNA    HT3            20.6410157913       18.1857201915       58.1231520073  LPSA14    16             11.0000000000
     15067       484  BMANNA    C3             19.6708464792       19.0113691492       63.6119771117  LPSA14    16             11.0000000000
     15068       484  BMANNA    H3             19.2845672812       19.7270089632       64.3839812837  LPSA14    16             11.0000000000
     15069       484  BMANNA    O3             18.7471329697       17.9612529053       63.6122488842  LPSA14    16             11.0000000000
     15070       484  BMANNA    HO3            18.1005135771       18.0817294835       64.2950500102  LPSA14    16             11.0000000000
     15071       484  BMANNA    C4             21.0314170312       18.5020376174       64.1045846713  LPSA14    16             11.0000000000
     15072       484  BMANNA    H4             21.4724977990       17.7596182793       63.4124605202  LPSA14    16             11.0000000000
     15073       484  BMANNA    O4             21.0606601809       17.8390213139       65.3816866120  LPSA14    16             11.0000000000
     15074       484  BMANNA    HO4            21.8146875271       17.2535122966       65.4353184152  LPSA14    16             11.0000000000
     15075       484  BMANNA    C6             23.3143135021       19.3440597730       64.7427751243  LPSA14    16             11.0000000000
     15076       484  BMANNA    H61            23.2255917927       19.3466648306       65.8875394407  LPSA14    16             11.0000000000
     15077       484  BMANNA    H62            23.5882989969       18.3314988782       64.4389269682  LPSA14    16             11.0000000000
     15078       484  BMANNA    O6             24.3863822384       20.2310423751       64.3660927576  LPSA14    16             11.0000000000
     15079       484  BMANNA    HO6            24.9971029178       19.6154016960       63.9036969990  LPSA14    16             11.0000000000
     15080       485  BGLCNA    C1             22.7299911500       24.2209932114       64.1715778089  LPSA14    17             11.0000000000
     15081       485  BGLCNA    H1             22.3425134297       25.2868440917       63.9082176002  LPSA14    17             11.0000000000
     15082       485  BGLCNA    C5             24.9252180209       25.2232549234       64.5563394407  LPSA14    17             11.0000000000
     15083       485  BGLCNA    H5             24.5861012068       26.2916691420       64.2825289487  LPSA14    17             11.0000000000
     15084       485  BGLCNA    O5             24.1317717733       24.3086936937       63.7849982893  LPSA14    17             11.0000000000
     15085       485  BGLCNA    C2             22.5695145212       23.8124261543       65.5899343931  LPSA14    17             11.0000000000
     15086       485  BGLCNA    H2             22.9827510329       22.7739365373       65.8249043900  LPSA14    17             11.0000000000
     15087       485  BGLCNA    N              21.2047403598       23.6390760733       65.8849826081  LPSA14    17             11.0000000000
     15088       485  BGLCNA    HN             20.5279670659       24.2365075041       65.4150135415  LPSA14    17             11.0000000000
     15089       485  BGLCNA    C              20.6213552567       22.8908374307       66.8043620798  LPSA14    17             11.0000000000
     15090       485  BGLCNA    O              21.2499181110       22.0789728410       67.4729873017  LPSA14    17             11.0000000000
     15091       485  BGLCNA    CT             19.1622936377       23.0841096843       66.9728872304  LPSA14    17             11.0000000000
     15092       485  BGLCNA    HT1            18.4559997026       22.3452465056       66.5529393721  LPSA14    17             11.0000000000
     15093       485  BGLCNA    HT2            18.9340559642       24.1336928555       66.7043805047  LPSA14    17             11.0000000000
     15094       485  BGLCNA    HT3            18.8884956092       23.0880264113       68.1408097225  LPSA14    17             11.0000000000
     15095       485  BGLCNA    C3             23.3080752561       24.8482568141       66.4076579941  LPSA14    17             11.0000000000
     15096       485  BGLCNA    H3             22.8186797951       25.8132809730       66.0441361901  LPSA14    17             11.0000000000
     15097       485  BGLCNA    O3             22.9466530093       24.6365333196       67.8205355914  LPSA14    17             11.0000000000
     15098       485  BGLCNA    C4             24.7866856081       24.7930743397       66.0496966154  LPSA14    17             11.0000000000
     15099       485  BGLCNA    H4             25.1948707863       23.7240063209       66.1123142204  LPSA14    17             11.0000000000
     15100       485  BGLCNA    O4             25.5824185034       25.5733598668       66.9186044206  LPSA14    17             11.0000000000
     15101       485  BGLCNA    HO4            26.5106776348       25.6035203099       66.7204061560  LPSA14    17             11.0000000000
     15102       485  BGLCNA    C6             26.4001088347       25.1233596402       64.1200051697  LPSA14    17             11.0000000000
     15103       485  BGLCNA    H61            26.8522043352       26.0960027615       64.1272946536  LPSA14    17             11.0000000000
     15104       485  BGLCNA    H62            26.9928633511       24.4586053970       64.8212395067  LPSA14    17             11.0000000000
     15105       485  BGLCNA    O6             26.5451977555       24.5998516742       62.7926115083  LPSA14    17             11.0000000000
     15106       485  BGLCNA    HO6            26.0817921402       25.1660102886       62.1856770532  LPSA14    17             11.0000000000
     15107       486  AGAL      C1             22.8271816661       25.8409032980       68.6198653987  LPSA14    18             12.0000000000
     15108       486  AGAL      H1             23.8750335818       26.2202377033       68.8082567594  LPSA14    18             12.0000000000
     15109       486  AGAL      C5             20.6431294615       26.4933080886       67.8636918791  LPSA14    18             12.0000000000
     15110       486  AGAL      H5             20.5824605009       25.5014708674       67.4068928888  LPSA14    18             12.0000000000
     15111       486  AGAL      O5             22.0685733151       26.8458611758       67.9834320655  LPSA14    18             12.0000000000
     15112       486  AGAL      C2             22.1180828606       25.5642394697       70.0000206359  LPSA14    18             12.0000000000
     15113       486  AGAL      H2             22.1191852318       26.6077774521       70.3908489884  LPSA14    18             12.0000000000
     15114       486  AGAL      O2             22.9512254181       24.8299656330       70.8342757016  LPSA14    18             12.0000000000
     15115       486  AGAL      C3             20.6882095032       25.1700200548       69.8682924558  LPSA14    18             12.0000000000
     15116       486  AGAL      H3             20.6208078948       24.3004552590       69.0958348126  LPSA14    18             12.0000000000
     15117       486  AGAL      O3             20.1347221865       24.7414257838       71.0758896640  LPSA14    18             12.0000000000
     15118       486  AGAL      HO3            19.6361249631       23.9295462745       70.9682873819  LPSA14    18             12.0000000000
     15119       486  AGAL      C4             19.9597272820       26.2414487244       69.1634745928  LPSA14    18             12.0000000000
     15120       486  AGAL      H4             18.8979547764       26.0193786568       68.9039691178  LPSA14    18             12.0000000000
     15121       486  AGAL      O4             19.9132297950       27.4452662757       69.9734134928  LPSA14    18             12.0000000000
     15122       486  AGAL      HO4            19.2355984510       27.3130983788       70.7236544006  LPSA14    18             12.0000000000
     15123       486  AGAL      C6             20.0734116105       27.3272721420       66.8042742825  LPSA14    18             12.0000000000
     15124       486  AGAL      H61            20.6105084679       27.0780188747       65.8877991861  LPSA14    18             12.0000000000
     15125       486  AGAL      H62            19.0187386751       26.9711128573       66.6499463921  LPSA14    18             12.0000000000
     15126       486  AGAL      O6             20.1593380900       28.6478579492       66.9803033045  LPSA14    18             12.0000000000
     15127       486  AGAL      HO6            20.7315079106       28.9667785046       67.6707071977  LPSA14    18             12.0000000000
     15128       487  ARHM      C1             22.9037154839       25.3685085569       72.1803514454  LPSA14    19             13.0000000000
     15129       487  ARHM      H1             22.0196807888       25.9580047882       72.3185909119  LPSA14    19             13.0000000000
     15130       487  ARHM      C5             25.2214937685       25.8646214978       72.2512180912  LPSA14    19             13.0000000000
     15131       487  ARHM      H5             25.2766311317       25.4459199169       71.2133247196  LPSA14    19             13.0000000000
     15132       487  ARHM      O5             23.8977180990       26.3758490831       72.4162684983  LPSA14    19             13.0000000000
     15133       487  ARHM      C2             23.0485236584       24.2210170528       73.1100514097  LPSA14    19             13.0000000000
     15134       487  ARHM      H2             22.3966927813       23.4027091774       72.9420985559  LPSA14    19             13.0000000000
     15135       487  ARHM      O2             22.8594530172       24.6523013900       74.4131644751  LPSA14    19             13.0000000000
     15136       487  ARHM      C3             24.5093702020       23.6874883824       72.9859276785  LPSA14    19             13.0000000000
     15137       487  ARHM      H3             24.6552470770       23.4025323891       71.9471750908  LPSA14    19             13.0000000000
     15138       487  ARHM      O3             24.6989174110       22.5616532108       73.7644258584  LPSA14    19             13.0000000000
     15139       487  ARHM      HO3            24.3750087621       22.7759397003       74.6464134549  LPSA14    19             13.0000000000
     15140       487  ARHM      C4             25.5240212709       24.7197903444       73.2443334127  LPSA14    19             13.0000000000
     15141       487  ARHM      H4             25.3446535058       25.0652997071       74.2703943704  LPSA14    19             13.0000000000
     15142       487  ARHM      O4             26.8467114462       24.2896409788       73.1708570575  LPSA14    19             13.0000000000
     15143       487  ARHM      HO4            26.9934071771       24.0324185784       72.2126258713  LPSA14    19             13.0000000000
     15144       487  ARHM      C6             26.2679123502       26.9923481918       72.3031700958  LPSA14    19             13.0000000000
     15145       487  ARHM      H61            25.9063474411       27.6379387460       71.5186681997  LPSA14    19             13.0000000000
     15146       487  ARHM      H62            26.3229267610       27.5660443802       73.2001761489  LPSA14    19             13.0000000000
     15147       487  ARHM      H63            27.2849800017       26.6529846420       72.0875448643  LPSA14    19             13.0000000000
     15148       488  ARHM      C1             21.5158561164       24.8631185262       74.6981797177  LPSA14    20             14.0000000000
     15149       488  ARHM      H1             20.8247966547       24.4485470781       73.8936196974  LPSA14    20             14.0000000000
     15150       488  ARHM      C5             21.6986189622       26.8695238709       75.9960310464  LPSA14    20             14.0000000000
     15151       488  ARHM      H5             22.7962529810       26.7515049645       75.8071112250  LPSA14    20             14.0000000000
     15152       488  ARHM      O5             21.0926045240       26.2158537726       74.8741575474  LPSA14    20             14.0000000000
     15153       488  ARHM      C2             21.1271740383       24.0703316755       75.9438944127  LPSA14    20             14.0000000000
     15154       488  ARHM      H2             21.5535909476       22.9931381982       75.7904987900  LPSA14    20             14.0000000000
     15155       488  ARHM      O2             19.7068988231       24.0561224000       76.2145535291  LPSA14    20             14.0000000000
     15156       488  ARHM      C3             21.7649760936       24.7554343658       77.0746584307  LPSA14    20             14.0000000000
     15157       488  ARHM      H3             22.9116716312       24.7408048691       76.9570890266  LPSA14    20             14.0000000000
     15158       488  ARHM      O3             21.4787972086       23.9466895633       78.2431898216  LPSA14    20             14.0000000000
     15159       488  ARHM      C4             21.3247477796       26.1741262703       77.2147849866  LPSA14    20             14.0000000000
     15160       488  ARHM      H4             20.2617233368       26.2776994631       77.2882629629  LPSA14    20             14.0000000000
     15161       488  ARHM      O4             21.8883302866       26.7214693499       78.4294019453  LPSA14    20             14.0000000000
     15162       488  ARHM      HO4            21.9419965319       27.5863167081       78.0714846557  LPSA14    20             14.0000000000
     15163       488  ARHM      C6             21.3682426909       28.3035067035       75.9818768401  LPSA14    20             14.0000000000
     15164       488  ARHM      H61            20.2859379338       28.6255352248       76.0487105533  LPSA14    20             14.0000000000
     15165       488  ARHM      H62            21.9413095231       28.8270552465       76.7492574554  LPSA14    20             14.0000000000
     15166       488  ARHM      H63            21.6518388997       28.8419098989       75.0059134709  LPSA14    20             14.0000000000
     15167       489  BMANNA    C1             19.1826133509       23.0318205647       75.4501725836  LPSA14    21             15.0000000000
     15168       489  BMANNA    H1             19.9407890389       22.6576243867       74.6495731600  LPSA14    21             15.0000000000
     15169       489  BMANNA    C5             17.7304449870       22.4494685763       73.6578092950  LPSA14    21             15.0000000000
     15170       489  BMANNA    H5             18.5842477311       21.9280463909       73.0422409194  LPSA14    21             15.0000000000
     15171       489  BMANNA    O5             18.1444900706       23.5437601991       74.5460975074  LPSA14    21             15.0000000000
     15172       489  BMANNA    C2             18.6476072846       21.9462795943       76.3268603500  LPSA14    21             15.0000000000
     15173       489  BMANNA    H2             19.5483698606       21.6480294090       76.8663433126  LPSA14    21             15.0000000000
     15174       489  BMANNA    N              17.6393182698       22.4414220564       77.2602735953  LPSA14    21             15.0000000000
     15175       489  BMANNA    HN             16.9049126162       22.9378583036       76.8630196157  LPSA14    21             15.0000000000
     15176       489  BMANNA    C              17.4980416313       22.0320482486       78.6142451918  LPSA14    21             15.0000000000
     15177       489  BMANNA    O              18.1314106007       21.0631781155       79.0340579138  LPSA14    21             15.0000000000
     15178       489  BMANNA    CT             16.4955996993       22.7903358551       79.5125915666  LPSA14    21             15.0000000000
     15179       489  BMANNA    HT1            15.4735231787       22.3969572247       79.3040814335  LPSA14    21             15.0000000000
     15180       489  BMANNA    HT2            16.6546808634       23.8648834819       79.3224353366  LPSA14    21             15.0000000000
     15181       489  BMANNA    HT3            16.7199531067       22.5888139840       80.6000991146  LPSA14    21             15.0000000000
     15182       489  BMANNA    C3             18.1978327032       20.8368524291       75.4428482744  LPSA14    21             15.0000000000
     15183       489  BMANNA    H3             19.1412453504       20.5360959319       75.0091666053  LPSA14    21             15.0000000000
     15184       489  BMANNA    O3             17.6939228696       19.7313770333       76.1769203835  LPSA14    21             15.0000000000
     15185       489  BMANNA    HO3            17.0115883627       20.0531200289       76.7354970047  LPSA14    21             15.0000000000
     15186       489  BMANNA    C4             17.1400637375       21.3249032409       74.4866217523  LPSA14    21             15.0000000000
     15187       489  BMANNA    H4             16.1114055764       21.6571919058       75.0002820064  LPSA14    21             15.0000000000
     15188       489  BMANNA    O4             16.7054341618       20.3205922669       73.6152290754  LPSA14    21             15.0000000000
     15189       489  BMANNA    HO4            15.7597229051       20.1027850522       73.7703874424  LPSA14    21             15.0000000000
     15190       489  BMANNA    C6             16.8244511905       22.9038803265       72.6348027846  LPSA14    21             15.0000000000
     15191       489  BMANNA    H61            16.6268488872       22.1449879228       71.8494922130  LPSA14    21             15.0000000000
     15192       489  BMANNA    H62            15.7839956701       22.9626037346       73.0558617198  LPSA14    21             15.0000000000
     15193       489  BMANNA    O6             17.0664001240       24.1549681883       72.0654385618  LPSA14    21             15.0000000000
     15194       489  BMANNA    HO6            17.1350111123       24.7889077428       72.7784055652  LPSA14    21             15.0000000000
     15195       490  BGLCNA    C1             22.4395803139       23.7794669361       79.2248726046  LPSA14    22             15.0000000000
     15196       490  BGLCNA    H1             23.2018785621       24.6112105365       79.2753119810  LPSA14    22             15.0000000000
     15197       490  BGLCNA    C5             24.2427558373       22.4568841123       80.1145289529  LPSA14    22             15.0000000000
     15198       490  BGLCNA    H5             24.8832960234       23.4360834962       80.0727605020  LPSA14    22             15.0000000000
     15199       490  BGLCNA    O5             23.2115151934       22.6231117670       79.0803056561  LPSA14    22             15.0000000000
     15200       490  BGLCNA    C2             21.7432922363       23.7290498158       80.5602818744  LPSA14    22             15.0000000000
     15201       490  BGLCNA    H2             21.0906279616       22.7905378426       80.4633107900  LPSA14    22             15.0000000000
     15202       490  BGLCNA    N              20.9382737393       24.9235841253       80.7025670875  LPSA14    22             15.0000000000
     15203       490  BGLCNA    HN             21.3692493677       25.7632045395       80.4501896382  LPSA14    22             15.0000000000
     15204       490  BGLCNA    C              19.7812578208       24.9787523876       81.3295640408  LPSA14    22             15.0000000000
     15205       490  BGLCNA    O              19.2779578701       23.9636623734       81.8448112003  LPSA14    22             15.0000000000
     15206       490  BGLCNA    CT             19.1170432139       26.3049444045       81.4359073222  LPSA14    22             15.0000000000
     15207       490  BGLCNA    HT1            18.5143297777       26.3253860466       80.5353412834  LPSA14    22             15.0000000000
     15208       490  BGLCNA    HT2            19.8997864326       27.0813034733       81.2752873926  LPSA14    22             15.0000000000
     15209       490  BGLCNA    HT3            18.6382425130       26.5200907192       82.3679651303  LPSA14    22             15.0000000000
     15210       490  BGLCNA    C3             22.7361703202       23.5476299485       81.6855161512  LPSA14    22             15.0000000000
     15211       490  BGLCNA    H3             23.4645310669       24.3959684462       81.6419517197  LPSA14    22             15.0000000000
     15212       490  BGLCNA    O3             21.9825644855       23.6474597437       82.8729300216  LPSA14    22             15.0000000000
     15213       490  BGLCNA    C4             23.5661749671       22.2781319592       81.4704242134  LPSA14    22             15.0000000000
     15214       490  BGLCNA    H4             22.8669125829       21.4858574576       81.4144045074  LPSA14    22             15.0000000000
     15215       490  BGLCNA    O4             24.4838068906       22.0364703278       82.5140850489  LPSA14    22             15.0000000000
     15216       490  BGLCNA    HO4            24.4897060398       21.0842985139       82.7130071916  LPSA14    22             15.0000000000
     15217       490  BGLCNA    C6             25.0628285941       21.2339598577       79.7284495560  LPSA14    22             15.0000000000
     15218       490  BGLCNA    H61            25.5789028642       20.9495493983       80.6924177192  LPSA14    22             15.0000000000
     15219       490  BGLCNA    H62            24.4104094111       20.3746465683       79.4648784538  LPSA14    22             15.0000000000
     15220       490  BGLCNA    O6             26.0736742128       21.4789977138       78.8100863794  LPSA14    22             15.0000000000
     15221       490  BGLCNA    HO6            25.6859914491       21.8477178175       78.0328486455  LPSA14    22             15.0000000000
     15222       491  AGAL      C1             22.6149449944       23.9513251832       84.0628261254  LPSA14    23             16.0000000000
     15223       491  AGAL      H1             23.1578277599       23.0734042013       84.5106287163  LPSA14    23             16.0000000000
     15224       491  AGAL      C5             22.9171845372       26.2936623424       83.7583018441  LPSA14    23             16.0000000000
     15225       491  AGAL      H5             22.2317736899       26.1939306316       82.8366412438  LPSA14    23             16.0000000000
     15226       491  AGAL      O5             23.5319740484       25.0482482198       83.9976212264  LPSA14    23             16.0000000000
     15227       491  AGAL      C2             21.5964065309       24.2654924983       85.1427633740  LPSA14    23             16.0000000000
     15228       491  AGAL      H2             22.1846221907       24.4713515426       86.0076373284  LPSA14    23             16.0000000000
     15229       491  AGAL      O2             20.7825357524       23.1741460266       85.5000844886  LPSA14    23             16.0000000000
     15230       491  AGAL      C3             20.8835879986       25.5543196270       84.9194901020  LPSA14    23             16.0000000000
     15231       491  AGAL      H3             20.4756616112       25.4894734515       83.8641570193  LPSA14    23             16.0000000000
     15232       491  AGAL      O3             19.7775886809       25.7883225609       85.7108298168  LPSA14    23             16.0000000000
     15233       491  AGAL      HO3            20.0786231780       25.5652786224       86.6206525111  LPSA14    23             16.0000000000
     15234       491  AGAL      C4             21.9148367883       26.6424459161       84.8901212015  LPSA14    23             16.0000000000
     15235       491  AGAL      H4             21.4809003355       27.6397411965       84.6506069022  LPSA14    23             16.0000000000
     15236       491  AGAL      O4             22.5852578075       26.9056969698       86.1132943683  LPSA14    23             16.0000000000
     15237       491  AGAL      HO4            23.4130129800       27.1286898543       85.8278371007  LPSA14    23             16.0000000000
     15238       491  AGAL      C6             23.9274944053       27.3231966847       83.3278962909  LPSA14    23             16.0000000000
     15239       491  AGAL      H61            24.5796350221       26.9038948507       82.6074235255  LPSA14    23             16.0000000000
     15240       491  AGAL      H62            23.4776863951       28.1441936646       82.7620574208  LPSA14    23             16.0000000000
     15241       491  AGAL      O6             24.7168616172       27.7109741482       84.3845202183  LPSA14    23             16.0000000000
     15242       491  AGAL      HO6            25.4026179527       28.3272614161       84.1740981585  LPSA14    23             16.0000000000
     15243       492  ARHM      C1             21.2079185368       22.0730338158       86.2818185944  LPSA14    24             17.0000000000
     15244       492  ARHM      H1             22.2757155604       22.1324912087       86.3680542693  LPSA14    24             17.0000000000
     15245       492  ARHM      C5             19.5377238356       20.4810327589       85.6157638072  LPSA14    24             17.0000000000
     15246       492  ARHM      H5             19.1025815388       21.2450654390       85.0070975499  LPSA14    24             17.0000000000
     15247       492  ARHM      O5             20.9251210390       20.6856939407       85.8657410059  LPSA14    24             17.0000000000
     15248       492  ARHM      C2             20.5422891181       22.3332333188       87.5921581840  LPSA14    24             17.0000000000
     15249       492  ARHM      H2             20.6362444448       23.3584931073       87.8984046741  LPSA14    24             17.0000000000
     15250       492  ARHM      O2             20.9475414320       21.3954946705       88.6075763533  LPSA14    24             17.0000000000
     15251       492  ARHM      C3             19.0376869483       22.0796150663       87.4133527752  LPSA14    24             17.0000000000
     15252       492  ARHM      H3             18.7132183796       22.8088444219       86.6640279609  LPSA14    24             17.0000000000
     15253       492  ARHM      O3             18.2267658515       22.4426740438       88.5620392964  LPSA14    24             17.0000000000
     15254       492  ARHM      HO3            18.2254956688       21.6541233391       89.1463757531  LPSA14    24             17.0000000000
     15255       492  ARHM      C4             18.7595207129       20.6590892558       86.9402325015  LPSA14    24             17.0000000000
     15256       492  ARHM      H4             19.2481628664       19.9351134726       87.7071552895  LPSA14    24             17.0000000000
     15257       492  ARHM      O4             17.3916024586       20.3277834736       86.8379508285  LPSA14    24             17.0000000000
     15258       492  ARHM      HO4            17.1926738903       19.4239975217       87.0219124236  LPSA14    24             17.0000000000
     15259       492  ARHM      C6             19.2316906972       19.0922506088       84.9175891319  LPSA14    24             17.0000000000
     15260       492  ARHM      H61            18.2852976374       19.1737328721       84.3853494017  LPSA14    24             17.0000000000
     15261       492  ARHM      H62            20.0309178337       18.9309516389       84.2649634992  LPSA14    24             17.0000000000
     15262       492  ARHM      H63            19.2870709266       18.2466241062       85.6811466487  LPSA14    24             17.0000000000
     15263       493  ARHM      C1             22.2078724926       21.7606982323       89.1588742089  LPSA14    25             18.0000000000
     15264       493  ARHM      H1             22.7325672007       22.3778725978       88.4722246341  LPSA14    25             18.0000000000
     15265       493  ARHM      C5             22.6390169114       19.6343504385       90.1670531641  LPSA14    25             18.0000000000
     15266       493  ARHM      H5             21.7085384302       19.2176430638       89.8870230824  LPSA14    25             18.0000000000
     15267       493  ARHM      O5             23.1020786072       20.6326736907       89.2315309535  LPSA14    25             18.0000000000
     15268       493  ARHM      C2             21.9919350842       22.4110743069       90.4685713243  LPSA14    25             18.0000000000
     15269       493  ARHM      H2             21.1839816944       23.2079456767       90.3413143991  LPSA14    25             18.0000000000
     15270       493  ARHM      O2             23.2399654545       23.0126486320       90.9328696740  LPSA14    25             18.0000000000
     15271       493  ARHM      C3             21.5390301287       21.2872371579       91.4562257518  LPSA14    25             18.0000000000
     15272       493  ARHM      H3             20.5663033355       20.8931809127       91.0689171631  LPSA14    25             18.0000000000
     15273       493  ARHM      O3             21.3074729859       21.9306823350       92.6920647463  LPSA14    25             18.0000000000
     15274       493  ARHM      C4             22.4667958786       20.2058629561       91.5960769721  LPSA14    25             18.0000000000
     15275       493  ARHM      H4             23.5342653825       20.5797400276       91.8876801091  LPSA14    25             18.0000000000
     15276       493  ARHM      O4             21.9338936111       19.3261347297       92.5862492282  LPSA14    25             18.0000000000
     15277       493  ARHM      HO4            22.7038772073       18.9987113108       93.0149361445  LPSA14    25             18.0000000000
     15278       493  ARHM      C6             23.5626849567       18.4179251424       90.2083352735  LPSA14    25             18.0000000000
     15279       493  ARHM      H61            23.7929057851       18.0332408501       89.1912344565  LPSA14    25             18.0000000000
     15280       493  ARHM      H62            24.5647911979       18.6330173206       90.6686969550  LPSA14    25             18.0000000000
     15281       493  ARHM      H63            23.1346387811       17.5381441641       90.8233913566  LPSA14    25             18.0000000000
     15282       494  BMANNA    C1             23.5500050063       24.2384975807       90.3138108879  LPSA14    26             19.0000000000
     15283       494  BMANNA    H1             22.6416359385       24.7133554388       89.8388342826  LPSA14    26             19.0000000000
     15284       494  BMANNA    C5             24.7264576496       25.4555780474       88.6312665858  LPSA14    26             19.0000000000
     15285       494  BMANNA    H5             23.7794393987       25.7483595002       88.1771240033  LPSA14    26             19.0000000000
     15286       494  BMANNA    O5             24.5216187057       24.1716414179       89.2346891933  LPSA14    26             19.0000000000
     15287       494  BMANNA    C2             24.0398091062       25.1286433568       91.3475147821  LPSA14    26             19.0000000000
     15288       494  BMANNA    H2             23.1928941643       25.1754924229       92.1081287357  LPSA14    26             19.0000000000
     15289       494  BMANNA    N              25.2704366867       24.5425553557       91.9238920796  LPSA14    26             19.0000000000
     15290       494  BMANNA    HN             25.9772312947       24.3490598824       91.3050515894  LPSA14    26             19.0000000000
     15291       494  BMANNA    C              25.4934606756       24.3659834499       93.1798471680  LPSA14    26             19.0000000000
     15292       494  BMANNA    O              24.5705407480       24.5136304124       94.0003587425  LPSA14    26             19.0000000000
     15293       494  BMANNA    CT             26.8913418708       23.9984692140       93.6758917343  LPSA14    26             19.0000000000
     15294       494  BMANNA    HT1            27.4017817846       23.5723234843       92.8666282051  LPSA14    26             19.0000000000
     15295       494  BMANNA    HT2            27.0716515479       23.4612400017       94.6620984389  LPSA14    26             19.0000000000
     15296       494  BMANNA    HT3            27.3879538156       24.9609393914       93.8484898219  LPSA14    26             19.0000000000
     15297       494  BMANNA    C3             24.2211093098       26.5091243431       90.7100883268  LPSA14    26             19.0000000000
     15298       494  BMANNA    H3             23.2215289291       26.8467075283       90.3384445889  LPSA14    26             19.0000000000
     15299       494  BMANNA    O3             24.5949415488       27.4377465386       91.7636866611  LPSA14    26             19.0000000000
     15300       494  BMANNA    HO3            23.7745925742       27.5597681642       92.2265744207  LPSA14    26             19.0000000000
     15301       494  BMANNA    C4             25.1695866988       26.4063881398       89.6481622736  LPSA14    26             19.0000000000
     15302       494  BMANNA    H4             26.2121512622       26.0569097670       89.9013799111  LPSA14    26             19.0000000000
     15303       494  BMANNA    O4             25.4022000713       27.6697753645       89.0416847738  LPSA14    26             19.0000000000
     15304       494  BMANNA    HO4            26.0578398884       28.1353209926       89.5591157304  LPSA14    26             19.0000000000
     15305       494  BMANNA    C6             25.6230489900       25.1645915972       87.3900617492  LPSA14    26             19.0000000000
     15306       494  BMANNA    H61            25.3726306372       24.1975206665       86.9191763972  LPSA14    26             19.0000000000
     15307       494  BMANNA    H62            25.5326674872       25.9168453302       86.6504270337  LPSA14    26             19.0000000000
     15308       494  BMANNA    O6             27.0037407225       25.1192486201       87.7329108337  LPSA14    26             19.0000000000
     15309       494  BMANNA    HO6            27.2468807104       25.9095329771       88.1688153196  LPSA14    26             19.0000000000
     15310       495  BGLCNA    C1             20.2158407871       21.7275383225       93.4616184899  LPSA14    27             19.0000000000
     15311       495  BGLCNA    H1             19.9196359941       20.6834382576       93.4392217979  LPSA14    27             19.0000000000
     15312       495  BGLCNA    C5             17.9360874908       22.1640653061       93.9656603721  LPSA14    27             19.0000000000
     15313       495  BGLCNA    H5             17.7895962103       21.0535519172       93.9564344452  LPSA14    27             19.0000000000
     15314       495  BGLCNA    O5             19.0181926967       22.4229562811       93.0607755266  LPSA14    27             19.0000000000
     15315       495  BGLCNA    C2             20.6309181694       22.1228632657       94.8806799918  LPSA14    27             19.0000000000
     15316       495  BGLCNA    H2             20.8015417468       23.2133713404       94.8757458582  LPSA14    27             19.0000000000
     15317       495  BGLCNA    N              21.8625812877       21.4507686876       95.2501113516  LPSA14    27             19.0000000000
     15318       495  BGLCNA    HN             21.8857050476       20.4102839048       95.0827132934  LPSA14    27             19.0000000000
     15319       495  BGLCNA    C              22.7855895013       22.2191916588       95.9523160909  LPSA14    27             19.0000000000
     15320       495  BGLCNA    O              22.5501398906       23.3267900141       96.5238801166  LPSA14    27             19.0000000000
     15321       495  BGLCNA    CT             24.2069508608       21.5804832038       96.0293745529  LPSA14    27             19.0000000000
     15322       495  BGLCNA    HT1            24.2710078977       20.6772524058       95.3635606282  LPSA14    27             19.0000000000
     15323       495  BGLCNA    HT2            24.5476625345       21.3612306005       97.0167906789  LPSA14    27             19.0000000000
     15324       495  BGLCNA    HT3            24.9529720974       22.4066441026       95.7039804309  LPSA14    27             19.0000000000
     15325       495  BGLCNA    C3             19.5058723500       21.8492098580       95.7540348103  LPSA14    27             19.0000000000
     15326       495  BGLCNA    H3             19.2130974369       20.7698758313       95.7401190096  LPSA14    27             19.0000000000
     15327       495  BGLCNA    O3             20.0205104933       22.2222957201       97.0775356047  LPSA14    27             19.0000000000
     15328       495  BGLCNA    C4             18.2325309894       22.6170466432       95.3486864533  LPSA14    27             19.0000000000
     15329       495  BGLCNA    H4             18.4560655950       23.7080163481       95.3090014479  LPSA14    27             19.0000000000
     15330       495  BGLCNA    O4             17.1878051256       22.3678914047       96.2156872787  LPSA14    27             19.0000000000
     15331       495  BGLCNA    HO4            16.9509943092       21.4843373412       96.0162444362  LPSA14    27             19.0000000000
     15332       495  BGLCNA    C6             16.6653900393       22.7781321941       93.2852949846  LPSA14    27             19.0000000000
     15333       495  BGLCNA    H61            15.8197925720       22.3827527658       93.8557506920  LPSA14    27             19.0000000000
     15334       495  BGLCNA    H62            16.6339842949       23.8773499689       93.4725180191  LPSA14    27             19.0000000000
     15335       495  BGLCNA    O6             16.6022347065       22.4488903133       91.9076175409  LPSA14    27             19.0000000000
     15336       495  BGLCNA    HO6            15.8049803069       22.8787172927       91.5273290588  LPSA14    27             19.0000000000
     15337       496  AGAL      C1             19.3301317350       21.7579235761       98.2622020222  LPSA14    28             20.0000000000
     15338       496  AGAL      H1             18.3968998389       22.2518835546       98.3007149491  LPSA14    28             20.0000000000
     15339       496  AGAL      C5             20.2134755480       19.5018927691       98.1710438288  LPSA14    28             20.0000000000
     15340       496  AGAL      H5             21.0793212001       19.9196365924       97.4646141937  LPSA14    28             20.0000000000
     15341       496  AGAL      O5             19.0126682202       20.3756211969       98.1147365872  LPSA14    28             20.0000000000
     15342       496  AGAL      C2             20.0391042680       21.9058048659       99.6197190629  LPSA14    28             20.0000000000
     15343       496  AGAL      H2             19.3010085914       21.4805590588      100.2965066153  LPSA14    28             20.0000000000
     15344       496  AGAL      O2             20.2772507179       23.2277033268      100.0788731798  LPSA14    28             20.0000000000
     15345       496  AGAL      C3             21.2555971003       21.0426520104       99.7396972452  LPSA14    28             20.0000000000
     15346       496  AGAL      H3             21.9319818544       21.2852497883       98.8607737785  LPSA14    28             20.0000000000
     15347       496  AGAL      O3             22.0944425353       21.1703528000      100.9043404272  LPSA14    28             20.0000000000
     15348       496  AGAL      HO3            22.9534722228       21.4840721182      100.5606486229  LPSA14    28             20.0000000000
     15349       496  AGAL      C4             20.8701019444       19.6362154594       99.5102226768  LPSA14    28             20.0000000000
     15350       496  AGAL      H4             21.7603809564       19.0545122447       99.4798298294  LPSA14    28             20.0000000000
     15351       496  AGAL      O4             20.0087058971       19.1232832132      100.4757933835  LPSA14    28             20.0000000000
     15352       496  AGAL      HO4            20.5370882274       18.6036667978      101.0376442747  LPSA14    28             20.0000000000
     15353       496  AGAL      C6             19.9977051054       18.0834094331       97.6362902244  LPSA14    28             20.0000000000
     15354       496  AGAL      H61            19.7382872245       18.1369256917       96.5809275898  LPSA14    28             20.0000000000
     15355       496  AGAL      H62            20.8681556448       17.3411767923       97.7651048223  LPSA14    28             20.0000000000
     15356       496  AGAL      O6             18.9439380993       17.4655245632       98.3456070822  LPSA14    28             20.0000000000
     15357       496  AGAL      HO6            18.1021576588       17.6803163175       97.9416813930  LPSA14    28             20.0000000000
     15358       497  ARHM      C1             19.9278300760       23.3074655064      101.4808913342  LPSA14    29             21.0000000000
     15359       497  ARHM      H1             20.0538357681       22.3008820658      101.9964955809  LPSA14    29             21.0000000000
     15360       497  ARHM      C5             18.3570055517       25.0208010551      101.1486206043  LPSA14    29             21.0000000000
     15361       497  ARHM      H5             18.6928309235       24.9731741279      100.0935446791  LPSA14    29             21.0000000000
     15362       497  ARHM      O5             18.6169035745       23.7539828788      101.6833506475  LPSA14    29             21.0000000000
     15363       497  ARHM      C2             20.8942905004       24.1848947286      102.1437305515  LPSA14    29             21.0000000000
     15364       497  ARHM      H2             21.9030232947       23.9151472184      101.9067628034  LPSA14    29             21.0000000000
     15365       497  ARHM      O2             20.7520592708       24.1666664596      103.5748524404  LPSA14    29             21.0000000000
     15366       497  ARHM      C3             20.6675538954       25.5779837443      101.6289418068  LPSA14    29             21.0000000000
     15367       497  ARHM      H3             20.9308027577       25.6075873493      100.4952263366  LPSA14    29             21.0000000000
     15368       497  ARHM      O3             21.6327677990       26.4193231576      102.1995749427  LPSA14    29             21.0000000000
     15369       497  ARHM      HO3            21.2633220302       27.2361143983      102.2092645043  LPSA14    29             21.0000000000
     15370       497  ARHM      C4             19.3001353033       26.0672421863      101.8247918557  LPSA14    29             21.0000000000
     15371       497  ARHM      H4             19.0383783615       26.1586467289      102.9338171738  LPSA14    29             21.0000000000
     15372       497  ARHM      O4             18.9912408479       27.3955702101      101.3452167393  LPSA14    29             21.0000000000
     15373       497  ARHM      HO4            19.3661947321       27.6005636801      100.4362974805  LPSA14    29             21.0000000000
     15374       497  ARHM      C6             16.8336840761       25.2289575388      101.2162231226  LPSA14    29             21.0000000000
     15375       497  ARHM      H61            16.4262565676       24.2512987727      100.7685423143  LPSA14    29             21.0000000000
     15376       497  ARHM      H62            16.5251129345       25.2832050833      102.3013153741  LPSA14    29             21.0000000000
     15377       497  ARHM      H63            16.5700000413       26.1004245727      100.6072571094  LPSA14    29             21.0000000000
     15378       498  ARHM      C1             21.5525322005       23.3756700350      104.3945976075  LPSA14    30             22.0000000000
     15379       498  ARHM      H1             22.6170416266       23.6392381192      104.2094096401  LPSA14    30             22.0000000000
     15380       498  ARHM      C5             19.9801575493       21.5217239620      104.5143062533  LPSA14    30             22.0000000000
     15381       498  ARHM      H5             19.3602624708       22.2538958752      103.8668162917  LPSA14    30             22.0000000000
     15382       498  ARHM      O5             21.3324776950       21.9618621892      104.2052433351  LPSA14    30             22.0000000000
     15383       498  ARHM      C2             21.2509710960       23.6974333556      105.8471183130  LPSA14    30             22.0000000000
     15384       498  ARHM      H2             21.3795282630       24.7145509686      106.0289718167  LPSA14    30             22.0000000000
     15385       498  ARHM      O2             22.0940554212       22.8762393324      106.5813641610  LPSA14    30             22.0000000000
     15386       498  ARHM      C3             19.9082531437       23.2652081253      106.2079894766  LPSA14    30             22.0000000000
     15387       498  ARHM      H3             19.2218951986       23.6905065392      105.5270001340  LPSA14    30             22.0000000000
     15388       498  ARHM      O3             19.4934905277       23.6881200663      107.5373891676  LPSA14    30             22.0000000000
     15389       498  ARHM      C4             19.6929209791       21.7667798421      105.9708288384  LPSA14    30             22.0000000000
     15390       498  ARHM      H4             20.3825896225       21.1401337046      106.5400372406  LPSA14    30             22.0000000000
     15391       498  ARHM      O4             18.4669779404       21.2829662124      106.2997755749  LPSA14    30             22.0000000000
     15392       498  ARHM      HO4            17.7231343975       21.4083176439      105.6964454668  LPSA14    30             22.0000000000
     15393       498  ARHM      C6             19.7914932507       20.0891940921      104.0930490251  LPSA14    30             22.0000000000
     15394       498  ARHM      H61            18.6975230752       19.8541295974      104.2143179997  LPSA14    30             22.0000000000
     15395       498  ARHM      H62            19.9294687661       20.0197608431      103.0019050467  LPSA14    30             22.0000000000
     15396       498  ARHM      H63            20.4556011655       19.3543626906      104.6493652223  LPSA14    30             22.0000000000
     15397       499  BMANNA    C1             23.3354015227       23.4348278786      106.9502319096  LPSA14    31             23.0000000000
     15398       499  BMANNA    H1             23.1716419645       24.5165792798      107.1550799008  LPSA14    31             23.0000000000
     15399       499  BMANNA    C5             25.5928405156       23.9567360010      106.2136717625  LPSA14    31             23.0000000000
     15400       499  BMANNA    H5             25.3282003259       24.9703015913      106.5467054000  LPSA14    31             23.0000000000
     15401       499  BMANNA    O5             24.3266039380       23.3195913692      105.8742289322  LPSA14    31             23.0000000000
     15402       499  BMANNA    C2             23.8639349169       22.7401921737      108.0830629221  LPSA14    31             23.0000000000
     15403       499  BMANNA    H2             23.1488517840       22.9428686011      108.9031915743  LPSA14    31             23.0000000000
     15404       499  BMANNA    N              23.8524984925       21.3417021560      107.8252935315  LPSA14    31             23.0000000000
     15405       499  BMANNA    HN             23.8935849441       21.0450771556      106.8111160773  LPSA14    31             23.0000000000
     15406       499  BMANNA    C              23.7428340760       20.4213865950      108.7868858964  LPSA14    31             23.0000000000
     15407       499  BMANNA    O              23.5676378039       20.7236900098      109.9536662434  LPSA14    31             23.0000000000
     15408       499  BMANNA    CT             23.8332440592       18.9592502556      108.3237946568  LPSA14    31             23.0000000000
     15409       499  BMANNA    HT1            24.5803277533       18.8986542302      107.5739831696  LPSA14    31             23.0000000000
     15410       499  BMANNA    HT2            22.8499570526       18.6734961120      107.9347099034  LPSA14    31             23.0000000000
     15411       499  BMANNA    HT3            23.9882111653       18.2800403057      109.1768357935  LPSA14    31             23.0000000000
     15412       499  BMANNA    C3             25.1596903228       23.3628986879      108.4884560283  LPSA14    31             23.0000000000
     15413       499  BMANNA    H3             25.0478518830       24.4917324309      108.6988550870  LPSA14    31             23.0000000000
     15414       499  BMANNA    O3             25.6236615005       22.8567499264      109.7404994872  LPSA14    31             23.0000000000
     15415       499  BMANNA    HO3            24.7955473655       22.5055211214      110.0111610137  LPSA14    31             23.0000000000
     15416       499  BMANNA    C4             26.1658218651       23.2087154378      107.4199857710  LPSA14    31             23.0000000000
     15417       499  BMANNA    H4             26.3963476600       22.0988145071      107.0572414185  LPSA14    31             23.0000000000
     15418       499  BMANNA    O4             27.4117482854       23.7351268335      107.8525671122  LPSA14    31             23.0000000000
     15419       499  BMANNA    HO4            27.3300060382       24.6536318950      108.1943429300  LPSA14    31             23.0000000000
     15420       499  BMANNA    C6             26.5991372754       23.9653668730      105.0512686782  LPSA14    31             23.0000000000
     15421       499  BMANNA    H61            27.4739150741       24.6752301625      105.3397811046  LPSA14    31             23.0000000000
     15422       499  BMANNA    H62            27.0400476435       22.9893890156      104.8698551944  LPSA14    31             23.0000000000
     15423       499  BMANNA    O6             25.9981733310       24.4233703972      103.8241467834  LPSA14    31             23.0000000000
     15424       499  BMANNA    HO6            25.7850962253       25.3995046587      103.8134147631  LPSA14    31             23.0000000000
     15425       500  BGLCNA    C1             19.9327515891       22.9234904794      108.6103969990  LPSA14    32             23.0000000000
     15426       500  BGLCNA    H1             20.9778340724       22.5139518490      108.4325564695  LPSA14    32             23.0000000000
     15427       500  BGLCNA    C5             19.6257366566       20.9200329616      109.9277617404  LPSA14    32             23.0000000000
     15428       500  BGLCNA    H5             20.6614106600       20.6081223134      109.5374749077  LPSA14    32             23.0000000000
     15429       500  BGLCNA    O5             19.0989860882       21.8124113512      108.9423333575  LPSA14    32             23.0000000000
     15430       500  BGLCNA    C2             20.0607833324       23.7427223883      109.8194522937  LPSA14    32             23.0000000000
     15431       500  BGLCNA    H2             19.0567598963       23.9508015121      110.1044894257  LPSA14    32             23.0000000000
     15432       500  BGLCNA    N              20.7771960745       24.9522912234      109.5956973249  LPSA14    32             23.0000000000
     15433       500  BGLCNA    HN             21.4869528806       24.7887858138      108.8809076996  LPSA14    32             23.0000000000
     15434       500  BGLCNA    C              20.5535715137       26.1923460628      110.0864625708  LPSA14    32             23.0000000000
     15435       500  BGLCNA    O              19.6865860849       26.4197493194      110.9304085025  LPSA14    32             23.0000000000
     15436       500  BGLCNA    CT             21.4731290567       27.3274070164      109.5841031968  LPSA14    32             23.0000000000
     15437       500  BGLCNA    HT1            21.9158311297       26.8144036397      108.6281101354  LPSA14    32             23.0000000000
     15438       500  BGLCNA    HT2            22.3104155936       27.5674623186      110.1898124037  LPSA14    32             23.0000000000
     15439       500  BGLCNA    HT3            20.9086871764       28.2525333348      109.3122359934  LPSA14    32             23.0000000000
     15440       500  BGLCNA    C3             20.6946975224       22.9088698781      110.8930231790  LPSA14    32             23.0000000000
     15441       500  BGLCNA    H3             21.5699063102       22.5159388186      110.4606187373  LPSA14    32             23.0000000000
     15442       500  BGLCNA    O3             21.0805720554       23.6442061584      112.0657798240  LPSA14    32             23.0000000000
     15443       500  BGLCNA    C4             19.7649160502       21.7594084912      111.1707572500  LPSA14    32             23.0000000000
     15444       500  BGLCNA    H4             18.7952399558       22.1983718241      111.5318289610  LPSA14    32             23.0000000000
     15445       500  BGLCNA    O4             20.2449319311       20.9438810923      112.2070236435  LPSA14    32             23.0000000000
     15446       500  BGLCNA    HO4            19.9199705492       21.2246966073      113.0745323218  LPSA14    32             23.0000000000
     15447       500  BGLCNA    C6             18.7556154241       19.6841751751      110.0229508171  LPSA14    32             23.0000000000
     15448       500  BGLCNA    H61            19.2217536435       18.8936151747      110.7194343748  LPSA14    32             23.0000000000
     15449       500  BGLCNA    H62            17.7687182039       19.9577007148      110.5717638480  LPSA14    32             23.0000000000
     15450       500  BGLCNA    O6             18.5736469285       19.0551851365      108.7709294272  LPSA14    32             23.0000000000
     15451       500  BGLCNA    HO6            19.4052201895       19.1239236967      108.2360311317  LPSA14    32             23.0000000000
     15452       501  AGAL      C1             22.3183599598       23.2017079197      112.6842874521  LPSA14    33             24.0000000000
     15453       501  AGAL      H1             22.3329679756       22.1124549995      112.5979959475  LPSA14    33             24.0000000000
     15454       501  AGAL      C5             23.5089499689       25.2004498481      112.2149219831  LPSA14    33             24.0000000000
     15455       501  AGAL      H5             22.5087048292       25.5274991775      111.8792915250  LPSA14    33             24.0000000000
     15456       501  AGAL      O5             23.5069319648       23.7950490788      112.0726784748  LPSA14    33             24.0000000000
     15457       501  AGAL      C2             22.2678038423       23.6332638634      114.1482787662  LPSA14    33             24.0000000000
     15458       501  AGAL      H2             23.3081612017       23.3564854153      114.5751854976  LPSA14    33             24.0000000000
     15459       501  AGAL      O2             21.3712536158       22.7914721484      114.8486222260  LPSA14    33             24.0000000000
     15460       501  AGAL      C3             22.3000569734       25.1343377375      114.2945545625  LPSA14    33             24.0000000000
     15461       501  AGAL      H3             21.4178075166       25.6057520158      113.7405815065  LPSA14    33             24.0000000000
     15462       501  AGAL      O3             22.0746766754       25.5814336634      115.5672660328  LPSA14    33             24.0000000000
     15463       501  AGAL      HO3            22.6123153994       25.2201723339      116.2400186851  LPSA14    33             24.0000000000
     15464       501  AGAL      C4             23.5519586115       25.7067854000      113.6708488317  LPSA14    33             24.0000000000
     15465       501  AGAL      H4             23.5327644252       26.8033620861      113.6729875792  LPSA14    33             24.0000000000
     15466       501  AGAL      O4             24.8299053784       25.3456596554      114.2435538900  LPSA14    33             24.0000000000
     15467       501  AGAL      HO4            24.7628152327       24.6706246737      114.9085525172  LPSA14    33             24.0000000000
     15468       501  AGAL      C6             24.5116165953       25.8617352430      111.2992528405  LPSA14    33             24.0000000000
     15469       501  AGAL      H61            24.1703540504       25.5954685458      110.2783408757  LPSA14    33             24.0000000000
     15470       501  AGAL      H62            24.5777728029       26.9651829424      111.3458027743  LPSA14    33             24.0000000000
     15471       501  AGAL      O6             25.8484900253       25.4867227419      111.4129476537  LPSA14    33             24.0000000000
     15472       501  AGAL      HO6            26.0901985703       24.7120659336      110.8444757795  LPSA14    33             24.0000000000
     15473       502  ARHM      C1             21.8859849904       22.2267158639      116.0109133884  LPSA14    34             25.0000000000
     15474       502  ARHM      H1             22.4165521453       22.9626728854      116.6389743656  LPSA14    34             25.0000000000
     15475       502  ARHM      C5             22.3636566877       20.0495282360      115.0727799907  LPSA14    34             25.0000000000
     15476       502  ARHM      H5             22.0938926821       20.4477261755      114.0209633333  LPSA14    34             25.0000000000
     15477       502  ARHM      O5             22.8579947570       21.1677625056      115.8926868953  LPSA14    34             25.0000000000
     15478       502  ARHM      C2             20.6761772736       21.7426600407      116.7601555753  LPSA14    34             25.0000000000
     15479       502  ARHM      H2             19.8384462173       22.4835646800      116.8710959342  LPSA14    34             25.0000000000
     15480       502  ARHM      O2             20.9494344175       21.2726815434      118.1592972339  LPSA14    34             25.0000000000
     15481       502  ARHM      C3             20.0871075646       20.5639891472      115.9988665506  LPSA14    34             25.0000000000
     15482       502  ARHM      H3             19.8116123331       20.8497387775      114.9724172480  LPSA14    34             25.0000000000
     15483       502  ARHM      O3             18.9109192686       19.9578131280      116.5878695042  LPSA14    34             25.0000000000
     15484       502  ARHM      HO3            18.2536411082       19.6840540258      115.9559434517  LPSA14    34             25.0000000000
     15485       502  ARHM      C4             21.1198719429       19.4214542579      115.7987835878  LPSA14    34             25.0000000000
     15486       502  ARHM      H4             21.5702478081       19.0916895658      116.7495315617  LPSA14    34             25.0000000000
     15487       502  ARHM      O4             20.5998849099       18.3281221544      115.1362621200  LPSA14    34             25.0000000000
     15488       502  ARHM      HO4            20.0446139174       17.7894860614      115.6953140327  LPSA14    34             25.0000000000
     15489       502  ARHM      C6             23.4750441162       18.9638724740      114.8413279703  LPSA14    34             25.0000000000
     15490       502  ARHM      H61            23.8204059590       18.4551343610      115.7172490283  LPSA14    34             25.0000000000
     15491       502  ARHM      H62            22.9768348138       18.0829512058      114.3996926230  LPSA14    34             25.0000000000
     15492       502  ARHM      H63            24.3010890226       19.2373501754      114.1590834060  LPSA14    34             25.0000000000
     15493       503  ARHM      C1             21.5356973668       22.2160799569      119.0795908573  LPSA14    35             26.0000000000
     15494       503  ARHM      H1             21.0590210733       23.2639140018      118.8787348947  LPSA14    35             26.0000000000
     15495       503  ARHM      C5             23.6620845310       21.0524661263      119.2408916176  LPSA14    35             26.0000000000
     15496       503  ARHM      H5             23.2877204279       20.2137092005      118.5254732223  LPSA14    35             26.0000000000
     15497       503  ARHM      O5             23.0124585237       22.3438763393      118.9290334222  LPSA14    35             26.0000000000
     15498       503  ARHM      C2             21.2054167790       21.8153782163      120.5365485050  LPSA14    35             26.0000000000
     15499       503  ARHM      H2             20.0923937763       21.8290982622      120.7134209997  LPSA14    35             26.0000000000
     15500       503  ARHM      O2             21.7434715957       22.7349468552      121.4126203716  LPSA14    35             26.0000000000
     15501       503  ARHM      C3             21.8223649151       20.4389721302      120.8720061906  LPSA14    35             26.0000000000
     15502       503  ARHM      H3             21.3572107399       19.7060845581      120.1344793452  LPSA14    35             26.0000000000
     15503       503  ARHM      O3             21.4305418845       19.9940789722      122.1540075829  LPSA14    35             26.0000000000
     15504       503  ARHM      HO3            21.3441302950       20.7576831056      122.7288731339  LPSA14    35             26.0000000000
     15505       503  ARHM      C4             23.3092070770       20.5579310263      120.6788917534  LPSA14    35             26.0000000000
     15506       503  ARHM      H4             23.7946042943       21.3356893135      121.3307119103  LPSA14    35             26.0000000000
     15507       503  ARHM      O4             23.8626985075       19.2558178364      120.9693790153  LPSA14    35             26.0000000000
     15508       503  ARHM      HO4            23.3653918983       18.5108060967      120.5581709812  LPSA14    35             26.0000000000
     15509       503  ARHM      C6             25.1816596159       21.1305776511      118.8642347863  LPSA14    35             26.0000000000
     15510       503  ARHM      H61            25.3182953566       21.2516704059      117.7433556958  LPSA14    35             26.0000000000
     15511       503  ARHM      H62            25.5056583533       21.9983443098      119.4176110492  LPSA14    35             26.0000000000
     15512       503  ARHM      H63            25.6192651164       20.1102350802      119.0633705917  LPSA14    35             26.0000000000
     15513       504  BMANNA    C1             21.1378290691       23.9920622244      121.4471464502  LPSA14    36             27.0000000000
     15514       504  BMANNA    H1             20.0792271345       23.9436512780      121.0972061898  LPSA14    36             27.0000000000
     15515       504  BMANNA    C5             20.8965869988       26.2903058311      120.7299884793  LPSA14    36             27.0000000000
     15516       504  BMANNA    H5             19.8734632546       26.0332864411      120.4610684421  LPSA14    36             27.0000000000
     15517       504  BMANNA    O5             21.7108832757       25.0762898231      120.6641532654  LPSA14    36             27.0000000000
     15518       504  BMANNA    C2             21.0973539239       24.4651419209      122.8920138725  LPSA14    36             27.0000000000
     15519       504  BMANNA    H2             20.5779314449       23.6794518822      123.4719477421  LPSA14    36             27.0000000000
     15520       504  BMANNA    N              22.4475790633       24.5927385292      123.4395449790  LPSA14    36             27.0000000000
     15521       504  BMANNA    HN             23.1708165744       25.0015798581      122.8746519580  LPSA14    36             27.0000000000
     15522       504  BMANNA    C              22.6749520501       24.4551399219      124.7737151700  LPSA14    36             27.0000000000
     15523       504  BMANNA    O              21.8623942705       24.0666737496      125.6190347561  LPSA14    36             27.0000000000
     15524       504  BMANNA    CT             24.0055652119       24.8416625029      125.3570716528  LPSA14    36             27.0000000000
     15525       504  BMANNA    HT1            24.3808323344       25.7524331591      124.8802869227  LPSA14    36             27.0000000000
     15526       504  BMANNA    HT2            24.8158968596       24.0810943657      125.1731404614  LPSA14    36             27.0000000000
     15527       504  BMANNA    HT3            24.0403445318       24.9538697555      126.4547536948  LPSA14    36             27.0000000000
     15528       504  BMANNA    C3             20.3053123163       25.7446261395      122.9763638711  LPSA14    36             27.0000000000
     15529       504  BMANNA    H3             19.2734778952       25.5807949840      122.6403873786  LPSA14    36             27.0000000000
     15530       504  BMANNA    O3             20.1801199146       26.2215405886      124.3414054450  LPSA14    36             27.0000000000
     15531       504  BMANNA    HO3            19.3064354375       26.2476239189      124.7171830083  LPSA14    36             27.0000000000
     15532       504  BMANNA    C4             20.8818139891       26.8049264027      122.1146940524  LPSA14    36             27.0000000000
     15533       504  BMANNA    H4             21.8616520870       27.0906097011      122.4263894750  LPSA14    36             27.0000000000
     15534       504  BMANNA    O4             20.1413475807       28.0194789081      122.2172873890  LPSA14    36             27.0000000000
     15535       504  BMANNA    HO4            20.2169577378       28.1271396018      123.1985163392  LPSA14    36             27.0000000000
     15536       504  BMANNA    C6             21.4051752831       27.2611357097      119.7412642597  LPSA14    36             27.0000000000
     15537       504  BMANNA    H61            21.3250072164       26.8707142380      118.6946701192  LPSA14    36             27.0000000000
     15538       504  BMANNA    H62            20.6552324304       28.0573680117      119.7045442506  LPSA14    36             27.0000000000
     15539       504  BMANNA    O6             22.7415644777       27.7722529360      120.0914698020  LPSA14    36             27.0000000000
     15540       504  BMANNA    HO6            22.5866945471       28.5444561055      120.6476247167  LPSA14    36             27.0000000000
     15541       505  ECLIPA    HB6S           28.9707592962        9.2350828973       20.4612168218  LPSA15    1               0.0000000000
     15542       505  ECLIPA    OB6            30.0900657490        8.1217013712       21.7140249152  LPSA15    1               0.0000000000
     15543       505  ECLIPA    CB6            29.9981147280        9.1908050581       20.7042159014  LPSA15    1               0.0000000000
     15544       505  ECLIPA    HB6R           30.4653161578       10.0931400542       21.0541931349  LPSA15    1               0.0000000000
     15545       505  ECLIPA    CB5            30.8369067988        8.8603041950       19.3988764877  LPSA15    1               0.0000000000
     15546       505  ECLIPA    OB5            30.3376491150        7.5295149809       18.9716901872  LPSA15    1               0.0000000000
     15547       505  ECLIPA    HB5            31.8687952555        8.7351132797       19.7771798410  LPSA15    1               0.0000000000
     15548       505  ECLIPA    CB1            31.0269796881        7.1080808477       17.7717324898  LPSA15    1               0.0000000000
     15549       505  ECLIPA    HB1            32.1279590183        7.0175261859       17.9003641080  LPSA15    1               0.0000000000
     15550       505  ECLIPA    OA6            30.5198841413        5.8878509647       17.3217246577  LPSA15    1               0.0000000000
     15551       505  ECLIPA    CA6            29.1383734921        5.5541669074       17.5745106853  LPSA15    1               0.0000000000
     15552       505  ECLIPA    HA6R           28.5744548855        6.4974296229       17.7226451425  LPSA15    1               0.0000000000
     15553       505  ECLIPA    HA6S           29.1162412063        4.8010449799       18.4598965841  LPSA15    1               0.0000000000
     15554       505  ECLIPA    CB4            30.6749212188        9.9496041568       18.3206521937  LPSA15    1               0.0000000000
     15555       505  ECLIPA    HB4            29.6147874109       10.0569629928       18.0085584641  LPSA15    1               0.0000000000
     15556       505  ECLIPA    OB4            31.3660350473       11.0770165263       18.9017319965  LPSA15    1               0.0000000000
     15557       505  ECLIPA    PB             30.5303661970       12.3868349132       19.3234616795  LPSA15    1               0.0000000000
     15558       505  ECLIPA    OPB4           31.2260954974       12.9898993173       20.5579515876  LPSA15    1               0.0000000000
     15559       505  ECLIPA    OPB3           29.1544515912       11.7629507602       19.6614545037  LPSA15    1               0.0000000000
     15560       505  ECLIPA    OPB2           30.4406007892       13.2880358289       18.0829495795  LPSA15    1               0.0000000000
     15561       505  ECLIPA    CB3            31.4090980782        9.4396252002       17.0955893951  LPSA15    1               0.0000000000
     15562       505  ECLIPA    OB3            31.3073452950       10.2605035204       15.9186528231  LPSA15    1               0.0000000000
     15563       505  ECLIPA    HB3            32.4737069188        9.1315301861       17.3284540628  LPSA15    1               0.0000000000
     15564       505  ECLIPA    C71            32.2281684324       11.1369634581       15.6929469039  LPSA15    1               0.0000000000
     15565       505  ECLIPA    O71            33.2670865373       11.2548579410       16.3832172580  LPSA15    1               0.0000000000
     15566       505  ECLIPA    C72            31.8871547508       11.8437757786       14.3548430386  LPSA15    1               0.0000000000
     15567       505  ECLIPA    H72R           31.8107466769       11.0854572573       13.5774555414  LPSA15    1               0.0000000000
     15568       505  ECLIPA    H72S           32.6870285448       12.6727852147       14.1464415926  LPSA15    1               0.0000000000
     15569       505  ECLIPA    CB2            30.8018079248        8.0874401999       16.6720734084  LPSA15    1               0.0000000000
     15570       505  ECLIPA    HB2            29.6450065692        8.2843514691       16.5298168153  LPSA15    1               0.0000000000
     15571       505  ECLIPA    NB2            31.4325874760        7.5274342682       15.4577284722  LPSA15    1               0.0000000000
     15572       505  ECLIPA    HNB2           32.2670817625        6.9960096215       15.5965609326  LPSA15    1               0.0000000000
     15573       505  ECLIPA    CA4            29.5165296736        3.8377308844       15.7929312798  LPSA15    1               0.0000000000
     15574       505  ECLIPA    HA4            30.4752504351        4.3310290210       15.4903430209  LPSA15    1               0.0000000000
     15575       505  ECLIPA    OA4            29.7632285529        2.9047652286       16.8012065728  LPSA15    1               0.0000000000
     15576       505  ECLIPA    HOA4           29.9930661992        3.2992558853       17.5928838569  LPSA15    1               0.0000000000
     15577       505  ECLIPA    CA5            28.6077769779        4.8494889138       16.3547806008  LPSA15    1               0.0000000000
     15578       505  ECLIPA    HA5            27.5125401911        4.5186677698       16.5880746347  LPSA15    1               0.0000000000
     15579       505  ECLIPA    OA5            28.4414412267        5.8779554917       15.3689671688  LPSA15    1               0.0000000000
     15580       505  ECLIPA    CA1            27.9083516957        5.3379013494       14.1076640156  LPSA15    1               0.0000000000
     15581       505  ECLIPA    HA1            28.1695586769        6.1823108819       13.4118188108  LPSA15    1               0.0000000000
     15582       505  ECLIPA    OA1            26.5064799610        5.1540155457       14.1359876212  LPSA15    1               0.0000000000
     15583       505  ECLIPA    OPA2           25.0245857755        5.6487139665       15.9734101064  LPSA15    1               0.0000000000
     15584       505  ECLIPA    OPA3           26.2179196238        7.5900251560       14.8300177673  LPSA15    1               0.0000000000
     15585       505  ECLIPA    OPA4           24.4177715747        6.4035031560       13.6615320840  LPSA15    1               0.0000000000
     15586       505  ECLIPA    PA             25.5302134096        6.2651424110       14.6765383084  LPSA15    1               0.0000000000
     15587       505  ECLIPA    CA3            28.9920897650        3.1851024020       14.5219348229  LPSA15    1               0.0000000000
     15588       505  ECLIPA    HA3            28.0184476357        2.5927621681       14.7377032538  LPSA15    1               0.0000000000
     15589       505  ECLIPA    OA3            29.9258285521        2.1557591713       14.2498111976  LPSA15    1               0.0000000000
     15590       505  ECLIPA    C31            31.0178364482        2.5116012866       13.5006246295  LPSA15    1               0.0000000000
     15591       505  ECLIPA    O31            31.0459898196        2.6757652828       12.2941239937  LPSA15    1               0.0000000000
     15592       505  ECLIPA    C32            32.2925480189        2.1529255263       14.2780289507  LPSA15    1               0.0000000000
     15593       505  ECLIPA    H32R           32.8326159384        1.3684575440       13.7149713840  LPSA15    1               0.0000000000
     15594       505  ECLIPA    H32S           32.0335368180        1.7996255821       15.2729523512  LPSA15    1               0.0000000000
     15595       505  ECLIPA    CA2            28.8098431780        4.2894730107       13.4984733916  LPSA15    1               0.0000000000
     15596       505  ECLIPA    HA2            29.7708459395        4.8006478538       13.3982259915  LPSA15    1               0.0000000000
     15597       505  ECLIPA    NA2            28.2782210071        3.8143086749       12.2035087571  LPSA15    1               0.0000000000
     15598       505  ECLIPA    HNA2           28.2450617117        2.8511985318       12.0865030408  LPSA15    1               0.0000000000
     15599       505  ECLIPA    C73            30.5768218919       12.5873874136       14.3319064372  LPSA15    1               0.0000000000
     15600       505  ECLIPA    H73R           30.4123356181       13.1821643676       15.2227416964  LPSA15    1               0.0000000000
     15601       505  ECLIPA    O73            29.5353842131       11.5817860263       14.2644256719  LPSA15    1               0.0000000000
     15602       505  ECLIPA    C81            28.3339204593       11.6913274050       14.8555734565  LPSA15    1               0.0000000000
     15603       505  ECLIPA    O81            28.1375171588       12.6480053231       15.6690894779  LPSA15    1               0.0000000000
     15604       505  ECLIPA    C82            27.3472791024       10.6188048288       14.3536111794  LPSA15    1               0.0000000000
     15605       505  ECLIPA    H82R           26.3866972893       10.6944254858       14.8531840528  LPSA15    1               0.0000000000
     15606       505  ECLIPA    H82S           27.7366550554        9.5901582654       14.5323473422  LPSA15    1               0.0000000000
     15607       505  ECLIPA    C83            27.1442567129       10.7634955091       12.8301722806  LPSA15    1               0.0000000000
     15608       505  ECLIPA    H83R           27.9963245516       10.2609632151       12.2351841548  LPSA15    1               0.0000000000
     15609       505  ECLIPA    H83S           27.2706204083       11.8209104759       12.5911296392  LPSA15    1               0.0000000000
     15610       505  ECLIPA    C84            25.8597905804       10.0900178456       12.3050927261  LPSA15    1               0.0000000000
     15611       505  ECLIPA    H84R           25.0042414631       10.7204638579       12.5767117503  LPSA15    1               0.0000000000
     15612       505  ECLIPA    H84S           25.8850792507        9.1123139065       12.7369555497  LPSA15    1               0.0000000000
     15613       505  ECLIPA    C85            25.9087429496        9.9141449967       10.7695484051  LPSA15    1               0.0000000000
     15614       505  ECLIPA    H85R           26.9225046842        9.5548289042       10.5503608829  LPSA15    1               0.0000000000
     15615       505  ECLIPA    H85S           25.8231735257       10.9099136851       10.2367999955  LPSA15    1               0.0000000000
     15616       505  ECLIPA    C86            24.9185034731        8.8109918549       10.3034592726  LPSA15    1               0.0000000000
     15617       505  ECLIPA    H86R           23.8989941310        9.2171888233        9.9932223571  LPSA15    1               0.0000000000
     15618       505  ECLIPA    H86S           24.7257545148        8.0953843825       11.0807540114  LPSA15    1               0.0000000000
     15619       505  ECLIPA    C87            25.5154930844        7.9204485153        9.1601018854  LPSA15    1               0.0000000000
     15620       505  ECLIPA    H87R           24.7905867441        7.1951374066        8.8049419625  LPSA15    1               0.0000000000
     15621       505  ECLIPA    H87S           26.3767183931        7.3074030422        9.5406723883  LPSA15    1               0.0000000000
     15622       505  ECLIPA    C88            26.0767593131        8.7501586523        8.0318999685  LPSA15    1               0.0000000000
     15623       505  ECLIPA    H88R           27.0631259756        9.2239593644        8.3479828359  LPSA15    1               0.0000000000
     15624       505  ECLIPA    H88S           25.4689973939        9.6954104006        7.9254521495  LPSA15    1               0.0000000000
     15625       505  ECLIPA    C89            26.3516474241        7.9605474370        6.7101000712  LPSA15    1               0.0000000000
     15626       505  ECLIPA    H89R           26.3903603546        6.8621378242        6.8746682686  LPSA15    1               0.0000000000
     15627       505  ECLIPA    H89S           27.2824235760        8.1979053361        6.2317001698  LPSA15    1               0.0000000000
     15628       505  ECLIPA    C810           25.2413410321        8.3141663155        5.7047246593  LPSA15    1               0.0000000000
     15629       505  ECLIPA    H810R          24.9876502839        9.3454876534        6.0108430704  LPSA15    1               0.0000000000
     15630       505  ECLIPA    H810S          24.4057229743        7.6580967501        5.8554647029  LPSA15    1               0.0000000000
     15631       505  ECLIPA    C811           25.6323636950        8.2519847629        4.2179945741  LPSA15    1               0.0000000000
     15632       505  ECLIPA    H811R          24.8557685541        8.1752683759        3.5081125689  LPSA15    1               0.0000000000
     15633       505  ECLIPA    H811S          26.3847675187        7.3786553123        4.1819101877  LPSA15    1               0.0000000000
     15634       505  ECLIPA    C812           26.5608003411        9.3796924955        3.7413673409  LPSA15    1               0.0000000000
     15635       505  ECLIPA    H812R          26.8949403516        9.1060442743        2.6403157337  LPSA15    1               0.0000000000
     15636       505  ECLIPA    H812S          27.3822272884        9.5913394220        4.4144737196  LPSA15    1               0.0000000000
     15637       505  ECLIPA    C813           25.8953138102       10.7668598794        3.6785234959  LPSA15    1               0.0000000000
     15638       505  ECLIPA    H813R          25.0632531630       10.6834011339        2.9398073555  LPSA15    1               0.0000000000
     15639       505  ECLIPA    H813S          25.4260998161       11.1455999526        4.6616087352  LPSA15    1               0.0000000000
     15640       505  ECLIPA    C814           26.8030711682       11.8522813220        3.1377409857  LPSA15    1               0.0000000000
     15641       505  ECLIPA    H814R          27.4104224302       11.5867399291        2.1719074593  LPSA15    1               0.0000000000
     15642       505  ECLIPA    H814S          27.5217281239       12.1411869058        3.9166242729  LPSA15    1               0.0000000000
     15643       505  ECLIPA    H814T          26.2211263457       12.7708100710        2.8964685373  LPSA15    1               0.0000000000
     15644       505  ECLIPA    C74            30.2770454688       13.5164032237       13.1792855021  LPSA15    1               0.0000000000
     15645       505  ECLIPA    H74R           30.9221498699       14.3733358696       12.9935747315  LPSA15    1               0.0000000000
     15646       505  ECLIPA    H74S           29.2051854798       13.9403738758       13.3086690609  LPSA15    1               0.0000000000
     15647       505  ECLIPA    C75            30.1436173271       12.7104525821       11.8151371119  LPSA15    1               0.0000000000
     15648       505  ECLIPA    H75R           29.3195566137       13.2371184399       11.2107603889  LPSA15    1               0.0000000000
     15649       505  ECLIPA    H75S           29.8097827479       11.6728636192       12.0082837783  LPSA15    1               0.0000000000
     15650       505  ECLIPA    C76            31.4159239722       12.6598750331       10.9251453624  LPSA15    1               0.0000000000
     15651       505  ECLIPA    H76R           32.1153895830       11.8913129070       11.3555905686  LPSA15    1               0.0000000000
     15652       505  ECLIPA    H76S           32.0376944070       13.6478666725       10.9731137071  LPSA15    1               0.0000000000
     15653       505  ECLIPA    C77            31.2292313340       12.3464672576        9.4191603634  LPSA15    1               0.0000000000
     15654       505  ECLIPA    H77R           30.6108946313       13.1236965363        9.0408775908  LPSA15    1               0.0000000000
     15655       505  ECLIPA    H77S           30.5816597501       11.4494264017        9.2852383479  LPSA15    1               0.0000000000
     15656       505  ECLIPA    C78            32.6226186863       12.0938553089        8.8297405752  LPSA15    1               0.0000000000
     15657       505  ECLIPA    H78R           33.2655424039       12.9105376493        9.1562620580  LPSA15    1               0.0000000000
     15658       505  ECLIPA    H78S           32.9572167526       11.1365201634        9.3169442960  LPSA15    1               0.0000000000
     15659       505  ECLIPA    C79            32.5923120406       11.7082877345        7.2570767761  LPSA15    1               0.0000000000
     15660       505  ECLIPA    H79R           32.6279036384       10.5785172244        7.1763205913  LPSA15    1               0.0000000000
     15661       505  ECLIPA    H79S           33.4967811008       12.1077414487        6.7882549413  LPSA15    1               0.0000000000
     15662       505  ECLIPA    C710           31.5352818838       12.3849542013        6.3785096220  LPSA15    1               0.0000000000
     15663       505  ECLIPA    H710R          30.5613742705       12.1086654479        6.8460783027  LPSA15    1               0.0000000000
     15664       505  ECLIPA    H710S          31.6547017379       13.3966835897        6.4843026416  LPSA15    1               0.0000000000
     15665       505  ECLIPA    C711           31.5322032460       11.9156604617        4.9384125046  LPSA15    1               0.0000000000
     15666       505  ECLIPA    H711R          32.5156440521       12.2108446663        4.5670708729  LPSA15    1               0.0000000000
     15667       505  ECLIPA    H711S          31.3596725605       10.8093608158        4.9306188492  LPSA15    1               0.0000000000
     15668       505  ECLIPA    C712           30.3862724839       12.6000420811        4.2148670498  LPSA15    1               0.0000000000
     15669       505  ECLIPA    H712R          30.5641114549       13.6766322160        4.3130666899  LPSA15    1               0.0000000000
     15670       505  ECLIPA    H712S          29.5094366431       12.3967391768        4.8522839389  LPSA15    1               0.0000000000
     15671       505  ECLIPA    C713           30.2037708348       12.0437408449        2.7357390519  LPSA15    1               0.0000000000
     15672       505  ECLIPA    H713R          29.9550771579       10.9554598180        2.8800411466  LPSA15    1               0.0000000000
     15673       505  ECLIPA    H713S          29.3340209328       12.6431781712        2.2750064041  LPSA15    1               0.0000000000
     15674       505  ECLIPA    C714           31.4503355084       12.3574117887        1.8879763961  LPSA15    1               0.0000000000
     15675       505  ECLIPA    H714R          31.5878488427       13.4407056987        1.7626189762  LPSA15    1               0.0000000000
     15676       505  ECLIPA    H714S          32.3286776888       11.7837418801        2.2081901572  LPSA15    1               0.0000000000
     15677       505  ECLIPA    H714T          31.1417508805       11.9963501510        0.9249202435  LPSA15    1               0.0000000000
     15678       505  ECLIPA    C51            31.0308870379        7.9206857214       14.2380633031  LPSA15    1               0.0000000000
     15679       505  ECLIPA    O51            29.9005268907        8.4424304404       14.1304636378  LPSA15    1               0.0000000000
     15680       505  ECLIPA    C52            32.0114335079        7.7966746966       13.0157035712  LPSA15    1               0.0000000000
     15681       505  ECLIPA    H52R           32.6837571603        8.6339312475       12.8950255930  LPSA15    1               0.0000000000
     15682       505  ECLIPA    H52S           32.5558105396        6.9024125172       13.2222025935  LPSA15    1               0.0000000000
     15683       505  ECLIPA    C53            31.1260168260        7.4727135688       11.7526064304  LPSA15    1               0.0000000000
     15684       505  ECLIPA    H53R           30.1901249361        6.9868376706       12.0082431084  LPSA15    1               0.0000000000
     15685       505  ECLIPA    O53            31.9900937200        6.7724698533       10.8431816314  LPSA15    1               0.0000000000
     15686       505  ECLIPA    C61            31.6777964337        5.5311737345       10.5090573566  LPSA15    1               0.0000000000
     15687       505  ECLIPA    O61            30.7149325655        4.9277593996       10.8659713306  LPSA15    1               0.0000000000
     15688       505  ECLIPA    C62            32.7612948472        4.9744040225        9.5765835255  LPSA15    1               0.0000000000
     15689       505  ECLIPA    H62R           33.6176047420        4.6711520887       10.2152837125  LPSA15    1               0.0000000000
     15690       505  ECLIPA    H62S           33.1885296509        5.8529101318        9.0470049452  LPSA15    1               0.0000000000
     15691       505  ECLIPA    C63            32.2177081787        3.8322575594        8.6803029234  LPSA15    1               0.0000000000
     15692       505  ECLIPA    H63R           31.2492968362        4.1731961636        8.2798705976  LPSA15    1               0.0000000000
     15693       505  ECLIPA    H63S           32.0138021384        2.8697510636        9.3252199642  LPSA15    1               0.0000000000
     15694       505  ECLIPA    C64            33.0385103276        3.3990971125        7.5279067597  LPSA15    1               0.0000000000
     15695       505  ECLIPA    H64R           32.6001977836        2.5013187983        6.9620099216  LPSA15    1               0.0000000000
     15696       505  ECLIPA    H64S           34.0683164004        3.1281091699        7.9657393466  LPSA15    1               0.0000000000
     15697       505  ECLIPA    C65            33.2474623521        4.6013467041        6.5414948800  LPSA15    1               0.0000000000
     15698       505  ECLIPA    H65R           33.7523647400        5.3132709801        7.2423230371  LPSA15    1               0.0000000000
     15699       505  ECLIPA    H65S           32.2582004461        4.9618111518        6.1828980290  LPSA15    1               0.0000000000
     15700       505  ECLIPA    C66            34.1044610304        4.3304837511        5.2222643966  LPSA15    1               0.0000000000
     15701       505  ECLIPA    H66R           35.0977843070        4.0203418111        5.5395647249  LPSA15    1               0.0000000000
     15702       505  ECLIPA    H66S           34.1291546006        5.3830692066        4.8113963288  LPSA15    1               0.0000000000
     15703       505  ECLIPA    C67            33.5472699689        3.4058375732        4.1696839457  LPSA15    1               0.0000000000
     15704       505  ECLIPA    H67R           33.2221389330        2.4468190034        4.5058181646  LPSA15    1               0.0000000000
     15705       505  ECLIPA    H67S           34.3048477948        3.2602915283        3.3478820057  LPSA15    1               0.0000000000
     15706       505  ECLIPA    C68            32.2912944496        3.9090889851        3.5077075145  LPSA15    1               0.0000000000
     15707       505  ECLIPA    H68R           32.3100503254        4.9085366532        3.0112508411  LPSA15    1               0.0000000000
     15708       505  ECLIPA    H68S           31.5769204601        3.8457966073        4.3087918325  LPSA15    1               0.0000000000
     15709       505  ECLIPA    C69            31.9615507191        3.0382632466        2.2963532923  LPSA15    1               0.0000000000
     15710       505  ECLIPA    H69R           32.3322918710        1.9952922101        2.3203210098  LPSA15    1               0.0000000000
     15711       505  ECLIPA    H69S           32.5393062786        3.4461251323        1.4693744207  LPSA15    1               0.0000000000
     15712       505  ECLIPA    C610           30.5200568496        3.0182857682        1.9396251084  LPSA15    1               0.0000000000
     15713       505  ECLIPA    H610R          30.0779397632        4.0455788651        2.0603347121  LPSA15    1               0.0000000000
     15714       505  ECLIPA    H610S          29.9476261557        2.3848351125        2.6933643884  LPSA15    1               0.0000000000
     15715       505  ECLIPA    C611           30.2335683162        2.3886173953        0.5312153135  LPSA15    1               0.0000000000
     15716       505  ECLIPA    H611R          30.6361262639        1.3577484581        0.5735373188  LPSA15    1               0.0000000000
     15717       505  ECLIPA    H611S          29.1950147182        2.1475289734        0.3609598123  LPSA15    1               0.0000000000
     15718       505  ECLIPA    C612           30.7679194522        3.2779549837       -0.5788949292  LPSA15    1               0.0000000000
     15719       505  ECLIPA    H612R          30.1491392035        4.2186115239       -0.6060949542  LPSA15    1               0.0000000000
     15720       505  ECLIPA    H612S          31.7761469755        3.6191468265       -0.3132441764  LPSA15    1               0.0000000000
     15721       505  ECLIPA    H612T          30.7180148577        2.7921072902       -1.5574606966  LPSA15    1               0.0000000000
     15722       505  ECLIPA    C54            30.8039598997        8.8641994073       11.1776054589  LPSA15    1               0.0000000000
     15723       505  ECLIPA    H54R           31.7769318221        9.3615934421       10.8869876633  LPSA15    1               0.0000000000
     15724       505  ECLIPA    H54S           30.3751569053        9.5141051399       11.9574517429  LPSA15    1               0.0000000000
     15725       505  ECLIPA    C55            29.8531123645        8.9730586448        9.9916770240  LPSA15    1               0.0000000000
     15726       505  ECLIPA    H55R           29.4770726451       10.0007710061        9.7856946516  LPSA15    1               0.0000000000
     15727       505  ECLIPA    H55S           28.9327680754        8.3348902082       10.2436295858  LPSA15    1               0.0000000000
     15728       505  ECLIPA    C56            30.6225855631        8.6034874361        8.7515486822  LPSA15    1               0.0000000000
     15729       505  ECLIPA    H56R           31.0099162655        7.5423186154        8.8382497819  LPSA15    1               0.0000000000
     15730       505  ECLIPA    H56S           31.4319343168        9.2090362669        8.4741334449  LPSA15    1               0.0000000000
     15731       505  ECLIPA    C57            29.7780768989        8.3857736195        7.4395707935  LPSA15    1               0.0000000000
     15732       505  ECLIPA    H57R           29.1606360147        9.2483836913        7.1827428724  LPSA15    1               0.0000000000
     15733       505  ECLIPA    H57S           29.0515897745        7.5495331663        7.5196553379  LPSA15    1               0.0000000000
     15734       505  ECLIPA    C58            30.7189771625        7.9733713968        6.2350750625  LPSA15    1               0.0000000000
     15735       505  ECLIPA    H58R           31.6466625723        8.6095909475        6.2095761879  LPSA15    1               0.0000000000
     15736       505  ECLIPA    H58S           31.1771225712        6.9874445929        6.5224540661  LPSA15    1               0.0000000000
     15737       505  ECLIPA    C59            29.9900133638        8.0854083452        4.8667186835  LPSA15    1               0.0000000000
     15738       505  ECLIPA    H59R           29.6152250749        9.1037094030        4.6589989540  LPSA15    1               0.0000000000
     15739       505  ECLIPA    H59S           29.1682037444        7.3746155014        5.0825555512  LPSA15    1               0.0000000000
     15740       505  ECLIPA    C510           30.9300247051        7.8263113940        3.6752379292  LPSA15    1               0.0000000000
     15741       505  ECLIPA    H510R          31.6265706566        6.9268093070        3.7937959224  LPSA15    1               0.0000000000
     15742       505  ECLIPA    H510S          31.6334397449        8.7515915537        3.4613250382  LPSA15    1               0.0000000000
     15743       505  ECLIPA    C511           30.2539183317        7.6403276951        2.3004848829  LPSA15    1               0.0000000000
     15744       505  ECLIPA    H511R          29.8990267902        6.5923246942        2.2679211996  LPSA15    1               0.0000000000
     15745       505  ECLIPA    H511S          29.3235573611        8.2704705855        2.1940961976  LPSA15    1               0.0000000000
     15746       505  ECLIPA    C512           31.1461617597        7.8299781146        1.0189424135  LPSA15    1               0.0000000000
     15747       505  ECLIPA    H512R          30.4992699545        7.8917837635        0.0815295424  LPSA15    1               0.0000000000
     15748       505  ECLIPA    H512S          31.7293381627        8.7544208484        1.1129704346  LPSA15    1               0.0000000000
     15749       505  ECLIPA    C513           32.0654092469        6.5797708241        0.6457389972  LPSA15    1               0.0000000000
     15750       505  ECLIPA    H513R          31.4449356673        5.6415063361        0.5010832175  LPSA15    1               0.0000000000
     15751       505  ECLIPA    H513S          32.7158339097        6.3698339990        1.4088770719  LPSA15    1               0.0000000000
     15752       505  ECLIPA    C514           32.7801432887        6.8151537641       -0.6567184026  LPSA15    1               0.0000000000
     15753       505  ECLIPA    H514R          33.3396908088        7.7498648607       -0.6273993866  LPSA15    1               0.0000000000
     15754       505  ECLIPA    H514S          33.5300785484        6.0223579330       -0.7024724270  LPSA15    1               0.0000000000
     15755       505  ECLIPA    H514T          32.0460976439        6.8214152704       -1.5427815912  LPSA15    1               0.0000000000
     15756       505  ECLIPA    C33            33.3731972880        3.3081589293       14.4880792826  LPSA15    1               0.0000000000
     15757       505  ECLIPA    H33R           34.3208912112        2.8117657649       14.8828993596  LPSA15    1               0.0000000000
     15758       505  ECLIPA    O33            32.9398034682        4.2314240525       15.4699768821  LPSA15    1               0.0000000000
     15759       505  ECLIPA    HO33           33.0065003618        3.8258143647       16.2926205744  LPSA15    1               0.0000000000
     15760       505  ECLIPA    C34            33.7830845387        4.1113590213       13.2255459338  LPSA15    1               0.0000000000
     15761       505  ECLIPA    H34R           32.9064649412        4.5882332109       12.8010908313  LPSA15    1               0.0000000000
     15762       505  ECLIPA    H34S           34.1105542071        3.3938905416       12.3772221142  LPSA15    1               0.0000000000
     15763       505  ECLIPA    C35            34.8608298957        5.1924553892       13.4256256262  LPSA15    1               0.0000000000
     15764       505  ECLIPA    H35R           35.7893545940        4.6949981412       13.6963698038  LPSA15    1               0.0000000000
     15765       505  ECLIPA    H35S           34.5650808404        5.8326208522       14.2668166019  LPSA15    1               0.0000000000
     15766       505  ECLIPA    C36            35.2644634856        6.0175144740       12.1865608177  LPSA15    1               0.0000000000
     15767       505  ECLIPA    H36R           34.2475652922        6.0301220475       11.7430812241  LPSA15    1               0.0000000000
     15768       505  ECLIPA    H36S           36.0011832736        5.5210266229       11.4785220412  LPSA15    1               0.0000000000
     15769       505  ECLIPA    C37            35.5721882387        7.4638344618       12.5255831563  LPSA15    1               0.0000000000
     15770       505  ECLIPA    H37R           36.7446460478        7.4673002936       12.6765215637  LPSA15    1               0.0000000000
     15771       505  ECLIPA    H37S           35.1718780849        7.7604459185       13.5128993321  LPSA15    1               0.0000000000
     15772       505  ECLIPA    C38            35.2372009836        8.5157097457       11.4317274953  LPSA15    1               0.0000000000
     15773       505  ECLIPA    H38R           34.1707995536        8.7952007027       11.4067421357  LPSA15    1               0.0000000000
     15774       505  ECLIPA    H38S           35.7384597661        9.4564643433       11.7230999881  LPSA15    1               0.0000000000
     15775       505  ECLIPA    C39            35.6015215228        8.0093720611       10.0213367345  LPSA15    1               0.0000000000
     15776       505  ECLIPA    H39R           35.1068721238        7.0237123053        9.8128797222  LPSA15    1               0.0000000000
     15777       505  ECLIPA    H39S           36.7225622597        7.9955090481        9.9697980947  LPSA15    1               0.0000000000
     15778       505  ECLIPA    C310           35.2617234836        8.9430281473        8.8401719124  LPSA15    1               0.0000000000
     15779       505  ECLIPA    H310R          35.9151449160        9.8669915007        9.0626900142  LPSA15    1               0.0000000000
     15780       505  ECLIPA    H310S          34.1744459913        9.2426694221        8.8945759064  LPSA15    1               0.0000000000
     15781       505  ECLIPA    C311           35.2937737280        8.2297558926        7.5676235846  LPSA15    1               0.0000000000
     15782       505  ECLIPA    H311R          36.1413467779        7.4982999613        7.5507520616  LPSA15    1               0.0000000000
     15783       505  ECLIPA    H311S          34.3611760477        7.6502982066        7.2851462164  LPSA15    1               0.0000000000
     15784       505  ECLIPA    C312           35.3997295360        9.1453105644        6.3280121142  LPSA15    1               0.0000000000
     15785       505  ECLIPA    H312R          34.8285932492       10.0947813280        6.4861373960  LPSA15    1               0.0000000000
     15786       505  ECLIPA    H312S          36.4816208371        9.3907316349        6.1820758986  LPSA15    1               0.0000000000
     15787       505  ECLIPA    C313           34.9183972785        8.4966051199        4.9895779706  LPSA15    1               0.0000000000
     15788       505  ECLIPA    H313R          35.6719971326        7.8011764840        4.7825120466  LPSA15    1               0.0000000000
     15789       505  ECLIPA    H313S          33.9536867932        7.9409082324        5.1572698764  LPSA15    1               0.0000000000
     15790       505  ECLIPA    C314           34.7507963296        9.3989576355        3.8116661598  LPSA15    1               0.0000000000
     15791       505  ECLIPA    H314R          35.7242100393        9.9222756418        3.6067793993  LPSA15    1               0.0000000000
     15792       505  ECLIPA    H314S          34.4207047326        8.9223303708        2.8849361441  LPSA15    1               0.0000000000
     15793       505  ECLIPA    H314T          34.0020223566       10.2349254683        4.0446347774  LPSA15    1               0.0000000000
     15794       505  ECLIPA    C11            27.6918608084        4.5477106728       11.2900808200  LPSA15    1               0.0000000000
     15795       505  ECLIPA    O11            27.7125538735        5.7631202434       11.1394597694  LPSA15    1               0.0000000000
     15796       505  ECLIPA    C12            26.8065709652        3.7522962931       10.2853014675  LPSA15    1               0.0000000000
     15797       505  ECLIPA    H12R           25.7173039706        3.9184927791       10.4852637814  LPSA15    1               0.0000000000
     15798       505  ECLIPA    H12S           27.0694968259        2.6873002026       10.5222272274  LPSA15    1               0.0000000000
     15799       505  ECLIPA    C13            27.0785914849        4.0200132249        8.8110583416  LPSA15    1               0.0000000000
     15800       505  ECLIPA    H13R           27.2109252575        5.1444535817        8.5839874118  LPSA15    1               0.0000000000
     15801       505  ECLIPA    O13            25.8719261813        3.5860474555        8.1311342176  LPSA15    1               0.0000000000
     15802       505  ECLIPA    HO13           25.7919133126        4.0287793780        7.3064966676  LPSA15    1               0.0000000000
     15803       505  ECLIPA    C14            28.3552767529        3.2931814588        8.4581579993  LPSA15    1               0.0000000000
     15804       505  ECLIPA    H14R           28.4313366180        2.2655815052        8.9706443184  LPSA15    1               0.0000000000
     15805       505  ECLIPA    H14S           29.1988292446        3.9636815501        8.7243868424  LPSA15    1               0.0000000000
     15806       505  ECLIPA    C15            28.5206575411        3.0125552263        6.9526486677  LPSA15    1               0.0000000000
     15807       505  ECLIPA    H15R           27.6465731711        2.5284056201        6.5500123177  LPSA15    1               0.0000000000
     15808       505  ECLIPA    H15S           29.4102432023        2.3849946338        6.8782608049  LPSA15    1               0.0000000000
     15809       505  ECLIPA    C16            28.7016399383        4.3326927927        6.1622847334  LPSA15    1               0.0000000000
     15810       505  ECLIPA    H16R           29.7712768271        4.7424094133        6.2733383262  LPSA15    1               0.0000000000
     15811       505  ECLIPA    H16S           28.1699371946        5.1239005792        6.7182496574  LPSA15    1               0.0000000000
     15812       505  ECLIPA    C17            28.3596470101        4.1984543904        4.6801229578  LPSA15    1               0.0000000000
     15813       505  ECLIPA    H17R           28.8693645286        3.2193978182        4.4246758429  LPSA15    1               0.0000000000
     15814       505  ECLIPA    H17S           28.7816308774        4.9498807613        4.0046542873  LPSA15    1               0.0000000000
     15815       505  ECLIPA    C18            26.8745077229        4.1287653765        4.4504458171  LPSA15    1               0.0000000000
     15816       505  ECLIPA    H18R           26.5910501344        3.3330541144        5.0865821920  LPSA15    1               0.0000000000
     15817       505  ECLIPA    H18S           26.4283216258        5.1121002463        4.7749867078  LPSA15    1               0.0000000000
     15818       505  ECLIPA    C19            26.5248345806        3.8508563328        3.0097966450  LPSA15    1               0.0000000000
     15819       505  ECLIPA    H19R           25.4597334770        3.6875869656        2.9245509529  LPSA15    1               0.0000000000
     15820       505  ECLIPA    H19S           27.0900222860        2.9393750350        2.6238151240  LPSA15    1               0.0000000000
     15821       505  ECLIPA    C110           26.8323756234        5.0688769057        2.1045801788  LPSA15    1               0.0000000000
     15822       505  ECLIPA    H110R          26.4248455446        6.0233937938        2.4416701971  LPSA15    1               0.0000000000
     15823       505  ECLIPA    H110S          27.9433173158        5.0644042943        2.1583327743  LPSA15    1               0.0000000000
     15824       505  ECLIPA    C111           26.3928670631        4.7587780392        0.7563571155  LPSA15    1               0.0000000000
     15825       505  ECLIPA    H111R          26.6346224678        3.7185769359        0.3999767799  LPSA15    1               0.0000000000
     15826       505  ECLIPA    H111S          25.3347484401        4.7712607868        0.7977177860  LPSA15    1               0.0000000000
     15827       505  ECLIPA    C112           26.8273721727        5.7931799757       -0.2937360943  LPSA15    1               0.0000000000
     15828       505  ECLIPA    H112R          26.4105551851        6.7111302606        0.1973446929  LPSA15    1               0.0000000000
     15829       505  ECLIPA    H112S          27.8963147315        6.0077949775       -0.2177998937  LPSA15    1               0.0000000000
     15830       505  ECLIPA    C113           26.5569013025        5.3703752770       -1.7468031795  LPSA15    1               0.0000000000
     15831       505  ECLIPA    H113R          27.2116960409        4.4991988578       -1.9802017524  LPSA15    1               0.0000000000
     15832       505  ECLIPA    H113S          25.5451463437        4.9662656717       -1.8531093719  LPSA15    1               0.0000000000
     15833       505  ECLIPA    C114           26.6033557501        6.4136531138       -2.8344928043  LPSA15    1               0.0000000000
     15834       505  ECLIPA    H114R          26.0456345081        7.3447398125       -2.7829422503  LPSA15    1               0.0000000000
     15835       505  ECLIPA    H114S          27.6693377215        6.7385390252       -2.9951089580  LPSA15    1               0.0000000000
     15836       505  ECLIPA    H114T          26.1071970157        6.0130209458       -3.7399523103  LPSA15    1               0.0000000000
     15837       506  AKDO      C1             32.2678801707        8.5799265312       22.4410509549  LPSA15    2               0.0000000000
     15838       506  AKDO      O11            32.7373820803        9.7683306636       22.4913720772  LPSA15    2               0.0000000000
     15839       506  AKDO      O12            32.8158537231        7.5006509466       22.0800765534  LPSA15    2               0.0000000000
     15840       506  AKDO      C2             30.8100712144        8.4427452748       22.8913181237  LPSA15    2               0.0000000000
     15841       506  AKDO      C6             29.0162363580        9.6886922825       23.8039205188  LPSA15    2               0.0000000000
     15842       506  AKDO      H6             28.4254620480        9.4880543830       22.9487387861  LPSA15    2               0.0000000000
     15843       506  AKDO      O6             30.4515966343        9.6713520651       23.4267274814  LPSA15    2               0.0000000000
     15844       506  AKDO      C3             30.6206760007        7.4366497710       23.9587385105  LPSA15    2               0.0000000000
     15845       506  AKDO      H31            31.2550135730        7.5424857211       24.7868435866  LPSA15    2               0.0000000000
     15846       506  AKDO      H32            30.7808593102        6.3863046788       23.4151264596  LPSA15    2               0.0000000000
     15847       506  AKDO      C4             29.1554750315        7.4003080480       24.3842593775  LPSA15    2               0.0000000000
     15848       506  AKDO      H4             28.4839515034        7.2537535100       23.5563617270  LPSA15    2               0.0000000000
     15849       506  AKDO      O4             28.9667556784        6.3623222117       25.3355834555  LPSA15    2               0.0000000000
     15850       506  AKDO      C5             28.6859752862        8.6732991002       24.9292437177  LPSA15    2               0.0000000000
     15851       506  AKDO      H5             27.5670373599        8.6794439155       25.0107888161  LPSA15    2               0.0000000000
     15852       506  AKDO      O5             29.4103740940        8.9192091048       26.2083878813  LPSA15    2               0.0000000000
     15853       506  AKDO      C7             28.5091931384       11.1514148504       24.1981149098  LPSA15    2               0.0000000000
     15854       506  AKDO      H7             29.0439064872       11.4608070224       25.0939202098  LPSA15    2               0.0000000000
     15855       506  AKDO      O7             27.0657556801       11.2001151324       24.3482682347  LPSA15    2               0.0000000000
     15856       506  AKDO      HO7            26.7259699353       11.2017609680       23.4945166536  LPSA15    2               0.0000000000
     15857       506  AKDO      C8             28.8800209436       12.0731715086       22.9864433882  LPSA15    2               0.0000000000
     15858       506  AKDO      H81            29.9915935040       11.9985499585       22.9153150275  LPSA15    2               0.0000000000
     15859       506  AKDO      H82            28.3102259464       11.6583289782       22.0745354517  LPSA15    2               0.0000000000
     15860       506  AKDO      O8             28.5014090833       13.4652512313       23.3537996748  LPSA15    2               0.0000000000
     15861       506  AKDO      HO8            29.1463734561       14.0807552663       22.9179804014  LPSA15    2               0.0000000000
     15862       507  AKDO      C1             27.8234438199        4.9601241512       23.8027969005  LPSA15    3               1.0000000000
     15863       507  AKDO      O11            28.3141606199        4.7833599966       22.6471489042  LPSA15    3               1.0000000000
     15864       507  AKDO      O12            26.6036011181        5.0851039131       24.0656860145  LPSA15    3               1.0000000000
     15865       507  AKDO      C2             28.7406963149        5.0050641517       25.0166033796  LPSA15    3               1.0000000000
     15866       507  AKDO      C6             30.9608174281        4.4715994514       25.7688829792  LPSA15    3               1.0000000000
     15867       507  AKDO      H6             31.1883210052        5.5667719421       25.9810553331  LPSA15    3               1.0000000000
     15868       507  AKDO      O6             30.0309364098        4.3710670557       24.7076657818  LPSA15    3               1.0000000000
     15869       507  AKDO      C3             28.1799406138        4.3733832798       26.3187707743  LPSA15    3               1.0000000000
     15870       507  AKDO      H31            27.9790402189        3.2361446832       26.1504935106  LPSA15    3               1.0000000000
     15871       507  AKDO      H32            27.2181229841        4.8283540784       26.5929217108  LPSA15    3               1.0000000000
     15872       507  AKDO      C4             29.2129583253        4.5411625009       27.4036122013  LPSA15    3               1.0000000000
     15873       507  AKDO      H4             29.5109129228        5.5941300945       27.4051754129  LPSA15    3               1.0000000000
     15874       507  AKDO      O4             28.8038960009        4.2100888040       28.7388570077  LPSA15    3               1.0000000000
     15875       507  AKDO      HO4            28.8827597262        4.9133847989       29.3717785514  LPSA15    3               1.0000000000
     15876       507  AKDO      C5             30.4055553981        3.8758047416       27.0369167275  LPSA15    3               1.0000000000
     15877       507  AKDO      H5             31.1429437223        3.9349159951       27.9236884022  LPSA15    3               1.0000000000
     15878       507  AKDO      O5             30.1648731135        2.4684751201       26.8495261943  LPSA15    3               1.0000000000
     15879       507  AKDO      HO5            29.5159789257        2.3413720691       26.1887877298  LPSA15    3               1.0000000000
     15880       507  AKDO      C7             32.2253324497        3.7793032904       25.3258859863  LPSA15    3               1.0000000000
     15881       507  AKDO      H7             32.0493163635        2.6808947008       25.1324849511  LPSA15    3               1.0000000000
     15882       507  AKDO      O7             33.2279663558        3.9439591821       26.3661029982  LPSA15    3               1.0000000000
     15883       507  AKDO      HO7            33.9874137849        3.3572785564       26.1647669547  LPSA15    3               1.0000000000
     15884       507  AKDO      C8             32.7343244016        4.5101942648       24.1539635864  LPSA15    3               1.0000000000
     15885       507  AKDO      H81            31.9954940221        4.4941265380       23.3419478721  LPSA15    3               1.0000000000
     15886       507  AKDO      H82            33.0214656412        5.5643378343       24.2853144505  LPSA15    3               1.0000000000
     15887       507  AKDO      O8             33.8869931666        3.8703868650       23.6541307456  LPSA15    3               1.0000000000
     15888       507  AKDO      HO8            33.4179448070        3.1178138552       23.2473452835  LPSA15    3               1.0000000000
     15889       508  AHEP      C1             28.7319407933        9.5552322497       27.2793229502  LPSA15    4               2.0000000000
     15890       508  AHEP      H1             28.8720951977       10.6015204507       26.8517192453  LPSA15    4               2.0000000000
     15891       508  AHEP      C5             26.9288669473        8.1148488811       28.0185271385  LPSA15    4               2.0000000000
     15892       508  AHEP      H5             27.6044613175        7.2916179851       27.5619054335  LPSA15    4               2.0000000000
     15893       508  AHEP      O5             27.3243621335        9.3332479965       27.3942805697  LPSA15    4               2.0000000000
     15894       508  AHEP      C2             29.2781804860        9.6208820838       28.6827861277  LPSA15    4               2.0000000000
     15895       508  AHEP      H2             30.3651511300        9.7438041036       28.7442425996  LPSA15    4               2.0000000000
     15896       508  AHEP      O2             28.7290327278       10.7048155250       29.3407203943  LPSA15    4               2.0000000000
     15897       508  AHEP      HO2            29.3923896199       11.1297732437       29.8507927467  LPSA15    4               2.0000000000
     15898       508  AHEP      C3             28.9198259978        8.3540931441       29.4857672188  LPSA15    4               2.0000000000
     15899       508  AHEP      H3             29.4792292379        7.4445871662       29.2269906369  LPSA15    4               2.0000000000
     15900       508  AHEP      O3             29.2661686824        8.5197553088       30.7882097304  LPSA15    4               2.0000000000
     15901       508  AHEP      C4             27.4265751940        8.1522468665       29.4546205599  LPSA15    4               2.0000000000
     15902       508  AHEP      H4             26.8207671460        8.9330994745       29.9788637739  LPSA15    4               2.0000000000
     15903       508  AHEP      O4             27.1248034630        6.9082547337       30.0145912217  LPSA15    4               2.0000000000
     15904       508  AHEP      P4             26.3927792396        6.7464294144       31.4978499249  LPSA15    4               2.0000000000
     15905       508  AHEP      OP42           26.9052813726        5.5269810587       32.1560374192  LPSA15    4               2.0000000000
     15906       508  AHEP      OP43           24.9706625647        6.6088245066       31.0397938518  LPSA15    4               2.0000000000
     15907       508  AHEP      OP44           26.5608716171        8.0686780800       32.3098937101  LPSA15    4               2.0000000000
     15908       508  AHEP      C6             25.4018499317        7.8183733969       27.7982482844  LPSA15    4               2.0000000000
     15909       508  AHEP      H6             25.2590861720        6.7317830626       28.0833143566  LPSA15    4               2.0000000000
     15910       508  AHEP      O6             24.6714490558        8.6426986516       28.7103505027  LPSA15    4               2.0000000000
     15911       508  AHEP      HO6            23.9934923073        8.1236534931       29.2203787365  LPSA15    4               2.0000000000
     15912       508  AHEP      C7             24.9283574903        7.9971520932       26.3054198206  LPSA15    4               2.0000000000
     15913       508  AHEP      H71            23.8647933492        7.6124528303       26.1576126064  LPSA15    4               2.0000000000
     15914       508  AHEP      H72            25.6876459454        7.5508681865       25.6323487339  LPSA15    4               2.0000000000
     15915       508  AHEP      O7             24.8468037511        9.3806273099       25.9755159574  LPSA15    4               2.0000000000
     15916       508  AHEP      HO7            24.0065934781        9.7169103224       26.3256794122  LPSA15    4               2.0000000000
     15917       509  AHEP      C1             30.2148241676        7.6405701289       31.4342177374  LPSA15    5               3.0000000000
     15918       509  AHEP      H1             30.1977246350        6.6154507288       30.9794447437  LPSA15    5               3.0000000000
     15919       509  AHEP      C5             31.7367096686        9.4090208159       31.9165413065  LPSA15    5               3.0000000000
     15920       509  AHEP      H5             30.8748435782       10.0906976255       31.6031509785  LPSA15    5               3.0000000000
     15921       509  AHEP      O5             31.5571786279        8.1428521876       31.3013865768  LPSA15    5               3.0000000000
     15922       509  AHEP      C2             29.9813277110        7.4600012898       32.9718957084  LPSA15    5               3.0000000000
     15923       509  AHEP      H2             28.8999636062        7.1283056572       33.0921707216  LPSA15    5               3.0000000000
     15924       509  AHEP      O2             30.8273048092        6.4400446490       33.4691025827  LPSA15    5               3.0000000000
     15925       509  AHEP      HO2            30.3239801358        5.6503973537       33.6403503244  LPSA15    5               3.0000000000
     15926       509  AHEP      C3             30.1280193085        8.8119702900       33.7004304811  LPSA15    5               3.0000000000
     15927       509  AHEP      H3             29.3848598813        9.5305660745       33.3375632548  LPSA15    5               3.0000000000
     15928       509  AHEP      O3             29.9619325036        8.7816017798       35.1462238331  LPSA15    5               3.0000000000
     15929       509  AHEP      C4             31.5198635060        9.2828103668       33.4524658705  LPSA15    5               3.0000000000
     15930       509  AHEP      H4             32.2855327303        8.5562880468       33.8188816395  LPSA15    5               3.0000000000
     15931       509  AHEP      O4             31.6741264999       10.5904746559       34.0881196202  LPSA15    5               3.0000000000
     15932       509  AHEP      P4             32.7115981657       10.7971965254       35.2810123301  LPSA15    5               3.0000000000
     15933       509  AHEP      OP42           32.4442694725       12.1825849458       35.8202965042  LPSA15    5               3.0000000000
     15934       509  AHEP      OP43           34.1071110614       10.6931410130       34.6107506294  LPSA15    5               3.0000000000
     15935       509  AHEP      OP44           32.5017722523        9.6567955348       36.2417033353  LPSA15    5               3.0000000000
     15936       509  AHEP      C6             33.0677476407       10.0829685368       31.5493607386  LPSA15    5               3.0000000000
     15937       509  AHEP      H6             33.1345274191       11.1069841652       31.9533288164  LPSA15    5               3.0000000000
     15938       509  AHEP      O6             34.1599069999        9.3147573532       32.0428602265  LPSA15    5               3.0000000000
     15939       509  AHEP      HO6            34.3798041845        8.4881924514       31.5367188277  LPSA15    5               3.0000000000
     15940       509  AHEP      C7             33.1148953704       10.3478063992       30.0822725317  LPSA15    5               3.0000000000
     15941       509  AHEP      H71            33.6938913192       11.2827954058       29.9169108581  LPSA15    5               3.0000000000
     15942       509  AHEP      H72            32.1220652371       10.4973513319       29.6179339851  LPSA15    5               3.0000000000
     15943       509  AHEP      O7             33.9011597861        9.2891369955       29.4957736452  LPSA15    5               3.0000000000
     15944       510  AHEP      C1             33.1484806737        8.3470168379       28.7926622005  LPSA15    6               4.0000000000
     15945       510  AHEP      H1             32.0365740692        8.4592152328       29.0422981953  LPSA15    6               4.0000000000
     15946       510  AHEP      C5             34.6329539771        8.3703850539       26.9237617191  LPSA15    6               4.0000000000
     15947       510  AHEP      H5             35.2613690836        9.0783360610       27.4818042043  LPSA15    6               4.0000000000
     15948       510  AHEP      O5             33.2677902936        8.4869989554       27.3547530115  LPSA15    6               4.0000000000
     15949       510  AHEP      C2             33.5562736340        6.9705969257       29.2397872647  LPSA15    6               4.0000000000
     15950       510  AHEP      H2             33.3554165791        6.9113070210       30.3523091474  LPSA15    6               4.0000000000
     15951       510  AHEP      O2             32.7183884564        5.9672237968       28.7267108980  LPSA15    6               4.0000000000
     15952       510  AHEP      HO2            32.2198598052        5.6809848147       29.4669064354  LPSA15    6               4.0000000000
     15953       510  AHEP      C3             35.0407874791        6.7651501906       28.8468391403  LPSA15    6               4.0000000000
     15954       510  AHEP      H3             35.6259653034        7.4860601404       29.4311808254  LPSA15    6               4.0000000000
     15955       510  AHEP      O3             35.5829348733        5.4063355073       29.2225362108  LPSA15    6               4.0000000000
     15956       510  AHEP      HO3            36.0908015029        5.3551373773       29.9865592523  LPSA15    6               4.0000000000
     15957       510  AHEP      C4             35.1229964393        6.9642711518       27.2761740859  LPSA15    6               4.0000000000
     15958       510  AHEP      H4             34.6270458528        6.1333900942       26.7944950683  LPSA15    6               4.0000000000
     15959       510  AHEP      O4             36.4679666530        6.8251241938       26.7938835778  LPSA15    6               4.0000000000
     15960       510  AHEP      HO4            36.9174046601        7.6808438659       27.1589530594  LPSA15    6               4.0000000000
     15961       510  AHEP      C6             34.8383080525        8.7616239435       25.4906533340  LPSA15    6               4.0000000000
     15962       510  AHEP      H6             35.9122355416        8.7246666847       25.3442628137  LPSA15    6               4.0000000000
     15963       510  AHEP      O6             34.3356285417        7.7313945806       24.6375675438  LPSA15    6               4.0000000000
     15964       510  AHEP      HO6            33.7101225034        8.0838237165       23.9977784313  LPSA15    6               4.0000000000
     15965       510  AHEP      C7             34.4004867027       10.1632575843       25.1799756221  LPSA15    6               4.0000000000
     15966       510  AHEP      H71            34.7552186367       10.4015439615       24.1408078076  LPSA15    6               4.0000000000
     15967       510  AHEP      H72            34.8989625162       10.8085150801       25.9252229174  LPSA15    6               4.0000000000
     15968       510  AHEP      O7             33.0191250278       10.3590670183       25.2517430265  LPSA15    6               4.0000000000
     15969       510  AHEP      HO7            32.8505376551       10.5287269223       26.2011285002  LPSA15    6               4.0000000000
     15970       511  AGLC      C1             28.6428241921        8.9272218152       35.6520976122  LPSA15    7               4.0000000000
     15971       511  AGLC      H1             28.1773037941        9.8719638349       35.2047739589  LPSA15    7               4.0000000000
     15972       511  AGLC      C5             28.2371109840        6.6468400330       36.0987679218  LPSA15    7               4.0000000000
     15973       511  AGLC      H5             29.2696954915        6.3787015564       35.8327124756  LPSA15    7               4.0000000000
     15974       511  AGLC      O5             27.8409862604        7.8019180006       35.4366254460  LPSA15    7               4.0000000000
     15975       511  AGLC      C2             28.6459279180        9.1409780193       37.1582745954  LPSA15    7               4.0000000000
     15976       511  AGLC      H2             27.5461067459        9.1767855868       37.4887389927  LPSA15    7               4.0000000000
     15977       511  AGLC      O2             29.0961395204       10.4657166627       37.5024056006  LPSA15    7               4.0000000000
     15978       511  AGLC      HO2            30.0365330065       10.3819021686       37.6430208865  LPSA15    7               4.0000000000
     15979       511  AGLC      C3             29.0781411731        8.0359426681       37.9903802326  LPSA15    7               4.0000000000
     15980       511  AGLC      H3             30.1057516434        7.8547778014       37.6727250444  LPSA15    7               4.0000000000
     15981       511  AGLC      O3             29.2039615096        8.2832678398       39.4204481292  LPSA15    7               4.0000000000
     15982       511  AGLC      C4             28.1597638512        6.9173567689       37.5928595998  LPSA15    7               4.0000000000
     15983       511  AGLC      H4             27.0880513169        7.1322239926       37.9560286200  LPSA15    7               4.0000000000
     15984       511  AGLC      O4             28.7114812827        5.7419209168       38.2243117391  LPSA15    7               4.0000000000
     15985       511  AGLC      HO4            28.0698002977        5.1870999178       38.6132003238  LPSA15    7               4.0000000000
     15986       511  AGLC      C6             27.4754706573        5.4260305856       35.5245160098  LPSA15    7               4.0000000000
     15987       511  AGLC      H61            27.6119698174        5.4624767755       34.4135318240  LPSA15    7               4.0000000000
     15988       511  AGLC      H62            27.7749934796        4.4142395997       35.8722646349  LPSA15    7               4.0000000000
     15989       511  AGLC      O6             26.0471405980        5.6801484854       35.6892983147  LPSA15    7               4.0000000000
     15990       511  AGLC      HO6            25.8937889147        5.1695188055       36.4386090630  LPSA15    7               4.0000000000
     15991       512  AGLC      C1             30.4881485434        8.2361906332       39.9328324507  LPSA15    8               5.0000000000
     15992       512  AGLC      H1             30.9992834682        7.3202558711       39.5884769495  LPSA15    8               5.0000000000
     15993       512  AGLC      C5             30.9038403273       10.6675215488       40.2153373402  LPSA15    8               5.0000000000
     15994       512  AGLC      H5             29.8908472164       10.8568009675       39.8400606936  LPSA15    8               5.0000000000
     15995       512  AGLC      O5             31.3171094121        9.4073122051       39.6195505863  LPSA15    8               5.0000000000
     15996       512  AGLC      C2             30.4644206304        8.1313152667       41.4170311384  LPSA15    8               5.0000000000
     15997       512  AGLC      H2             31.5336457335        7.9290577706       41.6529594578  LPSA15    8               5.0000000000
     15998       512  AGLC      O2             29.8365860768        6.9680538183       41.9438754185  LPSA15    8               5.0000000000
     15999       512  AGLC      C3             30.0060838531        9.3521477272       42.1297388169  LPSA15    8               5.0000000000
     16000       512  AGLC      H3             28.9807331049        9.4465861855       41.6567950186  LPSA15    8               5.0000000000
     16001       512  AGLC      O3             29.9177024657        9.0996613813       43.5370978028  LPSA15    8               5.0000000000
     16002       512  AGLC      C4             30.9075439777       10.4342676307       41.7603093222  LPSA15    8               5.0000000000
     16003       512  AGLC      H4             31.9185235640       10.2025153142       42.0401368658  LPSA15    8               5.0000000000
     16004       512  AGLC      O4             30.5370500660       11.6373455002       42.3914819843  LPSA15    8               5.0000000000
     16005       512  AGLC      HO4            29.6131913194       11.6968842413       42.3800652601  LPSA15    8               5.0000000000
     16006       512  AGLC      C6             31.6556172368       11.9316062220       39.7357334439  LPSA15    8               5.0000000000
     16007       512  AGLC      H61            31.8007029986       11.9819666414       38.6468043611  LPSA15    8               5.0000000000
     16008       512  AGLC      H62            31.2068800086       12.8628063927       40.0276014644  LPSA15    8               5.0000000000
     16009       512  AGLC      O6             32.9219128615       12.0918534343       40.3040784562  LPSA15    8               5.0000000000
     16010       512  AGLC      HO6            32.8804097412       12.4508442315       41.2121845210  LPSA15    8               5.0000000000
     16011       513  AGAL      C1             30.1981207422        5.7109601742       41.4573847493  LPSA15    9               6.0000000000
     16012       513  AGAL      H1             30.2429508312        5.7283386966       40.3420235153  LPSA15    9               6.0000000000
     16013       513  AGAL      C5             31.5248567558        4.9388571486       43.2125447641  LPSA15    9               6.0000000000
     16014       513  AGAL      H5             31.0849576008        5.8718771579       43.7424973645  LPSA15    9               6.0000000000
     16015       513  AGAL      O5             31.4992011556        5.1709610303       41.8451689838  LPSA15    9               6.0000000000
     16016       513  AGAL      C2             29.1198716303        4.7318343072       41.8393925249  LPSA15    9               6.0000000000
     16017       513  AGAL      H2             29.3504165865        3.7666786364       41.4115621152  LPSA15    9               6.0000000000
     16018       513  AGAL      O2             27.8787991360        5.0020306024       41.1608705954  LPSA15    9               6.0000000000
     16019       513  AGAL      C3             29.1159693784        4.4520383600       43.3264191845  LPSA15    9               6.0000000000
     16020       513  AGAL      H3             28.8326093284        5.4120906134       43.9424563891  LPSA15    9               6.0000000000
     16021       513  AGAL      O3             28.0742579486        3.6246416007       43.7491515633  LPSA15    9               6.0000000000
     16022       513  AGAL      HO3            27.3305617737        3.8145724741       43.1585960960  LPSA15    9               6.0000000000
     16023       513  AGAL      C4             30.4564609101        3.9260568568       43.6505755014  LPSA15    9               6.0000000000
     16024       513  AGAL      H4             30.6149118007        3.7767175874       44.7734818408  LPSA15    9               6.0000000000
     16025       513  AGAL      O4             30.7752062689        2.7088841803       43.0499075873  LPSA15    9               6.0000000000
     16026       513  AGAL      HO4            31.3700784594        2.2488666425       43.6622427513  LPSA15    9               6.0000000000
     16027       513  AGAL      C6             32.9184859818        4.8419020771       43.8349081587  LPSA15    9               6.0000000000
     16028       513  AGAL      H61            33.5589484611        5.7408040975       43.6417203355  LPSA15    9               6.0000000000
     16029       513  AGAL      H62            32.9282013318        4.7664909951       44.9292747136  LPSA15    9               6.0000000000
     16030       513  AGAL      O6             33.5903618598        3.6960554516       43.4062227539  LPSA15    9               6.0000000000
     16031       513  AGAL      HO6            34.1941376708        3.9725641954       42.6923548993  LPSA15    9               6.0000000000
     16032       514  AGAL      C1             26.5611108926        5.0931682039       41.7517281777  LPSA15    10              7.0000000000
     16033       514  AGAL      H1             26.2575438434        4.0415774130       41.8429972083  LPSA15    10              7.0000000000
     16034       514  AGAL      C5             26.6335522986        7.1106114487       43.0613392294  LPSA15    10              7.0000000000
     16035       514  AGAL      H5             27.7206949261        7.2328675621       42.6233508762  LPSA15    10              7.0000000000
     16036       514  AGAL      O5             26.3131929481        5.7062763483       43.0470213554  LPSA15    10              7.0000000000
     16037       514  AGAL      C2             25.6780001948        5.8226576021       40.7227968417  LPSA15    10              7.0000000000
     16038       514  AGAL      H2             24.5900867885        5.5869438469       41.0433947026  LPSA15    10              7.0000000000
     16039       514  AGAL      O2             25.5372107898        5.1406530970       39.5532095562  LPSA15    10              7.0000000000
     16040       514  AGAL      HO2            24.6212153973        5.0137876419       39.3379401176  LPSA15    10              7.0000000000
     16041       514  AGAL      C3             25.9481205704        7.2845580619       40.6928251787  LPSA15    10              7.0000000000
     16042       514  AGAL      H3             27.0114148493        7.3372044090       40.4679648945  LPSA15    10              7.0000000000
     16043       514  AGAL      O3             25.1921863589        8.0138996689       39.7732034444  LPSA15    10              7.0000000000
     16044       514  AGAL      HO3            25.7834916785        8.2460249656       39.0151094934  LPSA15    10              7.0000000000
     16045       514  AGAL      C4             25.7184190384        7.8505079430       42.0524071915  LPSA15    10              7.0000000000
     16046       514  AGAL      H4             26.0095500275        8.9171278085       42.1099272557  LPSA15    10              7.0000000000
     16047       514  AGAL      O4             24.3957605465        7.7633273303       42.4965010455  LPSA15    10              7.0000000000
     16048       514  AGAL      HO4            24.2433930637        6.8381442161       42.5675127347  LPSA15    10              7.0000000000
     16049       514  AGAL      C6             26.6843800923        7.7827743824       44.3959537205  LPSA15    10              7.0000000000
     16050       514  AGAL      H61            27.3072901479        7.2453511964       45.1044438806  LPSA15    10              7.0000000000
     16051       514  AGAL      H62            27.2501089968        8.8260549970       44.2564473849  LPSA15    10              7.0000000000
     16052       514  AGAL      O6             25.4664397693        8.0796875354       45.1112340130  LPSA15    10              7.0000000000
     16053       514  AGAL      HO6            25.4593204135        7.5417451009       45.9237589285  LPSA15    10              7.0000000000
     16054       515  BGLC      C1             30.9164562800        9.3776293504       44.5018065681  LPSA15    11              6.0000000000
     16055       515  BGLC      H1             30.8564062490       10.4524322283       44.5883763758  LPSA15    11              6.0000000000
     16056       515  BGLC      C5             33.3270264275        9.0959812393       45.1248117688  LPSA15    11              6.0000000000
     16057       515  BGLC      H5             33.4733252259       10.2019516734       45.3871201921  LPSA15    11              6.0000000000
     16058       515  BGLC      O5             32.2391629146        8.8532406024       44.0830650888  LPSA15    11              6.0000000000
     16059       515  BGLC      C2             30.5514057776        8.6994900021       45.7977571702  LPSA15    11              6.0000000000
     16060       515  BGLC      H2             30.3995093992        7.5927322551       45.7293388291  LPSA15    11              6.0000000000
     16061       515  BGLC      O2             29.2439042394        9.1713999093       46.0886391483  LPSA15    11              6.0000000000
     16062       515  BGLC      HO2            28.6921218545        8.4372872030       46.2788110113  LPSA15    11              6.0000000000
     16063       515  BGLC      C3             31.5405807652        8.8771591652       46.8736276645  LPSA15    11              6.0000000000
     16064       515  BGLC      H3             31.5328705940       10.0017029839       47.1984917368  LPSA15    11              6.0000000000
     16065       515  BGLC      O3             31.0829007679        8.1464748839       48.0056213318  LPSA15    11              6.0000000000
     16066       515  BGLC      C4             32.8413905274        8.4122321716       46.4390836423  LPSA15    11              6.0000000000
     16067       515  BGLC      H4             32.7130656921        7.3027815344       46.2001611147  LPSA15    11              6.0000000000
     16068       515  BGLC      O4             33.8056298230        8.4794029127       47.4766894645  LPSA15    11              6.0000000000
     16069       515  BGLC      HO4            33.5956454473        7.7965751709       48.1247908570  LPSA15    11              6.0000000000
     16070       515  BGLC      C6             34.6894838221        8.7013070517       44.5291127165  LPSA15    11              6.0000000000
     16071       515  BGLC      H61            35.4769927603        8.5207542625       45.2481190913  LPSA15    11              6.0000000000
     16072       515  BGLC      H62            34.5123396537        7.7995327733       43.8913252379  LPSA15    11              6.0000000000
     16073       515  BGLC      O6             35.2271225522        9.6458076087       43.5637942269  LPSA15    11              6.0000000000
     16074       515  BGLC      HO6            35.9669033588        9.9909635984       44.0054369298  LPSA15    11              6.0000000000
     16075       516  BGLCNA    C1             30.9734029822        8.7307012292       49.3238540420  LPSA15    12              7.0000000000
     16076       516  BGLCNA    H1             29.9478323615        9.2290888006       49.3874222992  LPSA15    12              7.0000000000
     16077       516  BGLCNA    C5             31.8021210722       10.3584568118       50.8763077070  LPSA15    12              7.0000000000
     16078       516  BGLCNA    H5             30.7455725299       10.8759640573       50.9814236466  LPSA15    12              7.0000000000
     16079       516  BGLCNA    O5             31.9930498395        9.7203387198       49.5875345322  LPSA15    12              7.0000000000
     16080       516  BGLCNA    C2             31.1018578176        7.6307324619       50.3245054808  LPSA15    12              7.0000000000
     16081       516  BGLCNA    H2             32.2335169489        7.3266068117       50.3375086743  LPSA15    12              7.0000000000
     16082       516  BGLCNA    N              30.1352393047        6.5537123078       50.0347611965  LPSA15    12              7.0000000000
     16083       516  BGLCNA    HN             29.2718228727        6.9353351460       49.9972643287  LPSA15    12              7.0000000000
     16084       516  BGLCNA    C              30.5259436544        5.3239537958       49.8903426450  LPSA15    12              7.0000000000
     16085       516  BGLCNA    O              31.6967978050        5.0297498459       50.0855928044  LPSA15    12              7.0000000000
     16086       516  BGLCNA    CT             29.4691314649        4.3117928480       49.5677689528  LPSA15    12              7.0000000000
     16087       516  BGLCNA    HT1            29.3141229205        3.5922934283       50.3918503408  LPSA15    12              7.0000000000
     16088       516  BGLCNA    HT2            29.8508028094        3.5969640967       48.7104760971  LPSA15    12              7.0000000000
     16089       516  BGLCNA    HT3            28.5703311730        4.8857242659       49.2316245990  LPSA15    12              7.0000000000
     16090       516  BGLCNA    C3             30.9044492414        8.1446516807       51.6995695120  LPSA15    12              7.0000000000
     16091       516  BGLCNA    H3             29.7988277124        8.5421871874       51.8605307917  LPSA15    12              7.0000000000
     16092       516  BGLCNA    O3             30.9663649988        7.1181135141       52.7272334264  LPSA15    12              7.0000000000
     16093       516  BGLCNA    C4             31.9158274776        9.2153036902       51.9591692987  LPSA15    12              7.0000000000
     16094       516  BGLCNA    H4             33.0133082199        8.8590007113       51.9037868612  LPSA15    12              7.0000000000
     16095       516  BGLCNA    O4             31.7822974220        9.7605684162       53.2294962294  LPSA15    12              7.0000000000
     16096       516  BGLCNA    HO4            30.9984834037       10.3818836600       53.2834945119  LPSA15    12              7.0000000000
     16097       516  BGLCNA    C6             32.8179604555       11.5162812485       50.9528560558  LPSA15    12              7.0000000000
     16098       516  BGLCNA    H61            32.7895967383       11.9743180397       51.9144325068  LPSA15    12              7.0000000000
     16099       516  BGLCNA    H62            33.7709416308       11.0138805455       50.8287962869  LPSA15    12              7.0000000000
     16100       516  BGLCNA    O6             32.6565658210       12.3846269623       49.8597561973  LPSA15    12              7.0000000000
     16101       516  BGLCNA    HO6            32.0342396143       13.0179916700       50.1903398796  LPSA15    12              7.0000000000
     16102       517  AGAL      C1             29.9908106541        7.2299357746       53.8132743488  LPSA15    13              8.0000000000
     16103       517  AGAL      H1             29.9892158594        8.2749029615       54.1959401301  LPSA15    13              8.0000000000
     16104       517  AGAL      C5             28.7652180972        5.2203273665       53.2950732168  LPSA15    13              8.0000000000
     16105       517  AGAL      H5             29.5547311235        5.0597894146       52.5641412600  LPSA15    13              8.0000000000
     16106       517  AGAL      O5             28.6805805427        6.6406704781       53.4918445955  LPSA15    13              8.0000000000
     16107       517  AGAL      C2             30.3941443538        6.4598916245       55.1010141246  LPSA15    13              8.0000000000
     16108       517  AGAL      H2             29.5271493537        6.4549964052       55.7917211299  LPSA15    13              8.0000000000
     16109       517  AGAL      O2             31.4846915260        7.0578392425       55.7701983428  LPSA15    13              8.0000000000
     16110       517  AGAL      C3             30.4717370870        4.9273805693       54.8979691660  LPSA15    13              8.0000000000
     16111       517  AGAL      H3             31.1166108437        4.7291827797       54.0477453328  LPSA15    13              8.0000000000
     16112       517  AGAL      O3             31.1193253898        4.2553747405       55.9888739531  LPSA15    13              8.0000000000
     16113       517  AGAL      HO3            31.6865430208        3.5541611253       55.6848713412  LPSA15    13              8.0000000000
     16114       517  AGAL      C4             29.1943109062        4.4121047402       54.5514025965  LPSA15    13              8.0000000000
     16115       517  AGAL      H4             29.2701188737        3.3148701255       54.1954731349  LPSA15    13              8.0000000000
     16116       517  AGAL      O4             28.2304149240        4.5357516228       55.5743212917  LPSA15    13              8.0000000000
     16117       517  AGAL      HO4            28.1999985508        5.3790377486       56.0499681296  LPSA15    13              8.0000000000
     16118       517  AGAL      C6             27.6135432190        4.5980791284       52.5301443486  LPSA15    13              8.0000000000
     16119       517  AGAL      H61            27.4110819661        5.1879728248       51.6253596531  LPSA15    13              8.0000000000
     16120       517  AGAL      H62            27.8483684089        3.5165795903       52.3684678279  LPSA15    13              8.0000000000
     16121       517  AGAL      O6             26.4280043380        4.6008584341       53.2985910507  LPSA15    13              8.0000000000
     16122       517  AGAL      HO6            26.4686013177        3.8656738541       53.9299633642  LPSA15    13              8.0000000000
     16123       518  ARHM      C1             31.2980395859        7.6763788390       57.0117786358  LPSA15    14              9.0000000000
     16124       518  ARHM      H1             30.2422381482        8.0179942029       56.9981767125  LPSA15    14              9.0000000000
     16125       518  ARHM      C5             33.4708796675        8.4919150633       57.1930138837  LPSA15    14              9.0000000000
     16126       518  ARHM      H5             33.6972259715        7.9537468251       56.1976867078  LPSA15    14              9.0000000000
     16127       518  ARHM      O5             32.1304556279        8.8140718438       57.1718909996  LPSA15    14              9.0000000000
     16128       518  ARHM      C2             31.5673381707        6.6579794311       58.1413490634  LPSA15    14              9.0000000000
     16129       518  ARHM      H2             30.9389114678        5.8136796438       57.8875987320  LPSA15    14              9.0000000000
     16130       518  ARHM      O2             31.3140860910        7.1203410884       59.4330148990  LPSA15    14              9.0000000000
     16131       518  ARHM      C3             33.0158674658        6.2645612536       58.1095432995  LPSA15    14              9.0000000000
     16132       518  ARHM      H3             33.2747668707        5.9921986400       57.0440121713  LPSA15    14              9.0000000000
     16133       518  ARHM      O3             33.3332516685        5.1308538234       58.8567888868  LPSA15    14              9.0000000000
     16134       518  ARHM      HO3            33.3046847846        5.4340010379       59.8104957846  LPSA15    14              9.0000000000
     16135       518  ARHM      C4             33.8016252623        7.5025665151       58.3490442956  LPSA15    14              9.0000000000
     16136       518  ARHM      H4             33.5829851116        8.0595126628       59.2902338481  LPSA15    14              9.0000000000
     16137       518  ARHM      O4             35.2114298431        7.1589998912       58.4446785014  LPSA15    14              9.0000000000
     16138       518  ARHM      HO4            35.6267115974        7.2800340062       59.2969967688  LPSA15    14              9.0000000000
     16139       518  ARHM      C6             34.3162469684        9.7756014798       57.2492155848  LPSA15    14              9.0000000000
     16140       518  ARHM      H61            33.9738342139       10.6059061174       56.5358243550  LPSA15    14              9.0000000000
     16141       518  ARHM      H62            34.3292568304       10.0747075241       58.3170764683  LPSA15    14              9.0000000000
     16142       518  ARHM      H63            35.3643879407        9.7455376086       56.9421594120  LPSA15    14              9.0000000000
     16143       519  ARHM      C1             30.1392881816        7.6954795659       59.7267990175  LPSA15    15             10.0000000000
     16144       519  ARHM      H1             29.3350365182        7.3422460972       59.0458905905  LPSA15    15             10.0000000000
     16145       519  ARHM      C5             31.0105133371        9.8313240436       60.6468530148  LPSA15    15             10.0000000000
     16146       519  ARHM      H5             32.1102367254        9.6331052747       60.4457705401  LPSA15    15             10.0000000000
     16147       519  ARHM      O5             30.1697707096        9.1436948094       59.6688136410  LPSA15    15             10.0000000000
     16148       519  ARHM      C2             29.7178956531        7.3011496151       61.1407671534  LPSA15    15             10.0000000000
     16149       519  ARHM      H2             29.8073016899        6.1510516440       61.2133420761  LPSA15    15             10.0000000000
     16150       519  ARHM      O2             28.3463863758        7.7620972722       61.3234079317  LPSA15    15             10.0000000000
     16151       519  ARHM      C3             30.6666337569        7.9209157251       62.1677656617  LPSA15    15             10.0000000000
     16152       519  ARHM      H3             31.7057915035        7.6143104196       61.8628392879  LPSA15    15             10.0000000000
     16153       519  ARHM      O3             30.4039936883        7.2137469696       63.4092175029  LPSA15    15             10.0000000000
     16154       519  ARHM      C4             30.5900870821        9.3662371032       62.0487117432  LPSA15    15             10.0000000000
     16155       519  ARHM      H4             29.4746042888        9.6794533251       62.1496903561  LPSA15    15             10.0000000000
     16156       519  ARHM      O4             31.3558374407       10.1548624723       62.9635513464  LPSA15    15             10.0000000000
     16157       519  ARHM      HO4            31.0055274592       11.0328952023       62.9565205260  LPSA15    15             10.0000000000
     16158       519  ARHM      C6             30.8877975654       11.3243129388       60.4460959132  LPSA15    15             10.0000000000
     16159       519  ARHM      H61            31.5649577796       11.9398657299       61.0956562646  LPSA15    15             10.0000000000
     16160       519  ARHM      H62            30.9193364196       11.5534582145       59.3910198679  LPSA15    15             10.0000000000
     16161       519  ARHM      H63            29.9212461395       11.7301940431       60.8578185328  LPSA15    15             10.0000000000
     16162       520  BMANNA    C1             27.6464736420        7.4389146635       62.5145562334  LPSA15    16             11.0000000000
     16163       520  BMANNA    H1             28.1100558874        8.0933127840       63.3432051365  LPSA15    16             11.0000000000
     16164       520  BMANNA    C5             27.0639617743        5.8900071491       64.1851548173  LPSA15    16             11.0000000000
     16165       520  BMANNA    H5             27.4586879832        6.5362535006       64.9800677769  LPSA15    16             11.0000000000
     16166       520  BMANNA    O5             27.7432596882        6.0774109822       62.9158851071  LPSA15    16             11.0000000000
     16167       520  BMANNA    C2             26.1716619423        7.8401045608       62.2781089586  LPSA15    16             11.0000000000
     16168       520  BMANNA    H2             26.2216236044        8.9232554063       61.9912908466  LPSA15    16             11.0000000000
     16169       520  BMANNA    N              25.4214579413        7.1477064706       61.2264456342  LPSA15    16             11.0000000000
     16170       520  BMANNA    HN             24.9856684936        6.3480288195       61.5688724990  LPSA15    16             11.0000000000
     16171       520  BMANNA    C              25.3711182535        7.5163204587       59.9704010620  LPSA15    16             11.0000000000
     16172       520  BMANNA    O              25.9189914539        8.5753096940       59.5582221915  LPSA15    16             11.0000000000
     16173       520  BMANNA    CT             24.6125218519        6.6015503071       59.1331689300  LPSA15    16             11.0000000000
     16174       520  BMANNA    HT1            23.6320365740        6.9378900389       58.8344492748  LPSA15    16             11.0000000000
     16175       520  BMANNA    HT2            24.4810601652        5.5856326581       59.5043001239  LPSA15    16             11.0000000000
     16176       520  BMANNA    HT3            25.1169624842        6.4604335476       58.1231520073  LPSA15    16             11.0000000000
     16177       520  BMANNA    C3             25.4862319943        7.6796811535       63.6119771117  LPSA15    16             11.0000000000
     16178       520  BMANNA    H3             25.9879392111        8.3197138330       64.3839812837  LPSA15    16             11.0000000000
     16179       520  BMANNA    O3             24.1545153284        8.1069064982       63.6122488842  LPSA15    16             11.0000000000
     16180       520  BMANNA    HO3            24.0066107085        8.7478085719       64.2950500102  LPSA15    16             11.0000000000
     16181       520  BMANNA    C4             25.5629155132        6.2289260142       64.1045846713  LPSA15    16             11.0000000000
     16182       520  BMANNA    H4             25.0585542267        5.5279563929       63.4124605202  LPSA15    16             11.0000000000
     16183       520  BMANNA    O4             24.9668004990        5.9372195344       65.3816866120  LPSA15    16             11.0000000000
     16184       520  BMANNA    HO4            24.7313150335        5.0120575790       65.4353184152  LPSA15    16             11.0000000000
     16185       520  BMANNA    C6             27.2469109656        4.4725727115       64.7427751243  LPSA15    16             11.0000000000
     16186       520  BMANNA    H61            27.2138515656        4.5549462760       65.8875394407  LPSA15    16             11.0000000000
     16187       520  BMANNA    H62            26.4281456164        3.8168510326       64.4389269682  LPSA15    16             11.0000000000
     16188       520  BMANNA    O6             28.4883533833        3.8441697873       64.3660927576  LPSA15    16             11.0000000000
     16189       520  BMANNA    HO6            28.1679895453        3.0383408940       63.9036969990  LPSA15    16             11.0000000000
     16190       521  BGLCNA    C1             31.4842238613        6.9567409419       64.1715778089  LPSA15    17             11.0000000000
     16191       521  BGLCNA    H1             32.3064968662        7.7377941976       63.9082176002  LPSA15    17             11.0000000000
     16192       521  BGLCNA    C5             33.2800865853        5.3447773471       64.5563394407  LPSA15    17             11.0000000000
     16193       521  BGLCNA    H5             34.1240313623        6.0825214555       64.2825289487  LPSA15    17             11.0000000000
     16194       521  BGLCNA    O5             32.1246820227        5.7067434883       63.7849982893  LPSA15    17             11.0000000000
     16195       521  BGLCNA    C2             31.0455670946        6.9406155094       65.5899343931  LPSA15    17             11.0000000000
     16196       521  BGLCNA    H2             30.2586682010        6.1468805219       65.8249043900  LPSA15    17             11.0000000000
     16197       521  BGLCNA    N              30.3413778482        8.1224684052       65.8849826081  LPSA15    17             11.0000000000
     16198       521  BGLCNA    HN             30.6186585618        8.9815736442       65.4150135415  LPSA15    17             11.0000000000
     16199       521  BGLCNA    C              29.4223710789        8.3583196359       66.8043620798  LPSA15    17             11.0000000000
     16200       521  BGLCNA    O              28.9292539210        7.4577360237       67.4729873017  LPSA15    17             11.0000000000
     16201       521  BGLCNA    CT             29.0165997535        9.7730862610       66.9728872304  LPSA15    17             11.0000000000
     16202       521  BGLCNA    HT1            28.0570811545       10.1253560121       66.5529393721  LPSA15    17             11.0000000000
     16203       521  BGLCNA    HT2            29.8875819680       10.4016618338       66.7043805047  LPSA15    17             11.0000000000
     16204       521  BGLCNA    HT3            28.9107981629       10.0256465994       68.1408097225  LPSA15    17             11.0000000000
     16205       521  BGLCNA    C3             32.2902127466        6.6774153652       66.4076579941  LPSA15    17             11.0000000000
     16206       521  BGLCNA    H3             32.9793363343        7.5116145174       66.0441361901  LPSA15    17             11.0000000000
     16207       521  BGLCNA    O3             31.9517209594        6.9241463697       67.8205355914  LPSA15    17             11.0000000000
     16208       521  BGLCNA    C4             32.8303838194        5.2998998877       66.0496966154  LPSA15    17             11.0000000000
     16209       521  BGLCNA    H4             32.0134349786        4.4985783793       66.1123142204  LPSA15    17             11.0000000000
     16210       521  BGLCNA    O4             33.8636090828        4.8821895820       66.9186044206  LPSA15    17             11.0000000000
     16211       521  BGLCNA    HO4            34.2621304755        4.0432882964       66.7204061560  LPSA15    17             11.0000000000
     16212       521  BGLCNA    C6             33.7777825515        3.9528072665       64.1200051697  LPSA15    17             11.0000000000
     16213       521  BGLCNA    H61            34.8500499504        3.9269691526       64.1272946536  LPSA15    17             11.0000000000
     16214       521  BGLCNA    H62            33.4052173201        3.1438256418       64.8212395067  LPSA15    17             11.0000000000
     16215       521  BGLCNA    O6             33.3558418192        3.6106415116       62.7926115083  LPSA15    17             11.0000000000
     16216       521  BGLCNA    HO6            33.6897022252        4.2616542382       62.1856770532  LPSA15    17             11.0000000000
     16217       522  AGAL      C1             33.0080550073        7.5148568114       68.6198653987  LPSA15    18             12.0000000000
     16218       522  AGAL      H1             33.7744519117        6.7058302277       68.8082567594  LPSA15    18             12.0000000000
     16219       522  AGAL      C5             32.7335188327        9.7776749508       67.8636918791  LPSA15    18             12.0000000000
     16220       522  AGAL      H5             31.8000447931        9.4370167442       67.4068928888  LPSA15    18             12.0000000000
     16221       522  AGAL      O5             33.6262263410        8.6118031039       67.9834320655  LPSA15    18             12.0000000000
     16222       522  AGAL      C2             32.4711220313        8.0543630386       70.0000206359  LPSA15    18             12.0000000000
     16223       522  AGAL      H2             33.4281920805        8.4702832915       70.3908489884  LPSA15    18             12.0000000000
     16224       522  AGAL      O2             32.1308706025        6.9972379024       70.8342757016  LPSA15    18             12.0000000000
     16225       522  AGAL      C3             31.5384485224        9.2076482987       69.8682924558  LPSA15    18             12.0000000000
     16226       522  AGAL      H3             30.7143738307        8.9220142438       69.0958348126  LPSA15    18             12.0000000000
     16227       522  AGAL      O3             30.9244106046        9.5438010829       71.0758896640  LPSA15    18             12.0000000000
     16228       522  AGAL      HO3            29.9809389302        9.6764989670       70.9682873819  LPSA15    18             12.0000000000
     16229       522  AGAL      C4             32.2295912678       10.3035349015       69.1634745928  LPSA15    18             12.0000000000
     16230       522  AGAL      H4             31.6017995718       11.1881554727       68.9039691178  LPSA15    18             12.0000000000
     16231       522  AGAL      O4             33.3145745664       10.8271282120       69.9734134928  LPSA15    18             12.0000000000
     16232       522  AGAL      HO4            32.9226759292       11.3955189663       70.7236544006  LPSA15    18             12.0000000000
     16233       522  AGAL      C6             33.2704056448       10.6331438416       66.8042742825  LPSA15    18             12.0000000000
     16234       522  AGAL      H61            33.2565002328       10.0411920994       65.8877991861  LPSA15    18             12.0000000000
     16235       522  AGAL      H62            32.5225285390       11.4576826652       66.6499463921  LPSA15    18             12.0000000000
     16236       522  AGAL      O6             34.5153405758       11.0819948765       66.9803033045  LPSA15    18             12.0000000000
     16237       522  AGAL      HO6            35.0363030004       10.6848969334       67.6707071977  LPSA15    18             12.0000000000
     16238       523  ARHM      C1             32.6055804466        7.2559582894       72.1803514454  LPSA15    19             13.0000000000
     16239       523  ARHM      H1             32.7927784670        8.3018933017       72.3185909119  LPSA15    19             13.0000000000
     16240       523  ARHM      C5             33.9864113757        5.3294250891       72.2512180912  LPSA15    19             13.0000000000
     16241       523  ARHM      H5             33.6246096285        5.1115934146       71.2133247196  LPSA15    19             13.0000000000
     16242       523  ARHM      O5             33.9261668765        6.7472072542       72.4162684983  LPSA15    19             13.0000000000
     16243       523  ARHM      C2             31.6115108680        6.6647461176       73.1100514097  LPSA15    19             13.0000000000
     16244       523  ARHM      H2             30.6009238620        6.9353476231       72.9420985559  LPSA15    19             13.0000000000
     16245       523  ARHM      O2             31.9313363053        7.0103840444       74.4131644751  LPSA15    19             13.0000000000
     16246       523  ARHM      C3             31.7060762962        5.1123985902       72.9859276785  LPSA15    19             13.0000000000
     16247       523  ARHM      H3             31.5031351666        4.8648205647       71.9471750908  LPSA15    19             13.0000000000
     16248       523  ARHM      O3             30.7497343055        4.4888258398       73.7644258584  LPSA15    19             13.0000000000
     16249       523  ARHM      HO3            30.8167613858        4.8713737230       74.6464134549  LPSA15    19             13.0000000000
     16250       523  ARHM      C4             33.0577951102        4.5946917423       73.2443334127  LPSA15    19             13.0000000000
     16251       523  ARHM      H4             33.3028657673        4.8971646963       74.2703943704  LPSA15    19             13.0000000000
     16252       523  ARHM      O4             33.1919317449        3.2102983228       73.1708570575  LPSA15    19             13.0000000000
     16253       523  ARHM      HO4            33.0147416497        2.9730502020       72.2126258713  LPSA15    19             13.0000000000
     16254       523  ARHM      C6             35.4382999786        4.8207220035       72.3031700958  LPSA15    19             13.0000000000
     16255       523  ARHM      H61            35.8856660515        5.4101114707       71.5186681997  LPSA15    19             13.0000000000
     16256       523  ARHM      H62            35.9861975877        4.9995015099       73.2001761489  LPSA15    19             13.0000000000
     16257       523  ARHM      H63            35.5335544172        3.7527703105       72.0875448643  LPSA15    19             13.0000000000
     16258       524  ARHM      C1             31.5877809744        8.3263119419       74.6981797177  LPSA15    20             14.0000000000
     16259       524  ARHM      H1             30.9316330234        8.7941821499       73.8936196974  LPSA15    20             14.0000000000
     16260       524  ARHM      C5             33.5001083294        8.9604008570       75.9960310464  LPSA15    20             14.0000000000
     16261       524  ARHM      H5             33.8304624442        7.9070276751       75.8071112250  LPSA15    20             14.0000000000
     16262       524  ARHM      O5             32.6587529770        9.2547803189       74.8741575474  LPSA15    20             14.0000000000
     16263       524  ARHM      C2             30.7057269148        8.3658768815       75.9438944127  LPSA15    20             14.0000000000
     16264       524  ARHM      H2             29.8886135532        7.5445956127       75.7904987900  LPSA15    20             14.0000000000
     16265       524  ARHM      O2             30.1252501825        9.6621910230       76.2145535291  LPSA15    20             14.0000000000
     16266       524  ARHM      C3             31.5885973689        8.0549155991       77.0746584307  LPSA15    20             14.0000000000
     16267       524  ARHM      H3             32.0333322077        6.9978746342       76.9570890266  LPSA15    20             14.0000000000
     16268       524  ARHM      O3             30.7328680730        7.9941382860       78.2431898216  LPSA15    20             14.0000000000
     16269       524  ARHM      C4             32.7132501908        9.0252988834       77.2147849866  LPSA15    20             14.0000000000
     16270       524  ARHM      H4             32.3834812022       10.0411732784       77.2882629629  LPSA15    20             14.0000000000
     16271       524  ARHM      O4             33.4401806192        8.7273360649       78.4294019453  LPSA15    20             14.0000000000
     16272       524  ARHM      HO4            34.2544429833        9.0236767832       78.0714846557  LPSA15    20             14.0000000000
     16273       524  ARHM      C6             34.6826684411        9.8361901165       75.9818768401  LPSA15    20             14.0000000000
     16274       524  ARHM      H61            34.5454581159       10.9570198460       76.0487105533  LPSA15    20             14.0000000000
     16275       524  ARHM      H62            35.3915753273        9.5200260804       76.7492574554  LPSA15    20             14.0000000000
     16276       524  ARHM      H63            35.2895389619        9.7913238552       75.0059134709  LPSA15    20             14.0000000000
     16277       525  BMANNA    C1             28.9767838519        9.7335674458       75.4501725836  LPSA15    21             15.0000000000
     16278       525  BMANNA    H1             28.9366699919        8.8890296836       74.6495731600  LPSA15    21             15.0000000000
     16279       525  BMANNA    C5             27.8627382518       10.8321252259       73.6578092950  LPSA15    21             15.0000000000
     16280       525  BMANNA    H5             27.7258661583        9.8411023950       73.0422409194  LPSA15    21             15.0000000000
     16281       525  BMANNA    O5             29.0313204655       10.8897715333       74.5460975074  LPSA15    21             15.0000000000
     16282       525  BMANNA    C2             27.7678952682        9.7903043967       76.3268603500  LPSA15    21             15.0000000000
     16283       525  BMANNA    H2             27.8543710057        8.8453978731       76.8663433126  LPSA15    21             15.0000000000
     16284       525  BMANNA    N              27.8189534768       10.9124478164       77.2602735953  LPSA15    21             15.0000000000
     16285       525  BMANNA    HN             27.9806239375       11.7840344579       76.8630196157  LPSA15    21             15.0000000000
     16286       525  BMANNA    C              27.3872282316       10.8783990895       78.6142451918  LPSA15    21             15.0000000000
     16287       525  BMANNA    O              26.7521015473        9.9106802869       79.0340579138  LPSA15    21             15.0000000000
     16288       525  BMANNA    CT             27.6818523390       12.1003182999       79.5125915666  LPSA15    21             15.0000000000
     16289       525  BMANNA    HT1            26.9128790404       12.8801049547       79.3040814335  LPSA15    21             15.0000000000
     16290       525  BMANNA    HT2            28.7304676627       12.3838060803       79.3224353366  LPSA15    21             15.0000000000
     16291       525  BMANNA    HT3            27.5867509225       11.8141343790       80.6000991146  LPSA15    21             15.0000000000
     16292       525  BMANNA    C3             26.5711628221        9.7593647564       75.4428482744  LPSA15    21             15.0000000000
     16293       525  BMANNA    H3             26.6723812111        8.7743588015       75.0091666053  LPSA15    21             15.0000000000
     16294       525  BMANNA    O3             25.3564240594        9.7796307270       76.1769203835  LPSA15    21             15.0000000000
     16295       525  BMANNA    HO3            25.3787544344       10.5336866194       76.7354970047  LPSA15    21             15.0000000000
     16296       525  BMANNA    C4             26.5959509769       10.9240339486       74.4866217523  LPSA15    21             15.0000000000
     16297       525  BMANNA    H4             26.4895800430       11.9997841954       75.0002820064  LPSA15    21             15.0000000000
     16298       525  BMANNA    O4             25.5016313634       10.9212083003       73.6152290754  LPSA15    21             15.0000000000
     16299       525  BMANNA    HO4            24.9241181273       11.7011366469       73.7703874424  LPSA15    21             15.0000000000
     16300       525  BMANNA    C6             27.9173285059       11.8442194419       72.6348027846  LPSA15    21             15.0000000000
     16301       525  BMANNA    H61            27.1426892985       11.7221602391       71.8494922130  LPSA15    21             15.0000000000
     16302       525  BMANNA    H62            27.5554620245       12.8214854130       73.0558617198  LPSA15    21             15.0000000000
     16303       525  BMANNA    O6             29.1608900097       12.1222750311       72.0654385618  LPSA15    21             15.0000000000
     16304       525  BMANNA    HO6            29.7694460913       12.3126596994       72.7784055652  LPSA15    21             15.0000000000
     16305       526  BGLCNA    C1             30.9634394283        7.0465600927       79.2248726046  LPSA15    22             15.0000000000
     16306       526  BGLCNA    H1             32.0304788725        6.6800592598       79.2753119810  LPSA15    22             15.0000000000
     16307       526  BGLCNA    C5             30.4714377375        4.8651381642       80.1145289529  LPSA15    22             15.0000000000
     16308       526  BGLCNA    H5             31.6250057818        4.6691689563       80.0727605020  LPSA15    22             15.0000000000
     16309       526  BGLCNA    O5             30.2118039619        5.8769084946       79.0803056561  LPSA15    22             15.0000000000
     16310       526  BGLCNA    C2             30.6390291315        7.6647161671       80.5602818744  LPSA15    22             15.0000000000
     16311       526  BGLCNA    H2             29.5179159440        7.8880558187       80.4633107900  LPSA15    22             15.0000000000
     16312       526  BGLCNA    N              31.4124459964        8.8799500335       80.7025670875  LPSA15    22             15.0000000000
     16313       526  BGLCNA    HN             32.3543309958        8.8203255397       80.4501896382  LPSA15    22             15.0000000000
     16314       526  BGLCNA    C              31.0007503947        9.9626485624       81.3295640408  LPSA15    22             15.0000000000
     16315       526  BGLCNA    O              29.8691131703       10.0184676412       81.8448112003  LPSA15    22             15.0000000000
     16316       526  BGLCNA    CT             31.9511163937       11.1014069994       81.4359073222  LPSA15    22             15.0000000000
     16317       526  BGLCNA    HT1            31.7290499921       11.6620921697       80.5353412834  LPSA15    22             15.0000000000
     16318       526  BGLCNA    HT2            32.9755523625       10.6940357976       81.2752873926  LPSA15    22             15.0000000000
     16319       526  BGLCNA    HT3            31.9570467660       11.6262906803       82.3679651303  LPSA15    22             15.0000000000
     16320       526  BGLCNA    C3             30.8694087213        6.6820436366       81.6855161512  LPSA15    22             15.0000000000
     16321       526  BGLCNA    H3             31.9381017517        6.3532841639       81.6419517197  LPSA15    22             15.0000000000
     16322       526  BGLCNA    O3             30.6598319153        7.4127729328       82.8729300216  LPSA15    22             15.0000000000
     16323       526  BGLCNA    C4             30.0372541956        5.4139538510       81.4704242134  LPSA15    22             15.0000000000
     16324       526  BGLCNA    H4             29.0315818545        5.7384379187       81.4144045074  LPSA15    22             15.0000000000
     16325       526  BGLCNA    O4             30.1823455640        4.4761920551       82.5140850489  LPSA15    22             15.0000000000
     16326       526  BGLCNA    HO4            29.3118298458        4.0903574435       82.7130071916  LPSA15    22             15.0000000000
     16327       526  BGLCNA    C6             29.6780100270        3.6247609928       79.7284495560  LPSA15    22             15.0000000000
     16328       526  BGLCNA    H61            29.6234761222        3.0380344679       80.6924177192  LPSA15    22             15.0000000000
     16329       526  BGLCNA    H62            28.6295975880        3.8795186765       79.4648784538  LPSA15    22             15.0000000000
     16330       526  BGLCNA    O6             30.3065095824        2.7960024485       78.8100863794  LPSA15    22             15.0000000000
     16331       526  BGLCNA    HO6            30.4896286275        3.2987149463       78.0328486455  LPSA15    22             15.0000000000
     16332       527  AGAL      C1             31.1910493780        6.9544637351       84.0628261254  LPSA15    23             16.0000000000
     16333       527  AGAL      H1             30.6031448986        6.1060326710       84.5106287163  LPSA15    23             16.0000000000
     16334       527  AGAL      C5             33.4590665542        7.6132430588       83.7583018441  LPSA15    23             16.0000000000
     16335       527  AGAL      H5             33.0937945486        8.2017248392       82.8366412438  LPSA15    23             16.0000000000
     16336       527  AGAL      O5             32.5630039741        6.5520671392       83.9976212264  LPSA15    23             16.0000000000
     16337       527  AGAL      C2             31.0721094661        8.0136969487       85.1427633740  LPSA15    23             16.0000000000
     16338       527  AGAL      H2             31.4958373036        7.5567173779       86.0076373284  LPSA15    23             16.0000000000
     16339       527  AGAL      O2             29.7464824324        8.3237545776       85.5000844886  LPSA15    23             16.0000000000
     16340       527  AGAL      C3             31.9688034054        9.1820828468       84.9194901020  LPSA15    23             16.0000000000
     16341       527  AGAL      H3             31.7463765678        9.5301277662       83.8641570193  LPSA15    23             16.0000000000
     16342       527  AGAL      O3             31.7414316508       10.2894644201       85.7108298168  LPSA15    23             16.0000000000
     16343       527  AGAL      HO3            31.6572374198        9.9243867593       86.6206525111  LPSA15    23             16.0000000000
     16344       527  AGAL      C4             33.3783287455        8.6714643954       84.8901212015  LPSA15    23             16.0000000000
     16345       527  AGAL      H4             34.1191936985        9.4677167693       84.6506069022  LPSA15    23             16.0000000000
     16346       527  AGAL      O4             33.8875128337        8.1620558908       86.1132943683  LPSA15    23             16.0000000000
     16347       527  AGAL      HO4            34.4226521823        7.4923318210       85.8278371007  LPSA15    23             16.0000000000
     16348       527  AGAL      C6             34.8065137772        7.0984101028       83.3278962909  LPSA15    23             16.0000000000
     16349       527  AGAL      H61            34.6826859591        6.3330552286       82.6074235255  LPSA15    23             16.0000000000
     16350       527  AGAL      H62            35.3794217232        7.8387747242       82.7620574208  LPSA15    23             16.0000000000
     16351       527  AGAL      O6             35.4773766803        6.5297142952       84.3845202183  LPSA15    23             16.0000000000
     16352       527  AGAL      HO6            36.3163222803        6.1472982540       84.1740981585  LPSA15    23             16.0000000000
     16353       528  ARHM      C1             28.9070291774        7.4938649183       86.2818185944  LPSA15    24             17.0000000000
     16354       528  ARHM      H1             29.3881579868        6.5387519753       86.3680542693  LPSA15    24             17.0000000000
     16355       528  ARHM      C5             26.7803111938        8.3889002940       85.6157638072  LPSA15    24             17.0000000000
     16356       528  ARHM      H5             27.3068584428        9.0930613191       85.0070975499  LPSA15    24             17.0000000000
     16357       528  ARHM      O5             27.5222425928        7.1988183646       85.8657410059  LPSA15    24             17.0000000000
     16358       528  ARHM      C2             28.8796158322        8.2080181323       87.5921581840  LPSA15    24             17.0000000000
     16359       528  ARHM      H2             29.8570280226        8.5315156551       87.8984046741  LPSA15    24             17.0000000000
     16360       528  ARHM      O2             28.1818871495        7.4618560213       88.6075763533  LPSA15    24             17.0000000000
     16361       528  ARHM      C3             28.0459770422        9.4859838107       87.4133527752  LPSA15    24             17.0000000000
     16362       528  ARHM      H3             28.5848375918       10.0747831085       86.6640279609  LPSA15    24             17.0000000000
     16363       528  ARHM      O3             28.0548075539       10.3744245056       88.5620392964  LPSA15    24             17.0000000000
     16364       528  ARHM      HO3            27.3314217777       10.0605346426       89.1463757531  LPSA15    24             17.0000000000
     16365       528  ARHM      C4             26.6326186826        9.1734327270       86.9402325015  LPSA15    24             17.0000000000
     16366       528  ARHM      H4             26.1641674049        8.4362316082       87.7071552895  LPSA15    24             17.0000000000
     16367       528  ARHM      O4             25.7823724903       10.2950589054       86.8379508285  LPSA15    24             17.0000000000
     16368       528  ARHM      HO4            24.8743769299       10.1163253487       87.0219124236  LPSA15    24             17.0000000000
     16369       528  ARHM      C6             25.3849189794        8.1145780199       84.9175891319  LPSA15    24             17.0000000000
     16370       528  ARHM      H61            25.0814972641        9.0147082579       84.3853494017  LPSA15    24             17.0000000000
     16371       528  ARHM      H62            25.5563732572        7.3174677363       84.2649634992  LPSA15    24             17.0000000000
     16372       528  ARHM      H63            24.6318446855        7.7259519018       85.6811466487  LPSA15    24             17.0000000000
     16373       529  ARHM      C1             29.0202230932        6.4524002920       89.1588742089  LPSA15    25             18.0000000000
     16374       529  ARHM      H1             29.7956320199        6.2179867033       88.4722246341  LPSA15    25             18.0000000000
     16375       529  ARHM      C5             27.2432203364        5.2076104895       90.1670531641  LPSA15    25             18.0000000000
     16376       529  ARHM      H5             26.4894578668        5.8941069422       89.8870230824  LPSA15    25             18.0000000000
     16377       529  ARHM      O5             28.3434105507        5.1819796042       89.2315309535  LPSA15    25             18.0000000000
     16378       529  ARHM      C2             29.5301595414        6.9102024562       90.4685713243  LPSA15    25             18.0000000000
     16379       529  ARHM      H2             29.9378592043        7.9692461970       90.3413143991  LPSA15    25             18.0000000000
     16380       529  ARHM      O2             30.5802661524        6.0064615756       90.9328696740  LPSA15    25             18.0000000000
     16381       529  ARHM      C3             28.3189665132        6.8763751801       91.4562257518  LPSA15    25             18.0000000000
     16382       529  ARHM      H3             27.5690890177        7.6106513408       91.0689171631  LPSA15    25             18.0000000000
     16383       529  ARHM      O3             28.8163086422        7.3457270874       92.6920647463  LPSA15    25             18.0000000000
     16384       529  ARHM      C4             27.6983274340        5.5938282669       91.5960769721  LPSA15    25             18.0000000000
     16385       529  ARHM      H4             28.4675594341        4.7646374949       91.8876801091  LPSA15    25             18.0000000000
     16386       529  ARHM      O4             26.6789515537        5.7308661945       92.5862492282  LPSA15    25             18.0000000000
     16387       529  ARHM      HO4            26.6864327866        4.8941913085       93.0149361445  LPSA15    25             18.0000000000
     16388       529  ARHM      C6             26.4971403652        3.8748622629       90.2083352735  LPSA15    25             18.0000000000
     16389       529  ARHM      H61            26.2364749825        3.5101196238       89.1912344565  LPSA15    25             18.0000000000
     16390       529  ARHM      H62            27.0946964968        3.0421508883       90.6686969550  LPSA15    25             18.0000000000
     16391       529  ARHM      H63            25.5196098922        3.9157556915       90.8233913566  LPSA15    25             18.0000000000
     16392       530  BMANNA    C1             31.8278953427        6.2120134478       90.3138108879  LPSA15    26             19.0000000000
     16393       530  BMANNA    H1             31.9002798973        7.2344540696       89.8388342826  LPSA15    26             19.0000000000
     16394       530  BMANNA    C5             33.4136493867        5.6198058861       88.6312665858  LPSA15    26             19.0000000000
     16395       530  BMANNA    H5             33.3036795664        6.6049308453       88.1771240033  LPSA15    26             19.0000000000
     16396       530  BMANNA    O5             32.1548016107        5.2946066573       89.2346891933  LPSA15    26             19.0000000000
     16397       530  BMANNA    C2             32.8396019117        6.1186465526       91.3475147821  LPSA15    26             19.0000000000
     16398       530  BMANNA    H2             32.5441764082        6.9137462481       92.1081287357  LPSA15    26             19.0000000000
     16399       530  BMANNA    N              32.7940045526        4.7563454597       91.9238920796  LPSA15    26             19.0000000000
     16400       530  BMANNA    HN             32.8990136226        4.0311060432       91.3050515894  LPSA15    26             19.0000000000
     16401       530  BMANNA    C              32.7212440576        4.4813486452       93.1798471680  LPSA15    26             19.0000000000
     16402       530  BMANNA    O              32.4878550425        5.3863958186       94.0003587425  LPSA15    26             19.0000000000
     16403       530  BMANNA    CT             32.9428409235        3.0530512748       93.6758917343  LPSA15    26             19.0000000000
     16404       530  BMANNA    HT1            32.7561246776        2.4148615443       92.8666282051  LPSA15    26             19.0000000000
     16405       530  BMANNA    HT2            32.5223936376        2.6731159039       94.6620984389  LPSA15    26             19.0000000000
     16406       530  BMANNA    HT3            34.0235685206        2.9823396983       93.8484898219  LPSA15    26             19.0000000000
     16407       530  BMANNA    C3             34.1775490265        6.5039970882       90.7100883268  LPSA15    26             19.0000000000
     16408       530  BMANNA    H3             34.0876492876        7.5552065733       90.3384445889  LPSA15    26             19.0000000000
     16409       530  BMANNA    O3             35.1781926916        6.5323163447       91.7636866611  LPSA15    26             19.0000000000
     16410       530  BMANNA    HO3            34.9622932508        7.3330966821       92.2265744207  LPSA15    26             19.0000000000
     16411       530  BMANNA    C4             34.4623196456        5.5934643984       89.6481622736  LPSA15    26             19.0000000000
     16412       530  BMANNA    H4             34.5584885782        4.4980980038       89.9013799111  LPSA15    26             19.0000000000
     16413       530  BMANNA    O4             35.7134263005        5.8849920966       89.0416847738  LPSA15    26             19.0000000000
     16414       530  BMANNA    HO4            36.4021517612        5.4699577109       89.5591157304  LPSA15    26             19.0000000000
     16415       530  BMANNA    C6             33.5051173598        4.6816253300       87.3900617492  LPSA15    26             19.0000000000
     16416       530  BMANNA    H61            32.5185353329        4.5248087472       86.9191763972  LPSA15    26             19.0000000000
     16417       530  BMANNA    H62            34.1586109314        5.0650319635       86.6504270337  LPSA15    26             19.0000000000
     16418       530  BMANNA    O6             34.0151864756        3.3978048041       87.7329108337  LPSA15    26             19.0000000000
     16419       530  BMANNA    HO6            34.8367971751        3.4906610211       88.1688153196  LPSA15    26             19.0000000000
     16420       531  BGLCNA    C1             28.1939367763        8.2652822015       93.4616184899  LPSA15    27             19.0000000000
     16421       531  BGLCNA    H1             27.1184474645        8.1196629540       93.4392217979  LPSA15    27             19.0000000000
     16422       531  BGLCNA    C5             27.6832656059       10.5295802948       93.9656603721  LPSA15    27             19.0000000000
     16423       531  BGLCNA    H5             26.6067099453       10.2201815360       93.9564344452  LPSA15    27             19.0000000000
     16424       531  BGLCNA    O5             28.3529353173        9.6410316517       93.0607755266  LPSA15    27             19.0000000000
     16425       531  BGLCNA    C2             28.7221763882        8.0427199487       94.8806799918  LPSA15    27             19.0000000000
     16426       531  BGLCNA    H2             29.7900345430        8.3220033668       94.8757458582  LPSA15    27             19.0000000000
     16427       531  BGLCNA    N              28.5981490226        6.6451068508       95.2501113516  LPSA15    27             19.0000000000
     16428       531  BGLCNA    HN             27.6535571026        6.2081979403       95.0827132934  LPSA15    27             19.0000000000
     16429       531  BGLCNA    C              29.6713507227        6.1059815072       95.9523160909  LPSA15    27             19.0000000000
     16430       531  BGLCNA    O              30.5926350490        6.7643475346       96.5238801166  LPSA15    27             19.0000000000
     16431       531  BGLCNA    CT             29.6537202476        4.5478076494       96.0293745529  LPSA15    27             19.0000000000
     16432       531  BGLCNA    HT1            28.8513057790        4.1282123694       95.3635606282  LPSA15    27             19.0000000000
     16433       531  BGLCNA    HT2            29.5888540540        4.1478719976       97.0167906789  LPSA15    27             19.0000000000
     16434       531  BGLCNA    HT3            30.7091386817        4.1939977498       95.7039804309  LPSA15    27             19.0000000000
     16435       531  BGLCNA    C3             28.0218173815        8.9647348862       95.7540348103  LPSA15    27             19.0000000000
     16436       531  BGLCNA    H3             26.9153988376        8.8018941774       95.7401190096  LPSA15    27             19.0000000000
     16437       531  BGLCNA    O3             28.5694481284        8.6420182239       97.0775356047  LPSA15    27             19.0000000000
     16438       531  BGLCNA    C4             28.2169613602       10.4388076039       95.3486864533  LPSA15    27             19.0000000000
     16439       531  BGLCNA    H4             29.3063825511       10.6697709901       95.3090014479  LPSA15    27             19.0000000000
     16440       531  BGLCNA    O4             27.5711509561       11.2969797226       96.2156872787  LPSA15    27             19.0000000000
     16441       531  BGLCNA    HO4            26.6665670079       11.1610568530       96.0162444362  LPSA15    27             19.0000000000
     16442       531  BGLCNA    C6             27.7385023531       11.9397927106       93.2852949846  LPSA15    27             19.0000000000
     16443       531  BGLCNA    H61            27.0382045934       12.5569985245       93.8557506920  LPSA15    27             19.0000000000
     16444       531  BGLCNA    H62            28.7336268898       12.4077597967       93.4725180191  LPSA15    27             19.0000000000
     16445       531  BGLCNA    O6             27.4114477150       11.8661443856       91.9076175409  LPSA15    27             19.0000000000
     16446       531  BGLCNA    HO6            27.4869459629       12.7687327882       91.5273290588  LPSA15    27             19.0000000000
     16447       532  AGAL      C1             27.8679189694        9.0893672567       98.2622020222  LPSA15    28             20.0000000000
     16448       532  AGAL      H1             27.9478811828       10.1422320518       98.3007149491  LPSA15    28             20.0000000000
     16449       532  AGAL      C5             26.1527033758        7.3782253100       98.1710438288  LPSA15    28             20.0000000000
     16450       532  AGAL      H5             26.8815928450        6.7513930063       97.4646141937  LPSA15    28             20.0000000000
     16451       532  AGAL      O5             26.4739000299        8.8281123102       98.1147365872  LPSA15    28             20.0000000000
     16452       532  AGAL      C2             28.2867442781        8.4985235470       99.6197190629  LPSA15    28             20.0000000000
     16453       532  AGAL      H2             27.6020183013        9.0052478912      100.2965066153  LPSA15    28             20.0000000000
     16454       532  AGAL      O2             29.5936998743        8.8083563115      100.0788731798  LPSA15    28             20.0000000000
     16455       532  AGAL      C3             27.9815093582        7.0384826892       99.7396972452  LPSA15    28             20.0000000000
     16456       532  AGAL      H3             28.4741429511        6.5153554002       98.8607737785  LPSA15    28             20.0000000000
     16457       532  AGAL      O3             28.4337237256        6.3205193744      100.9043404272  LPSA15    28             20.0000000000
     16458       532  AGAL      HO3            29.0645288802        5.6583738680      100.5606486229  LPSA15    28             20.0000000000
     16459       532  AGAL      C4             26.5381851208        6.8299510776       99.5102226768  LPSA15    28             20.0000000000
     16460       532  AGAL      H4             26.3606259241        5.7814053796       99.4798298294  LPSA15    28             20.0000000000
     16461       532  AGAL      O4             25.7238125277        7.4146731646      100.4757933835  LPSA15    28             20.0000000000
     16462       532  AGAL      HO4            25.4585786995        6.7226904174      101.0376442747  LPSA15    28             20.0000000000
     16463       532  AGAL      C6             24.7661467435        7.0092909479       97.6362902244  LPSA15    28             20.0000000000
     16464       532  AGAL      H61            24.7115592996        7.2684855424       96.5809275898  LPSA15    28             20.0000000000
     16465       532  AGAL      H62            24.4335052146        5.9147851015       97.7651048223  LPSA15    28             20.0000000000
     16466       532  AGAL      O6             23.7787031441        7.7284305406       98.3456070822  LPSA15    28             20.0000000000
     16467       532  AGAL      HO6            23.6392850725        8.5859224701       97.9416813930  LPSA15    28             20.0000000000
     16468       533  ARHM      C1             29.5272131996        9.1605442050      101.4808913342  LPSA15    29             21.0000000000
     16469       533  ARHM      H1             28.6548042543        8.6428664198      101.9964955809  LPSA15    29             21.0000000000
     16470       533  ARHM      C5             30.4702573321       11.2850856032      101.1486206043  LPSA15    29             21.0000000000
     16471       533  ARHM      H5             30.5607711601       10.9581999176      100.0935446791  LPSA15    29             21.0000000000
     16472       533  ARHM      O5             29.4127814137       10.5406932631      101.6833506475  LPSA15    29             21.0000000000
     16473       533  ARHM      C2             30.7177035613        8.6251373592      102.1437305515  LPSA15    29             21.0000000000
     16474       533  ARHM      H2             30.8734461731        7.5926404786      101.9067628034  LPSA15    29             21.0000000000
     16475       533  ARHM      O2             30.6441669141        8.7482403809      103.5748524404  LPSA15    29             21.0000000000
     16476       533  ARHM      C3             31.9041833526        9.3895797696      101.6289418068  LPSA15    29             21.0000000000
     16477       533  ARHM      H3             32.0364988509        9.1600826108      100.4952263366  LPSA15    29             21.0000000000
     16478       533  ARHM      O3             33.0610915224        8.8408964594      102.1995749427  LPSA15    29             21.0000000000
     16479       533  ARHM      HO3            33.6622515882        9.5059112579      102.2092645043  LPSA15    29             21.0000000000
     16480       533  ARHM      C4             31.8063624420       10.8385927090      101.8247918557  LPSA15    29             21.0000000000
     16481       533  ARHM      H4             31.7855733155       11.1150692888      102.9338171738  LPSA15    29             21.0000000000
     16482       533  ARHM      O4             32.9006496884       11.6524763283      101.3452167393  LPSA15    29             21.0000000000
     16483       533  ARHM      HO4            33.2383783179       11.3906517480      100.4362974805  LPSA15    29             21.0000000000
     16484       533  ARHM      C6             30.0524565268       12.7647071517      101.2162231226  LPSA15    29             21.0000000000
     16485       533  ARHM      H61            28.9934376614       12.7475934024      100.7685423143  LPSA15    29             21.0000000000
     16486       533  ARHM      H62            29.9789009766       13.0692535794      102.3013153741  LPSA15    29             21.0000000000
     16487       533  ARHM      H63            30.7459944558       13.3546132481      100.6072571094  LPSA15    29             21.0000000000
     16488       534  ARHM      C1             30.2388642049        7.6984013605      104.3945976075  LPSA15    30             22.0000000000
     16489       534  ARHM      H1             30.9057913600        6.8278517507      104.2094096401  LPSA15    30             22.0000000000
     16490       534  ARHM      C5             27.9110992356        8.3991069569      104.5143062533  LPSA15    30             22.0000000000
     16491       534  ARHM      H5             28.3346238031        9.2599045867      103.8668162917  LPSA15    30             22.0000000000
     16492       534  ARHM      O5             28.8548820400        7.3352623001      104.2052433351  LPSA15    30             22.0000000000
     16493       534  ARHM      C2             30.4133458303        8.1034037020      105.8471183130  LPSA15    30             22.0000000000
     16494       534  ARHM      H2             31.3971186204        8.3919280188      106.0289718167  LPSA15    30             22.0000000000
     16495       534  ARHM      O2             29.9973852310        7.0024370436      106.5813641610  LPSA15    30             22.0000000000
     16496       534  ARHM      C3             29.4806534297        9.1616073851      106.2079894766  LPSA15    30             22.0000000000
     16497       534  ARHM      H3             29.5963073693        9.9607257342      105.5270001340  LPSA15    30             22.0000000000
     16498       534  ARHM      O3             29.7026317133        9.7107960404      107.5373891676  LPSA15    30             22.0000000000
     16499       534  ARHM      C4             28.0209849666        8.7603303749      105.9708288384  LPSA15    30             22.0000000000
     16500       534  ARHM      H4             27.7220747719        7.8777314202      106.5400372406  LPSA15    30             22.0000000000
     16501       534  ARHM      O4             27.0876563355        9.6908730279      106.2997755749  LPSA15    30             22.0000000000
     16502       534  ARHM      HO4            26.9053760475       10.4228498679      105.6964454668  LPSA15    30             22.0000000000
     16503       534  ARHM      C6             26.5224957744        7.9997118224      104.0930490251  LPSA15    30             22.0000000000
     16504       534  ARHM      H61            25.8699277358        8.9086568244      104.2143179997  LPSA15    30             22.0000000000
     16505       534  ARHM      H62            26.5139712569        7.8454861712      103.0019050467  LPSA15    30             22.0000000000
     16506       534  ARHM      H63            26.1141978195        7.0973209475      104.6493652223  LPSA15    30             22.0000000000
     16507       535  BMANNA    C1             31.0054154180        6.0876493907      106.9502319096  LPSA15    31             23.0000000000
     16508       535  BMANNA    H1             31.9316481318        6.6699691023      107.1550799008  LPSA15    31             23.0000000000
     16509       535  BMANNA    C5             32.3857855343        4.2267363791      106.2136717625  LPSA15    31             23.0000000000
     16510       535  BMANNA    H5             33.2092056897        4.8742924643      106.5467054000  LPSA15    31             23.0000000000
     16511       535  BMANNA    O5             31.2957969657        5.1329555979      105.8742289322  LPSA15    31             23.0000000000
     16512       535  BMANNA    C2             30.5797986859        5.3256016831      108.0830629221  LPSA15    31             23.0000000000
     16513       535  BMANNA    H2             30.4798943953        6.0621074563      108.9031915743  LPSA15    31             23.0000000000
     16514       535  BMANNA    N              29.2932090418        4.7773387816      107.8252935315  LPSA15    31             23.0000000000
     16515       535  BMANNA    HN             29.0377031993        4.6211617929      106.8111160773  LPSA15    31             23.0000000000
     16516       535  BMANNA    C              28.4057247252        4.5101710367      108.7868858964  LPSA15    31             23.0000000000
     16517       535  BMANNA    O              28.6128543913        4.7915575854      109.9536662434  LPSA15    31             23.0000000000
     16518       535  BMANNA    CT             27.1014806684        3.8431147571      108.3237946568  LPSA15    31             23.0000000000
     16519       535  BMANNA    HT1            27.3444179319        3.1340397186      107.5739831696  LPSA15    31             23.0000000000
     16520       535  BMANNA    HT2            26.4466664295        4.6303422214      107.9347099034  LPSA15    31             23.0000000000
     16521       535  BMANNA    HT3            26.5407518794        3.4296849743      109.1768357935  LPSA15    31             23.0000000000
     16522       535  BMANNA    C3             31.6683454078        4.3865534901      108.4884560283  LPSA15    31             23.0000000000
     16523       535  BMANNA    H3             32.6584836794        4.9400872824      108.6988550870  LPSA15    31             23.0000000000
     16524       535  BMANNA    O3             31.3897230512        3.7589983890      109.7404994872  LPSA15    31             23.0000000000
     16525       535  BMANNA    HO3            30.7368841618        4.3778166809      110.0111610137  LPSA15    31             23.0000000000
     16526       535  BMANNA    C4             31.9289885150        3.4026132857      107.4199857710  LPSA15    31             23.0000000000
     16527       535  BMANNA    H4             31.0036261365        2.7478410455      107.0572414185  LPSA15    31             23.0000000000
     16528       535  BMANNA    O4             32.9093513438        2.4707708494      107.8525671122  LPSA15    31             23.0000000000
     16529       535  BMANNA    HO4            33.7187021231        2.9126810883      108.1943429300  LPSA15    31             23.0000000000
     16530       535  BMANNA    C6             32.7957492195        3.3076947927      105.0512686782  LPSA15    31             23.0000000000
     16531       535  BMANNA    H61            33.7959984509        2.7893864271      105.3397811046  LPSA15    31             23.0000000000
     16532       535  BMANNA    H62            32.0772126520        2.5135663824      104.8698551944  LPSA15    31             23.0000000000
     16533       535  BMANNA    O6             32.9755024717        4.0415978236      103.8241467834  LPSA15    31             23.0000000000
     16534       535  BMANNA    HO6            33.7852099697        4.6269299663      103.8134147631  LPSA15    31             23.0000000000
     16535       536  BGLCNA    C1             29.1771828635        9.0026207856      108.6103969990  LPSA15    32             23.0000000000
     16536       536  BGLCNA    H1             29.2192995012        7.8809499446      108.4325564695  LPSA15    32             23.0000000000
     16537       536  BGLCNA    C5             27.2179146723        8.4836137050      109.9277617404  LPSA15    32             23.0000000000
     16538       536  BGLCNA    H5             27.3457695727        7.4095736600      109.5374749077  LPSA15    32             23.0000000000
     16539       536  BGLCNA    O5             27.8255179024        9.3230323529      108.9423333575  LPSA15    32             23.0000000000
     16540       536  BGLCNA    C2             29.9793404244        9.2125643382      109.8194522937  LPSA15    32             23.0000000000
     16541       536  BGLCNA    H2             29.7689468761       10.2161053372      110.1044894257  LPSA15    32             23.0000000000
     16542       536  BGLCNA    N              31.3744059990        9.0390822748      109.5956973249  LPSA15    32             23.0000000000
     16543       536  BGLCNA    HN             31.5080909919        8.3231094641      108.8809076996  LPSA15    32             23.0000000000
     16544       536  BGLCNA    C              32.4218400440        9.7395291825      110.0864625708  LPSA15    32             23.0000000000
     16545       536  BGLCNA    O              32.2839128621       10.6251657148      110.9304085025  LPSA15    32             23.0000000000
     16546       536  BGLCNA    CT             33.8297665609        9.3500521407      109.5841031968  LPSA15    32             23.0000000000
     16547       536  BGLCNA    HT1            33.5363626886        8.7392561374      108.6281101354  LPSA15    32             23.0000000000
     16548       536  BGLCNA    HT2            34.3843554493        8.6784075488      110.1898124037  LPSA15    32             23.0000000000
     16549       536  BGLCNA    HT3            34.4523313632       10.2371070477      109.3122359934  LPSA15    32             23.0000000000
     16550       536  BGLCNA    C3             29.4682046036        8.2982901004      110.8930231790  LPSA15    32             23.0000000000
     16551       536  BGLCNA    H3             29.4576750653        7.3389807819      110.4606187373  LPSA15    32             23.0000000000
     16552       536  BGLCNA    O3             30.2964710006        8.2383453255      112.0657798240  LPSA15    32             23.0000000000
     16553       536  BGLCNA    C4             28.0429921302        8.6913861088      111.1707572500  LPSA15    32             23.0000000000
     16554       536  BGLCNA    H4             28.0579771888        9.7556868106      111.5318289610  LPSA15    32             23.0000000000
     16555       536  BGLCNA    O4             27.4871673721        7.9255146950      112.2070236435  LPSA15    32             23.0000000000
     16556       536  BGLCNA    HO4            27.6147621750        8.3356083665      113.0745323218  LPSA15    32             23.0000000000
     16557       536  BGLCNA    C6             25.7373375042        8.7874996655      110.0229508171  LPSA15    32             23.0000000000
     16558       536  BGLCNA    H61            25.1988561762        8.0443255183      110.7194343748  LPSA15    32             23.0000000000
     16559       536  BGLCNA    H62            25.5937823728        9.8014889496      110.5717638480  LPSA15    32             23.0000000000
     16560       536  BGLCNA    O6             25.0880283448        8.7030093258      108.7709294272  LPSA15    32             23.0000000000
     16561       536  BGLCNA    HO6            25.4832855060        7.9681550173      108.2360311317  LPSA15    32             23.0000000000
     16562       537  AGAL      C1             30.3853657068        6.9268494928      112.6842874521  LPSA15    33             24.0000000000
     16563       537  AGAL      H1             29.3926648330        6.4782624963      112.5979959475  LPSA15    33             24.0000000000
     16564       537  AGAL      C5             32.6933309375        6.6339837217      112.2149219831  LPSA15    33             24.0000000000
     16565       537  AGAL      H5             32.5935090328        7.6815939502      111.8792915250  LPSA15    33             24.0000000000
     16566       537  AGAL      O5             31.4041690823        6.0743256960      112.0726784748  LPSA15    33             24.0000000000
     16567       537  AGAL      C2             30.7607816460        7.1456172375      114.1482787662  LPSA15    33             24.0000000000
     16568       537  AGAL      H2             30.9227140204        6.0813204505      114.5751854976  LPSA15    33             24.0000000000
     16569       537  AGAL      O2             29.6308924428        7.6311746371      114.8486222260  LPSA15    33             24.0000000000
     16570       537  AGAL      C3             32.1497287348        7.7157830243      114.2945545625  LPSA15    33             24.0000000000
     16571       537  AGAL      H3             32.2293922199        8.7129035060      113.7405815065  LPSA15    33             24.0000000000
     16572       537  AGAL      O3             32.4695419246        8.1010239481      115.5672660328  LPSA15    33             24.0000000000
     16573       537  AGAL      HO3            32.3531732482        7.4638242330      116.2400186851  LPSA15    33             24.0000000000
     16574       537  AGAL      C4             33.1746811324        6.7968561390      113.6708488317  LPSA15    33             24.0000000000
     16575       537  AGAL      H4             34.1722634917        7.2525734656      113.6729875792  LPSA15    33             24.0000000000
     16576       537  AGAL      O4             33.3542163389        5.4810571985      114.2435538900  LPSA15    33             24.0000000000
     16577       537  AGAL      HO4            32.7085949878        5.2728592514      114.9085525172  LPSA15    33             24.0000000000
     16578       537  AGAL      C6             33.7001441283        5.9790288102      111.2992528405  LPSA15    33             24.0000000000
     16579       537  AGAL      H61            33.3197061515        6.1854870976      110.2783408757  LPSA15    33             24.0000000000
     16580       537  AGAL      H62            34.7381258068        6.3592491463      111.3458027743  LPSA15    33             24.0000000000
     16581       537  AGAL      O6             33.8904924143        4.6036625049      111.4129476537  LPSA15    33             24.0000000000
     16582       537  AGAL      HO6            33.2769221253        4.0725808804      110.8444757795  LPSA15    33             24.0000000000
     16583       538  ARHM      C1             29.3188240571        6.9336709657      116.0109133884  LPSA15    34             25.0000000000
     16584       538  ARHM      H1             30.2054693855        6.7413319290      116.6389743656  LPSA15    34             25.0000000000
     16585       538  ARHM      C5             27.5138048455        5.6259164538      115.0727799907  LPSA15    34             25.0000000000
     16586       538  ARHM      H5             27.7710595101        6.0323082049      114.0209633333  LPSA15    34             25.0000000000
     16587       538  ARHM      O5             28.7364156293        5.6195227151      115.8926868953  LPSA15    34             25.0000000000
     16588       538  ARHM      C2             28.3917200422        7.8493253205      116.7601555753  LPSA15    34             25.0000000000
     16589       538  ARHM      H2             28.7362167746        8.9133060575      116.8710959342  LPSA15    34             25.0000000000
     16590       538  ARHM      O2             28.0700585125        7.4110524433      118.1592972339  LPSA15    34             25.0000000000
     16591       538  ARHM      C3             27.0758572585        7.9184146218      115.9988665506  LPSA15    34             25.0000000000
     16592       538  ARHM      H3             27.2277387512        8.2851331596      114.9724172480  LPSA15    34             25.0000000000
     16593       538  ARHM      O3             26.0502356765        8.7544580684      116.5878695042  LPSA15    34             25.0000000000
     16594       538  ARHM      HO3            25.5366697187        9.2476199414      115.9559434517  LPSA15    34             25.0000000000
     16595       538  ARHM      C4             26.4411018164        6.5151777340      115.7987835878  LPSA15    34             25.0000000000
     16596       538  ARHM      H4             26.3187420223        5.9705574508      116.7495315617  LPSA15    34             25.0000000000
     16597       538  ARHM      O4             25.2310716060        6.5550336363      115.1362621200  LPSA15    34             25.0000000000
     16598       538  ARHM      HO4            24.5154437731        6.8488558965      115.6953140327  LPSA15    34             25.0000000000
     16599       538  ARHM      C6             26.9626042250        4.1733296834      114.8413279703  LPSA15    34             25.0000000000
     16600       538  ARHM      H61            26.6342194851        3.6534713059      115.7172490283  LPSA15    34             25.0000000000
     16601       538  ARHM      H62            25.9559957449        4.2780872969      114.3996926230  LPSA15    34             25.0000000000
     16602       538  ARHM      H63            27.5433405801        3.5253439378      114.1590834060  LPSA15    34             25.0000000000
     16603       539  ARHM      C1             29.1691214771        7.2505363619      119.0795908573  LPSA15    35             26.0000000000
     16604       539  ARHM      H1             29.9392401060        8.1061611463      118.8787348947  LPSA15    35             26.0000000000
     16605       539  ARHM      C5             28.9519840884        4.8363344496      119.2408916176  LPSA15    35             26.0000000000
     16606       539  ARHM      H5             28.0335089969        4.8444071576      118.5254732223  LPSA15    35             26.0000000000
     16607       539  ARHM      O5             29.8762936646        5.9478226839      118.9290334222  LPSA15    35             26.0000000000
     16608       539  ARHM      C2             28.6698322182        7.3932156794      120.5365485050  LPSA15    35             26.0000000000
     16609       539  ARHM      H2             28.2377170541        8.4190250813      120.7134209997  LPSA15    35             26.0000000000
     16610       539  ARHM      O2             29.7277891331        7.2673719918      121.4126203716  LPSA15    35             26.0000000000
     16611       539  ARHM      C3             27.6545494505        6.2777249272      120.8720061906  LPSA15    35             26.0000000000
     16612       539  ARHM      H3             26.7968527697        6.4113250906      120.1344793452  LPSA15    35             26.0000000000
     16613       539  ARHM      O3             27.0901607315        6.4591652291      122.1540075829  LPSA15    35             26.0000000000
     16614       539  ARHM      HO3            27.7556455374        6.8434674649      122.7288731339  LPSA15    35             26.0000000000
     16615       539  ARHM      C4             28.3576478818        4.9622389222      120.6788917534  LPSA15    35             26.0000000000
     16616       539  ARHM      H4             29.2645661567        4.8280090649      121.3307119103  LPSA15    35             26.0000000000
     16617       539  ARHM      O4             27.3851174904        3.9346027216      120.9693790153  LPSA15    35             26.0000000000
     16618       539  ARHM      HO4            26.5034603226        4.0928335471      120.5581709812  LPSA15    35             26.0000000000
     16619       539  ARHM      C6             29.6307149920        3.4745216103      118.8642347863  LPSA15    35             26.0000000000
     16620       539  ARHM      H61            29.7963137233        3.3976461194      117.7433556958  LPSA15    35             26.0000000000
     16621       539  ARHM      H62            30.5556610473        3.5242101461      119.4176110492  LPSA15    35             26.0000000000
     16622       539  ARHM      H63            28.8701880988        2.6656975375      119.0633705917  LPSA15    35             26.0000000000
     16623       540  BMANNA    C1             30.6382329997        8.3248377771      121.4471464502  LPSA15    36             27.0000000000
     16624       540  BMANNA    H1             30.1709044295        9.2759348717      121.0972061898  LPSA15    36             27.0000000000
     16625       540  BMANNA    C5             32.6486884627        9.4642192951      120.7299884793  LPSA15    36             27.0000000000
     16626       540  BMANNA    H5             32.0042996735       10.2994463608      120.4610684421  LPSA15    36             27.0000000000
     16627       540  BMANNA    O5             31.8611191878        8.2326966881      120.6641532654  LPSA15    36             27.0000000000
     16628       540  BMANNA    C2             31.0557422028        8.5509543444      122.8920138725  LPSA15    36             27.0000000000
     16629       540  BMANNA    H2             30.1279584407        8.7132067384      123.4719477421  LPSA15    36             27.0000000000
     16630       540  BMANNA    N              31.7121755809        7.3641586411      123.4395449790  LPSA15    36             27.0000000000
     16631       540  BMANNA    HN             32.3759269147        6.8645008615      122.8746519580  LPSA15    36             27.0000000000
     16632       540  BMANNA    C              31.6768801743        7.1007462530      124.7737151700  LPSA15    36             27.0000000000
     16633       540  BMANNA    O              30.9961204569        7.6904260980      125.6190347561  LPSA15    36             27.0000000000
     16634       540  BMANNA    CT             32.5628398554        6.0353793983      125.3570716528  LPSA15    36             27.0000000000
     16635       540  BMANNA    HT1            33.5476919880        6.0552509422      124.8802869227  LPSA15    36             27.0000000000
     16636       540  BMANNA    HT2            32.1893702033        4.9886599088      125.1731404614  LPSA15    36             27.0000000000
     16637       540  BMANNA    HT3            32.6795978008        6.0483274023      126.4547536948  LPSA15    36             27.0000000000
     16638       540  BMANNA    C3             31.9122188750        9.7882326008      122.9763638711  LPSA15    36             27.0000000000
     16639       540  BMANNA    H3             31.3497771509       10.6686769359      122.6403873786  LPSA15    36             27.0000000000
     16640       540  BMANNA    O3             32.2993958836       10.0935430873      124.3414054450  LPSA15    36             27.0000000000
     16641       540  BMANNA    HO3            31.9742386765       10.9048862308      124.7171830083  LPSA15    36             27.0000000000
     16642       540  BMANNA    C4             33.1145478403        9.6833713310      122.1146940524  LPSA15    36             27.0000000000
     16643       540  BMANNA    H4             33.7679191715        8.8992772367      122.4263894750  LPSA15    36             27.0000000000
     16644       540  BMANNA    O4             33.9321066097       10.8474271497      122.2172873890  LPSA15    36             27.0000000000
     16645       540  BMANNA    HO4            34.0610100271       10.8211282944      123.1985163392  LPSA15    36             27.0000000000
     16646       540  BMANNA    C6             33.7418645216        9.3858687978      119.7412642597  LPSA15    36             27.0000000000
     16647       540  BMANNA    H61            33.3519282801        9.3033729064      118.6946701192  LPSA15    36             27.0000000000
     16648       540  BMANNA    H62            34.1721556279       10.3914779290      119.7045442506  LPSA15    36             27.0000000000
     16649       540  BMANNA    O6             34.7443500363        8.3649869775      120.0914698020  LPSA15    36             27.0000000000
     16650       540  BMANNA    HO6            35.3903661695        8.8154818010      120.6476247167  LPSA15    36             27.0000000000
     16651       541  ECLIPA    HB6S          -24.6937276990       14.9727289889       20.4612168218  LPSA16    1               0.0000000000
     16652       541  ECLIPA    OB6           -25.2042010173       13.4787804125       21.7140249152  LPSA16    1               0.0000000000
     16653       541  ECLIPA    CB6           -24.2834417585       14.0298158661       20.7042159014  LPSA16    1               0.0000000000
     16654       541  ECLIPA    HB6R          -23.2676280987       14.0051535514       21.0541931349  LPSA16    1               0.0000000000
     16655       541  ECLIPA    CB5           -24.2130590030       13.1310115346       19.3988764877  LPSA16    1               0.0000000000
     16656       541  ECLIPA    OB5           -25.6280645677       12.9967825550       18.9716901872  LPSA16    1               0.0000000000
     16657       541  ECLIPA    HB5           -23.8735218625       12.1485752351       19.7771798410  LPSA16    1               0.0000000000
     16658       541  ECLIPA    CB1           -25.7049036017       12.1924945901       17.7717324898  LPSA16    1               0.0000000000
     16659       541  ECLIPA    HB1           -25.3039621115       11.1631250967       17.9003641080  LPSA16    1               0.0000000000
     16660       541  ECLIPA    OA6           -27.0239584877       12.1137477250       17.3217246577  LPSA16    1               0.0000000000
     16661       541  ECLIPA    CA6           -27.9291603506       13.2094330409       17.5745106853  LPSA16    1               0.0000000000
     16662       541  ECLIPA    HA6R          -27.3282934233       14.1296002436       17.7226451425  LPSA16    1               0.0000000000
     16663       541  ECLIPA    HA6S          -28.6158562421       12.8993826767       18.4598965841  LPSA16    1               0.0000000000
     16664       541  ECLIPA    CB4           -23.3048272304       13.7538508255       18.3206521937  LPSA16    1               0.0000000000
     16665       541  ECLIPA    HB4           -23.6727684586       14.7538652570       18.0085584641  LPSA16    1               0.0000000000
     16666       541  ECLIPA    OB4           -21.9885891516       13.6265154633       18.9017319965  LPSA16    1               0.0000000000
     16667       541  ECLIPA    PB            -21.1772712271       14.9515550324       19.3234616795  LPSA16    1               0.0000000000
     16668       541  ECLIPA    OPB4          -20.3303602551       14.5903518481       20.5579515876  LPSA16    1               0.0000000000
     16669       541  ECLIPA    OPB3          -22.3408893792       15.9150721496       19.6614545037  LPSA16    1               0.0000000000
     16670       541  ECLIPA    OPB2          -20.4064863352       15.4270669347       18.0829495795  LPSA16    1               0.0000000000
     16671       541  ECLIPA    CB3           -23.4416140332       12.8704576132       17.0955893951  LPSA16    1               0.0000000000
     16672       541  ECLIPA    OB3           -22.7482847948       13.3215556211       15.9186528231  LPSA16    1               0.0000000000
     16673       541  ECLIPA    HB3           -23.2521589179       11.7784771736       17.3284540628  LPSA16    1               0.0000000000
     16674       541  ECLIPA    C71           -21.5569974394       12.8777857374       15.6929469039  LPSA16    1               0.0000000000
     16675       541  ECLIPA    O71           -20.9958651954       11.9955269645       16.3832172580  LPSA16    1               0.0000000000
     16676       541  ECLIPA    C72           -21.0710260282       13.4939884435       14.3548430386  LPSA16    1               0.0000000000
     16677       541  ECLIPA    H72R          -21.7861716962       13.2304512600       13.5774555414  LPSA16    1               0.0000000000
     16678       541  ECLIPA    H72S          -19.9753814577       13.1381546244       14.1464415926  LPSA16    1               0.0000000000
     16679       541  ECLIPA    CB2           -24.9231822322       12.8239680766       16.6720734084  LPSA16    1               0.0000000000
     16680       541  ECLIPA    HB2           -25.2529730207       13.9501125879       16.5298168153  LPSA16    1               0.0000000000
     16681       541  ECLIPA    NB2           -25.1502382606       12.0116042138       15.4577284722  LPSA16    1               0.0000000000
     16682       541  ECLIPA    HNB2          -25.2623536658       11.0286377824       15.5965609326  LPSA16    1               0.0000000000
     16683       541  ECLIPA    CA4           -29.3064348373       12.1175220066       15.7929312798  LPSA16    1               0.0000000000
     16684       541  ECLIPA    HA4           -28.4429778663       11.4718203653       15.4903430209  LPSA16    1               0.0000000000
     16685       541  ECLIPA    OA4           -30.0370206702       11.4870225278       16.8012065728  LPSA16    1               0.0000000000
     16686       541  ECLIPA    HOA4          -29.5817106489       11.4532437422       17.5928838569  LPSA16    1               0.0000000000
     16687       541  ECLIPA    CA5           -28.7950689449       13.3776770351       16.3547806008  LPSA16    1               0.0000000000
     16688       541  ECLIPA    HA5           -29.5722795844       14.2172780538       16.5880746347  LPSA16    1               0.0000000000
     16689       541  ECLIPA    OA5           -27.9434276104       13.9777754614       15.3689671688  LPSA16    1               0.0000000000
     16690       541  ECLIPA    CA1           -28.6624440138       14.2203828322       14.1076640156  LPSA16    1               0.0000000000
     16691       541  ECLIPA    HA1           -27.7889479255       14.3555165783       13.4118188108  LPSA16    1               0.0000000000
     16692       541  ECLIPA    OA1           -29.4419088463       15.3999984154       14.1359876212  LPSA16    1               0.0000000000
     16693       541  ECLIPA    OPA2          -29.6464359281       16.9488384902       15.9734101064  LPSA16    1               0.0000000000
     16694       541  ECLIPA    OPA3          -27.3785398439       16.7266175204       14.8300177673  LPSA16    1               0.0000000000
     16695       541  ECLIPA    OPA4          -29.2337851708       17.8249946106       13.6615320840  LPSA16    1               0.0000000000
     16696       541  ECLIPA    PA            -28.8707959662       16.7643771635       14.6765383084  LPSA16    1               0.0000000000
     16697       541  ECLIPA    CA3           -30.1228576251       12.3030347692       14.5219348229  LPSA16    1               0.0000000000
     16698       541  ECLIPA    HA3           -31.0818830594       12.9187588675       14.7377032538  LPSA16    1               0.0000000000
     16699       541  ECLIPA    OA3           -30.6390847806       11.0127149898       14.2498111976  LPSA16    1               0.0000000000
     16700       541  ECLIPA    C31           -29.8407967699       10.1869782835       13.5006246295  LPSA16    1               0.0000000000
     16701       541  ECLIPA    O31           -29.6808916531       10.2335914105       12.2941239937  LPSA16    1               0.0000000000
     16702       541  ECLIPA    C32           -29.6047631051        8.8839717606       14.2780289507  LPSA16    1               0.0000000000
     16703       541  ECLIPA    H32R          -30.0733346552        8.0548131055       13.7149713840  LPSA16    1               0.0000000000
     16704       541  ECLIPA    H32S          -30.0358268378        8.9620211750       15.2729523512  LPSA16    1               0.0000000000
     16705       541  ECLIPA    CA2           -29.2099549062       12.9506896815       13.4984733916  LPSA16    1               0.0000000000
     16706       541  ECLIPA    HA2           -28.3294283751       12.3107685488       13.3982259915  LPSA16    1               0.0000000000
     16707       541  ECLIPA    NA2           -29.8699974252       13.2204064805       12.2035087571  LPSA16    1               0.0000000000
     16708       541  ECLIPA    HNA2          -30.7502878158       12.8282719184       12.0865030408  LPSA16    1               0.0000000000
     16709       541  ECLIPA    C73           -20.9766372790       14.9976576986       14.3319064372  LPSA16    1               0.0000000000
     16710       541  ECLIPA    H73R          -20.5140398518       15.4060924910       15.2227416964  LPSA16    1               0.0000000000
     16711       541  ECLIPA    O73           -22.3368547251       15.4932735663       14.2644256719  LPSA16    1               0.0000000000
     16712       541  ECLIPA    C81           -22.7647512056       16.6212891103       14.8555734565  LPSA16    1               0.0000000000
     16713       541  ECLIPA    O81           -21.9908151556       17.2169651010       15.6690894779  LPSA16    1               0.0000000000
     16714       541  ECLIPA    C82           -24.1611192594       17.0383287986       14.3536111794  LPSA16    1               0.0000000000
     16715       541  ECLIPA    H82R          -24.5139765979       17.9349488977       14.8531840528  LPSA16    1               0.0000000000
     16716       541  ECLIPA    H82S          -24.9152076165       16.2376552478       14.5323473422  LPSA16    1               0.0000000000
     16717       541  ECLIPA    C83           -24.1199981715       17.2842201156       12.8301722806  LPSA16    1               0.0000000000
     16718       541  ECLIPA    H83R          -24.1984424960       16.2981142408       12.2351841548  LPSA16    1               0.0000000000
     16719       541  ECLIPA    H83S          -23.1141016706       17.6338862776       12.5911296392  LPSA16    1               0.0000000000
     16720       541  ECLIPA    C84           -25.2881332104       18.1438048639       12.3050927261  LPSA16    1               0.0000000000
     16721       541  ECLIPA    H84R          -25.0962292893       19.1890796371       12.5767117503  LPSA16    1               0.0000000000
     16722       541  ECLIPA    H84S          -26.1559360412       17.6927364030       12.7369555497  LPSA16    1               0.0000000000
     16723       541  ECLIPA    C85           -25.4247833785       18.0227498143       10.7695484051  LPSA16    1               0.0000000000
     16724       541  ECLIPA    H85R          -25.3036484515       16.9540369257       10.5503608829  LPSA16    1               0.0000000000
     16725       541  ECLIPA    H85S          -24.5671509346       18.5359203497       10.2367999955  LPSA16    1               0.0000000000
     16726       541  ECLIPA    C86           -26.8502623442       18.4296045714       10.3034592726  LPSA16    1               0.0000000000
     16727       541  ECLIPA    H86R          -26.9317729585       19.5240228166        9.9932223571  LPSA16    1               0.0000000000
     16728       541  ECLIPA    H86S          -27.5779833988       18.2893609187       11.0807540114  LPSA16    1               0.0000000000
     16729       541  ECLIPA    C87           -27.3892500055       17.5028055981        9.1601018854  LPSA16    1               0.0000000000
     16730       541  ECLIPA    H87R          -28.3588340926       17.8366799827        8.8049419625  LPSA16    1               0.0000000000
     16731       541  ECLIPA    H87S          -27.5630253966       16.4600516013        9.5406723883  LPSA16    1               0.0000000000
     16732       541  ECLIPA    C88           -26.3975104506       17.3617689134        8.0318999685  LPSA16    1               0.0000000000
     16733       541  ECLIPA    H88R          -25.5394684141       16.6826738014        8.3479828359  LPSA16    1               0.0000000000
     16734       541  ECLIPA    H88S          -25.8140634573       18.3222193411        7.9254521495  LPSA16    1               0.0000000000
     16735       541  ECLIPA    C89           -26.9868816730       16.7687335796        6.7101000712  LPSA16    1               0.0000000000
     16736       541  ECLIPA    H89R          -27.9573085550       16.2527161039        6.8746682686  LPSA16    1               0.0000000000
     16737       541  ECLIPA    H89S          -26.3657382590       16.0360236257        6.2317001698  LPSA16    1               0.0000000000
     16738       541  ECLIPA    C810          -27.1554345505       17.9217368420        5.7047246593  LPSA16    1               0.0000000000
     16739       541  ECLIPA    H810R         -26.3394975630       18.6016114849        6.0108430704  LPSA16    1               0.0000000000
     16740       541  ECLIPA    H810S         -28.1112789567       18.3854676736        5.8554647029  LPSA16    1               0.0000000000
     16741       541  ECLIPA    C811          -27.0400225296       17.5429950647        4.2179945741  LPSA16    1               0.0000000000
     16742       541  ECLIPA    H811R         -27.4492140796       18.2074856156        3.5081125689  LPSA16    1               0.0000000000
     16743       541  ECLIPA    H811S         -27.4954486419       16.4840319400        4.1819101877  LPSA16    1               0.0000000000
     16744       541  ECLIPA    C812          -25.6195469018       17.2024538386        3.7413673409  LPSA16    1               0.0000000000
     16745       541  ECLIPA    H812R         -25.7191479310       16.7822009022        2.6403157337  LPSA16    1               0.0000000000
     16746       541  ECLIPA    H812S         -25.0694220151       16.5567764732        4.4144737196  LPSA16    1               0.0000000000
     16747       541  ECLIPA    C813          -24.6641405500       18.4083992672        3.6785234959  LPSA16    1               0.0000000000
     16748       541  ECLIPA    H813R         -25.1036926221       19.1197952601        2.9398073555  LPSA16    1               0.0000000000
     16749       541  ECLIPA    H813S         -24.5292463263       18.9961146437        4.6616087352  LPSA16    1               0.0000000000
     16750       541  ECLIPA    C814          -23.2907367744       18.0679213707        3.1377409857  LPSA16    1               0.0000000000
     16751       541  ECLIPA    H814R         -23.2633554773       17.4056238157        2.1719074593  LPSA16    1               0.0000000000
     16752       541  ECLIPA    H814S         -22.7161861269       17.5484737701        3.9166242729  LPSA16    1               0.0000000000
     16753       541  ECLIPA    H814T         -22.7200011669       18.9934567323        2.8964685373  LPSA16    1               0.0000000000
     16754       541  ECLIPA    C74           -20.2728555348       15.6741394322       13.1792855021  LPSA16    1               0.0000000000
     16755       541  ECLIPA    H74R          -19.2199151774       15.4696648574       12.9935747315  LPSA16    1               0.0000000000
     16756       541  ECLIPA    H74S          -20.3613239716       16.8234036688       13.3086690609  LPSA16    1               0.0000000000
     16757       541  ECLIPA    C75           -21.0557995875       15.4409911619       11.8151371119  LPSA16    1               0.0000000000
     16758       541  ECLIPA    H75R          -20.9433909851       16.4124937564       11.2107603889  LPSA16    1               0.0000000000
     16759       541  ECLIPA    H75S          -22.1347678032       15.2865114812       12.0082837783  LPSA16    1               0.0000000000
     16760       541  ECLIPA    C76           -20.5438625404       14.2751254974       10.9251453624  LPSA16    1               0.0000000000
     16761       541  ECLIPA    H76R          -20.9283031867       13.3096487904       11.3555905686  LPSA16    1               0.0000000000
     16762       541  ECLIPA    H76S          -19.3833327607       14.1490438429       10.9731137071  LPSA16    1               0.0000000000
     16763       541  ECLIPA    C77           -20.9073831899       14.3056429062        9.4191603634  LPSA16    1               0.0000000000
     16764       541  ECLIPA    H77R          -20.4796085421       15.2019879739        9.0408775908  LPSA16    1               0.0000000000
     16765       541  ECLIPA    H77S          -21.9974586768       14.4947637306        9.2852383479  LPSA16    1               0.0000000000
     16766       541  ECLIPA    C78           -20.5240138638       12.9424227957        8.8297405752  LPSA16    1               0.0000000000
     16767       541  ECLIPA    H78R          -19.5082108526       12.7222746766        9.1562620580  LPSA16    1               0.0000000000
     16768       541  ECLIPA    H78S          -21.2379970527       12.2222322287        9.3169442960  LPSA16    1               0.0000000000
     16769       541  ECLIPA    C79           -20.8838874096       12.8007475395        7.2570767761  LPSA16    1               0.0000000000
     16770       541  ECLIPA    H79R          -21.8838728342       12.2737965761        7.1763205913  LPSA16    1               0.0000000000
     16771       541  ECLIPA    H79S          -20.1285573559       12.1627004719        6.7882549413  LPSA16    1               0.0000000000
     16772       541  ECLIPA    C710          -20.7387044146       14.0473878877        6.3785096220  LPSA16    1               0.0000000000
     16773       541  ECLIPA    H710R         -21.4137397813       14.8018140061        6.8460783027  LPSA16    1               0.0000000000
     16774       541  ECLIPA    H710S         -19.7769179169       14.3832810101        6.4843026416  LPSA16    1               0.0000000000
     16775       541  ECLIPA    C711          -21.1619127554       13.8445559566        4.9384125046  LPSA16    1               0.0000000000
     16776       541  ECLIPA    H711R         -20.4657152787       13.0898383888        4.5670708729  LPSA16    1               0.0000000000
     16777       541  ECLIPA    H711S         -22.2319788216       13.5149738608        4.9306188492  LPSA16    1               0.0000000000
     16778       541  ECLIPA    C712          -21.0487421190       15.1744912632        4.2148670498  LPSA16    1               0.0000000000
     16779       541  ECLIPA    H712R         -20.0030570759       15.4862857606        4.3130666899  LPSA16    1               0.0000000000
     16780       541  ECLIPA    H712S         -21.6156412104       15.8736325813        4.8522839389  LPSA16    1               0.0000000000
     16781       541  ECLIPA    C713          -21.6287695305       15.0948287297        2.7357390519  LPSA16    1               0.0000000000
     16782       541  ECLIPA    H713R         -22.7160055208       14.8416054290        2.8800411466  LPSA16    1               0.0000000000
     16783       541  ECLIPA    H713S         -21.4709614912       16.1392839097        2.2750064041  LPSA16    1               0.0000000000
     16784       541  ECLIPA    C714          -20.8006782945       14.1116818175        1.8879763961  LPSA16    1               0.0000000000
     16785       541  ECLIPA    H714R         -19.7666338811       14.4626629620        1.7626189762  LPSA16    1               0.0000000000
     16786       541  ECLIPA    H714S         -20.9315590637       13.0707916339        2.2081901572  LPSA16    1               0.0000000000
     16787       541  ECLIPA    H714T         -21.2604375118       14.2308935655        0.9249202435  LPSA16    1               0.0000000000
     16788       541  ECLIPA    C51           -24.9727214551       12.5449875011       14.2380633031  LPSA16    1               0.0000000000
     16789       541  ECLIPA    O51           -24.9989275451       13.7896741504       14.1304636378  LPSA16    1               0.0000000000
     16790       541  ECLIPA    C52           -24.6546168044       11.6092206790       13.0157035712  LPSA16    1               0.0000000000
     16791       541  ECLIPA    H52R          -23.6074389095       11.3716578830       12.8950255930  LPSA16    1               0.0000000000
     16792       541  ECLIPA    H52S          -25.2199971950       10.7280871975       13.2222025935  LPSA16    1               0.0000000000
     16793       541  ECLIPA    C53           -25.3337378125       12.2632146922       11.7526064304  LPSA16    1               0.0000000000
     16794       541  ECLIPA    H53R          -26.1805213358       12.8916466157       12.0082431084  LPSA16    1               0.0000000000
     16795       541  ECLIPA    O53           -25.5846485380       11.1796954502       10.8431816314  LPSA16    1               0.0000000000
     16796       541  ECLIPA    C61           -26.8372985089       10.9166104831       10.5090573566  LPSA16    1               0.0000000000
     16797       541  ECLIPA    O61           -27.8015567247       11.5177941336       10.8659713306  LPSA16    1               0.0000000000
     16798       541  ECLIPA    C62           -26.8631075444        9.6987044039        9.5765835255  LPSA16    1               0.0000000000
     16799       541  ECLIPA    H62R          -26.7605554362        8.7960907344       10.2152837125  LPSA16    1               0.0000000000
     16800       541  ECLIPA    H62S          -25.8862237843        9.6995295363        9.0470049452  LPSA16    1               0.0000000000
     16801       541  ECLIPA    C63           -28.1279582425        9.6869689441        8.6803029234  LPSA16    1               0.0000000000
     16802       541  ECLIPA    H63R          -28.2457449601       10.7068640119        8.2798705976  LPSA16    1               0.0000000000
     16803       541  ECLIPA    H63S          -29.0825108059        9.4485872517        9.3252199642  LPSA16    1               0.0000000000
     16804       541  ECLIPA    C64           -28.1577401422        8.7593606330        7.5279067597  LPSA16    1               0.0000000000
     16805       541  ECLIPA    H64R          -29.1568013576        8.7600503241        6.9620099216  LPSA16    1               0.0000000000
     16806       541  ECLIPA    H64S          -27.9501758027        7.7149220002        7.9657393466  LPSA16    1               0.0000000000
     16807       541  ECLIPA    C65           -26.9854660029        9.0982387402        6.5414948800  LPSA16    1               0.0000000000
     16808       541  ECLIPA    H65R          -26.1243002443        8.9562664463        7.2423230371  LPSA16    1               0.0000000000
     16809       541  ECLIPA    H65S          -27.0948351762       10.1454312348        6.1828980290  LPSA16    1               0.0000000000
     16810       541  ECLIPA    C66           -26.8534968920        8.2091956436        5.2222643966  LPSA16    1               0.0000000000
     16811       541  ECLIPA    H66R          -26.6971122882        7.1803987684        5.5395647249  LPSA16    1               0.0000000000
     16812       541  ECLIPA    H66S          -25.8964838296        8.6481397312        4.8113963288  LPSA16    1               0.0000000000
     16813       541  ECLIPA    C67           -27.9287914208        8.3049772162        4.1696839457  LPSA16    1               0.0000000000
     16814       541  ECLIPA    H67R          -28.9333177397        8.1770957002        4.5058181646  LPSA16    1               0.0000000000
     16815       541  ECLIPA    H67S          -27.7277285456        7.5602077663        3.3478820057  LPSA16    1               0.0000000000
     16816       541  ECLIPA    C68           -28.0266541732        9.6544805955        3.5077075145  LPSA16    1               0.0000000000
     16817       541  ECLIPA    H68R          -27.1200092895       10.0754823520        3.0112508411  LPSA16    1               0.0000000000
     16818       541  ECLIPA    H68S          -28.3965192283       10.2689201473        4.3087918325  LPSA16    1               0.0000000000
     16819       541  ECLIPA    C69           -28.9539226464        9.5693831617        2.2963532923  LPSA16    1               0.0000000000
     16820       541  ECLIPA    H69R          -29.7290515995        8.7791852809        2.3203210098  LPSA16    1               0.0000000000
     16821       541  ECLIPA    H69S          -28.3341687246        9.2287104732        1.4693744207  LPSA16    1               0.0000000000
     16822       541  ECLIPA    C610          -29.6034049011       10.8564249157        1.9396251084  LPSA16    1               0.0000000000
     16823       541  ECLIPA    H610R         -28.8736393016       11.7039157975        2.0603347121  LPSA16    1               0.0000000000
     16824       541  ECLIPA    H610S         -30.4236132211       11.0934796444        2.6933643884  LPSA16    1               0.0000000000
     16825       541  ECLIPA    C611          -30.2949408738       10.8380963014        0.5312153135  LPSA16    1               0.0000000000
     16826       541  ECLIPA    H611R         -31.0452518942       10.0245995039        0.5735373188  LPSA16    1               0.0000000000
     16827       541  ECLIPA    H611S         -30.9666554596       11.6660556714        0.3609598123  LPSA16    1               0.0000000000
     16828       541  ECLIPA    C612          -29.2613923557       10.7473772653       -0.5788949292  LPSA16    1               0.0000000000
     16829       541  ECLIPA    H612R         -28.6869032795       11.7157191596       -0.6060949542  LPSA16    1               0.0000000000
     16830       541  ECLIPA    H612S         -28.5129783358        9.9905344368       -0.3132441764  LPSA16    1               0.0000000000
     16831       541  ECLIPA    H612T         -29.7199960810       10.5793859767       -1.5574606966  LPSA16    1               0.0000000000
     16832       541  ECLIPA    C54           -24.2239916650       13.1623348125       11.1776054589  LPSA16    1               0.0000000000
     16833       541  ECLIPA    H54R          -23.3506093029       12.5056168843       10.8869876633  LPSA16    1               0.0000000000
     16834       541  ECLIPA    H54S          -23.8276358081       13.8325224758       11.9574517429  LPSA16    1               0.0000000000
     16835       541  ECLIPA    C55           -24.5427054089       14.0647664820        9.9916770240  LPSA16    1               0.0000000000
     16836       541  ECLIPA    H55R          -23.7836141735       14.8530424900        9.7856946516  LPSA16    1               0.0000000000
     16837       541  ECLIPA    H55S          -25.5195769423       14.6125023411       10.2436295858  LPSA16    1               0.0000000000
     16838       541  ECLIPA    C56           -24.5378128037       13.2111577051        8.7515486822  LPSA16    1               0.0000000000
     16839       541  ECLIPA    H56R          -25.3220322424       12.3980745538        8.8382497819  LPSA16    1               0.0000000000
     16840       541  ECLIPA    H56S          -23.6388914001       12.7489076626        8.4741334449  LPSA16    1               0.0000000000
     16841       541  ECLIPA    C57           -25.1035035547       13.8749258604        7.4395707935  LPSA16    1               0.0000000000
     16842       541  ECLIPA    H57R          -24.5985855700       14.8078713090        7.1827428724  LPSA16    1               0.0000000000
     16843       541  ECLIPA    H57S          -26.1734972802       14.1616226775        7.5196553379  LPSA16    1               0.0000000000
     16844       541  ECLIPA    C58           -25.0620099346       12.8484526855        6.2350750625  LPSA16    1               0.0000000000
     16845       541  ECLIPA    H58R          -24.0836741290       12.2932638998        6.2095761879  LPSA16    1               0.0000000000
     16846       541  ECLIPA    H58S          -25.7475682957       12.0046762863        6.5224540661  LPSA16    1               0.0000000000
     16847       541  ECLIPA    C59           -25.2806590378       13.5528198250        4.8667186835  LPSA16    1               0.0000000000
     16848       541  ECLIPA    H59R          -24.5294795960       14.3358477633        4.6589989540  LPSA16    1               0.0000000000
     16849       541  ECLIPA    H59S          -26.2796460023       13.9801634362        5.0825555512  LPSA16    1               0.0000000000
     16850       541  ECLIPA    C510          -25.1017450138       12.5943093536        3.6752379292  LPSA16    1               0.0000000000
     16851       541  ECLIPA    H510R         -25.6051698956       11.5740918986        3.7937959224  LPSA16    1               0.0000000000
     16852       541  ECLIPA    H510S         -23.9618192956       12.3673612337        3.4613250382  LPSA16    1               0.0000000000
     16853       541  ECLIPA    C511          -25.5651350972       13.1205976730        2.3004848829  LPSA16    1               0.0000000000
     16854       541  ECLIPA    H511R         -26.6626898816       12.9804841787        2.2679211996  LPSA16    1               0.0000000000
     16855       541  ECLIPA    H511S         -25.4062790206       14.2329898452        2.1940961976  LPSA16    1               0.0000000000
     16856       541  ECLIPA    C512          -25.0037584338       12.4016248931        1.0189424135  LPSA16    1               0.0000000000
     16857       541  ECLIPA    H512R         -25.2316056198       13.0102089922        0.0815295424  LPSA16    1               0.0000000000
     16858       541  ECLIPA    H512S         -23.9172625077       12.2823953341        1.1129704346  LPSA16    1               0.0000000000
     16859       541  ECLIPA    C513          -25.7248743686       11.0275703015        0.6457389972  LPSA16    1               0.0000000000
     16860       541  ECLIPA    H513R         -26.8401350429       11.1742718377        0.5010832175  LPSA16    1               0.0000000000
     16861       541  ECLIPA    H513S         -25.6286381479       10.3509135922        1.4088770719  LPSA16    1               0.0000000000
     16862       541  ECLIPA    C514          -25.2001551735       10.4882006275       -0.6567184026  LPSA16    1               0.0000000000
     16863       541  ECLIPA    H514R         -24.1147806704       10.3947102563       -0.6273993866  LPSA16    1               0.0000000000
     16864       541  ECLIPA    H514S         -25.5842691403        9.4667386438       -0.7024724270  LPSA16    1               0.0000000000
     16865       541  ECLIPA    H514T         -25.5161147752       11.1507953340       -1.5427815912  LPSA16    1               0.0000000000
     16866       541  ECLIPA    C33           -28.0928590454        8.4186620010       14.4880792826  LPSA16    1               0.0000000000
     16867       541  ECLIPA    H33R          -28.1238906010        7.3492850850       14.8828993596  LPSA16    1               0.0000000000
     16868       541  ECLIPA    O33           -27.4527850296        9.2127362702       15.4699768821  LPSA16    1               0.0000000000
     16869       541  ECLIPA    HO33          -27.7881772956        8.9750816418       16.2926205744  LPSA16    1               0.0000000000
     16870       541  ECLIPA    C34           -27.1912697289        8.4020894154       13.2255459338  LPSA16    1               0.0000000000
     16871       541  ECLIPA    H34R          -27.1466463198        9.3990245501       12.8010908313  LPSA16    1               0.0000000000
     16872       541  ECLIPA    H34S          -27.6927539057        7.7933932485       12.3772221142  LPSA16    1               0.0000000000
     16873       541  ECLIPA    C35           -25.7472814717        7.9069103326       13.4256256262  LPSA16    1               0.0000000000
     16874       541  ECLIPA    H35R          -25.7876676692        6.8542989209       13.6963698038  LPSA16    1               0.0000000000
     16875       541  ECLIPA    H35S          -25.3013899376        8.4532253183       14.2668166019  LPSA16    1               0.0000000000
     16876       541  ECLIPA    C36           -24.8287823269        7.9055358241       12.1865608177  LPSA16    1               0.0000000000
     16877       541  ECLIPA    H36R          -25.2629560845        8.8251738153       11.7430812241  LPSA16    1               0.0000000000
     16878       541  ECLIPA    H36S          -24.9523275793        7.0257672165       11.4785220412  LPSA16    1               0.0000000000
     16879       541  ECLIPA    C37           -23.3938346487        8.2625528989       12.5255831563  LPSA16    1               0.0000000000
     16880       541  ECLIPA    H37R          -22.8770608490        7.2101203993       12.6765215637  LPSA16    1               0.0000000000
     16881       541  ECLIPA    H37S          -23.3025808019        8.7523480713       13.5128993321  LPSA16    1               0.0000000000
     16882       541  ECLIPA    C38           -22.5950375309        9.0245117156       11.4317274953  LPSA16    1               0.0000000000
     16883       541  ECLIPA    H38R          -22.8109908704       10.1055720100       11.4067421357  LPSA16    1               0.0000000000
     16884       541  ECLIPA    H38S          -21.5297668978        8.9860661921       11.7230999881  LPSA16    1               0.0000000000
     16885       541  ECLIPA    C39           -22.8905865830        8.4751866170       10.0213367345  LPSA16    1               0.0000000000
     16886       541  ECLIPA    H39R          -23.9933279605        8.4880176820        9.8128797222  LPSA16    1               0.0000000000
     16887       541  ECLIPA    H39S          -22.4119161214        7.4613823430        9.9697980947  LPSA16    1               0.0000000000
     16888       541  ECLIPA    C310          -22.2001672055        9.1896776793        8.8401719124  LPSA16    1               0.0000000000
     16889       541  ECLIPA    H310R         -21.0833275885        9.0070931334        9.0626900142  LPSA16    1               0.0000000000
     16890       541  ECLIPA    H310S         -22.4071528167       10.2983319066        8.8945759064  LPSA16    1               0.0000000000
     16891       541  ECLIPA    C311          -22.8273036802        8.8483796135        7.5676235846  LPSA16    1               0.0000000000
     16892       541  ECLIPA    H311R         -23.1135022246        7.7660218873        7.5507520616  LPSA16    1               0.0000000000
     16893       541  ECLIPA    H311S         -23.7567669471        9.4328517503        7.2851462164  LPSA16    1               0.0000000000
     16894       541  ECLIPA    C312          -21.9578696291        9.1542413815        6.3280121142  LPSA16    1               0.0000000000
     16895       541  ECLIPA    H312R         -21.3545842296       10.0836165027        6.4861373960  LPSA16    1               0.0000000000
     16896       541  ECLIPA    H312S         -21.2632739054        8.2892228443        6.1820758986  LPSA16    1               0.0000000000
     16897       541  ECLIPA    C313          -22.7518802748        9.3027223243        4.9895779706  LPSA16    1               0.0000000000
     16898       541  ECLIPA    H313R         -23.0468630244        8.3206230904        4.7825120466  LPSA16    1               0.0000000000
     16899       541  ECLIPA    H313S         -23.6740531244        9.9264711413        5.1572698764  LPSA16    1               0.0000000000
     16900       541  ECLIPA    C314          -22.0141602318        9.8487070115        3.8116661598  LPSA16    1               0.0000000000
     16901       541  ECLIPA    H314R         -21.1172806313        9.2029493415        3.6067793993  LPSA16    1               0.0000000000
     16902       541  ECLIPA    H314S         -22.5872264931        9.9366221521        2.8849361441  LPSA16    1               0.0000000000
     16903       541  ECLIPA    H314T         -21.5907291366       10.8880389064        4.0446347774  LPSA16    1               0.0000000000
     16904       541  ECLIPA    C11           -29.4676111585       14.0688061890       11.2900808200  LPSA16    1               0.0000000000
     16905       541  ECLIPA    O11           -28.3659841682       14.5826802997       11.1394597694  LPSA16    1               0.0000000000
     16906       541  ECLIPA    C12           -30.5704774140       14.5161406996       10.2853014675  LPSA16    1               0.0000000000
     16907       541  ECLIPA    H12R          -30.8982914060       15.5681206633       10.4852637814  LPSA16    1               0.0000000000
     16908       541  ECLIPA    H12S          -31.4126395189       13.8132113502       10.5222272274  LPSA16    1               0.0000000000
     16909       541  ECLIPA    C13           -30.2106469039       14.3889026444        8.8110583416  LPSA16    1               0.0000000000
     16910       541  ECLIPA    H13R          -29.1418841329       14.7625662399        8.5839874118  LPSA16    1               0.0000000000
     16911       541  ECLIPA    O13           -31.1293940224       15.2834814146        8.1311342176  LPSA16    1               0.0000000000
     16912       541  ECLIPA    HO13          -30.7664654551       15.5493694912        7.3064966676  LPSA16    1               0.0000000000
     16913       541  ECLIPA    C14           -30.3046929592       12.9228313538        8.4581579993  LPSA16    1               0.0000000000
     16914       541  ECLIPA    H14R          -31.1951054772       12.4042637928        8.9706443184  LPSA16    1               0.0000000000
     16915       541  ECLIPA    H14S          -29.3324004956       12.4582901349        8.7243868424  LPSA16    1               0.0000000000
     16916       541  ECLIPA    C15           -30.4845007577       12.6512231008        6.9526486677  LPSA16    1               0.0000000000
     16917       541  ECLIPA    H15R          -31.3026543628       13.2248510338        6.5500123177  LPSA16    1               0.0000000000
     16918       541  ECLIPA    H15S          -30.6588993638       11.5766161624        6.8782608049  LPSA16    1               0.0000000000
     16919       541  ECLIPA    C16           -29.2185078468       13.0668909630        6.1622847334  LPSA16    1               0.0000000000
     16920       541  ECLIPA    H16R          -28.3815915549       12.2848667284        6.2733383262  LPSA16    1               0.0000000000
     16921       541  ECLIPA    H16S          -28.7402129068       13.8914826920        6.7182496574  LPSA16    1               0.0000000000
     16922       541  ECLIPA    C17           -29.4890064357       13.3155063789        4.6801229578  LPSA16    1               0.0000000000
     16923       541  ECLIPA    H17R          -30.1457950383       12.4283804285        4.4246758429  LPSA16    1               0.0000000000
     16924       541  ECLIPA    H17S          -28.6286582045       13.2653775834        4.0046542873  LPSA16    1               0.0000000000
     16925       541  ECLIPA    C18           -30.2022968265       14.6200032472        4.4504458171  LPSA16    1               0.0000000000
     16926       541  ECLIPA    H18R          -31.0417649296       14.5262060138        5.0865821920  LPSA16    1               0.0000000000
     16927       541  ECLIPA    H18S          -29.5138289977       15.4518935934        4.7749867078  LPSA16    1               0.0000000000
     16928       541  ECLIPA    C19           -30.6053091873       14.8125799335        3.0097966450  LPSA16    1               0.0000000000
     16929       541  ECLIPA    H19R          -31.2187008929       15.6984963306        2.9245509529  LPSA16    1               0.0000000000
     16930       541  ECLIPA    H19S          -31.1770510267       13.9051954683        2.6238151240  LPSA16    1               0.0000000000
     16931       541  ECLIPA    C110          -29.3756659003       15.0697432975        2.1045801788  LPSA16    1               0.0000000000
     16932       541  ECLIPA    H110R         -28.6961679070       15.8542595382        2.4416701971  LPSA16    1               0.0000000000
     16933       541  ECLIPA    H110S         -28.8929786082       14.0691312717        2.1583327743  LPSA16    1               0.0000000000
     16934       541  ECLIPA    C111          -29.8469717194       15.3289727448        0.7563571155  LPSA16    1               0.0000000000
     16935       541  ECLIPA    H111R         -30.6761198644       14.6559368136        0.3999767799  LPSA16    1               0.0000000000
     16936       541  ECLIPA    H111S         -30.2993165149       16.2856100979        0.7977177860  LPSA16    1               0.0000000000
     16937       541  ECLIPA    C112          -28.7267642526       15.3915609841       -0.2937360943  LPSA16    1               0.0000000000
     16938       541  ECLIPA    H112R         -28.0842055005       16.1684054838        0.1973446929  LPSA16    1               0.0000000000
     16939       541  ECLIPA    H112S         -28.0655337485       14.5246861294       -0.2177998937  LPSA16    1               0.0000000000
     16940       541  ECLIPA    C113          -29.2253280280       15.4494614739       -1.7468031795  LPSA16    1               0.0000000000
     16941       541  ECLIPA    H113R         -29.7215816439       14.4791847859       -1.9802017524  LPSA16    1               0.0000000000
     16942       541  ECLIPA    H113S         -30.0318457409       16.1819106862       -1.8531093719  LPSA16    1               0.0000000000
     16943       541  ECLIPA    C114          -28.2671482868       15.8647664749       -2.8344928043  LPSA16    1               0.0000000000
     16944       541  ECLIPA    H114R         -27.6745115883       16.7740283559       -2.7829422503  LPSA16    1               0.0000000000
     16945       541  ECLIPA    H114S         -27.5080896199       15.0488630744       -2.9951089580  LPSA16    1               0.0000000000
     16946       541  ECLIPA    H114T         -28.8446553560       16.1352571563       -3.7399523103  LPSA16    1               0.0000000000
     16947       542  AKDO      C1            -23.8381823748       11.7218401684       22.4410509549  LPSA16    2               0.0000000000
     16948       542  AKDO      O11           -22.5642063487       11.8204378862       22.4913720772  LPSA16    2               0.0000000000
     16949       542  AKDO      O12           -24.5683001739       10.7564186020       22.0800765534  LPSA16    2               0.0000000000
     16950       542  AKDO      C2            -24.6001696638       12.9722005252       22.8913181237  LPSA16    2               0.0000000000
     16951       542  AKDO      C6            -24.2660434938       15.1305765676       23.8039205188  LPSA16    2               0.0000000000
     16952       542  AKDO      H6            -24.7052222896       15.5737377542       22.9487387861  LPSA16    2               0.0000000000
     16953       542  AKDO      O6            -23.6527941759       13.8326994239       23.4267274814  LPSA16    2               0.0000000000
     16954       542  AKDO      C3            -25.5875481997       12.7016781850       23.9587385105  LPSA16    2               0.0000000000
     16955       542  AKDO      H31           -25.2145039532       12.1778238216       24.7868435866  LPSA16    2               0.0000000000
     16956       542  AKDO      H32           -26.4615520723       12.0975252773       23.4151264596  LPSA16    2               0.0000000000
     16957       542  AKDO      C4            -26.2621268443       14.0028615899       24.3842593775  LPSA16    2               0.0000000000
     16958       542  AKDO      H4            -26.6880653319       14.5423043451       23.5563617270  LPSA16    2               0.0000000000
     16959       542  AKDO      O4            -27.2778762800       13.7177604249       25.3355834555  LPSA16    2               0.0000000000
     16960       542  AKDO      C5            -25.3234938141       14.9826086310       24.9292437177  LPSA16    2               0.0000000000
     16961       542  AKDO      H5            -25.8081811022       15.9911412653       25.0107888161  LPSA16    2               0.0000000000
     16962       542  AKDO      O5            -24.7850774129       14.4391630109       26.2083878813  LPSA16    2               0.0000000000
     16963       542  AKDO      C7            -23.1733041215       16.2271944599       24.1981149098  LPSA16    2               0.0000000000
     16964       542  AKDO      H7            -22.6609239829       15.8820735028       25.0939202098  LPSA16    2               0.0000000000
     16965       542  AKDO      O7            -23.7619017577       17.5460713442       24.3482682347  LPSA16    2               0.0000000000
     16966       542  AKDO      HO7           -23.9092837186       17.8522340767       23.4945166536  LPSA16    2               0.0000000000
     16967       542  AKDO      C8            -22.1822535123       16.2976734497       22.9864433882  LPSA16    2               0.0000000000
     16968       542  AKDO      H81           -21.7623484249       15.2657618012       22.9153150275  LPSA16    2               0.0000000000
     16969       542  AKDO      H82           -22.8047949528       16.6281319475       22.0745354517  LPSA16    2               0.0000000000
     16970       542  AKDO      O8            -21.0967504421       17.2478923612       23.3537996748  LPSA16    2               0.0000000000
     16971       542  AKDO      HO8           -20.2608974929       16.9377728575       22.9179804014  LPSA16    2               0.0000000000
     16972       543  AKDO      C1            -29.0392356097       14.1312029460       23.8027969005  LPSA16    3               1.0000000000
     16973       543  AKDO      O11           -28.9831482966       13.6126446007       22.6471489042  LPSA16    3               1.0000000000
     16974       543  AKDO      O12           -29.4613060392       15.2825033892       24.0656860145  LPSA16    3               1.0000000000
     16975       543  AKDO      C2            -28.5969860996       13.3263507148       25.0166033796  LPSA16    3               1.0000000000
     16976       543  AKDO      C6            -28.1038869126       11.0969168101       25.7688829792  LPSA16    3               1.0000000000
     16977       543  AKDO      H6            -27.0197394819       11.3722075846       25.9810553331  LPSA16    3               1.0000000000
     16978       543  AKDO      O6            -28.6016423860       11.8887658863       24.7076657818  LPSA16    3               1.0000000000
     16979       543  AKDO      C3            -29.4104886585       13.5536858571       26.3187707743  LPSA16    3               1.0000000000
     16980       543  AKDO      H31           -30.5207953803       13.2360515110       26.1504935106  LPSA16    3               1.0000000000
     16981       543  AKDO      H32           -29.4228803270       14.6176116190       26.5929217108  LPSA16    3               1.0000000000
     16982       543  AKDO      C4            -28.8070987929       12.6985857873       27.4036122013  LPSA16    3               1.0000000000
     16983       543  AKDO      H4            -27.7300255094       12.8920562951       27.4051754129  LPSA16    3               1.0000000000
     16984       543  AKDO      O4            -29.2839207851       12.9212572174       28.7388570077  LPSA16    3               1.0000000000
     16985       543  AKDO      HO4           -28.6171603765       13.1584813754       29.3717785514  LPSA16    3               1.0000000000
     16986       543  AKDO      C5            -28.8827237275       11.3350354233       27.0369167275  LPSA16    3               1.0000000000
     16987       543  AKDO      H5            -28.5065345182       10.6980759585       27.9236884022  LPSA16    3               1.0000000000
     16988       543  AKDO      O5            -30.2532504518       10.9348340696       26.8495261943  LPSA16    3               1.0000000000
     16989       543  AKDO      HO5           -30.6517895227       11.4624565307       26.1887877298  LPSA16    3               1.0000000000
     16990       543  AKDO      C7            -28.1722199027        9.6569158320       25.3258859863  LPSA16    3               1.0000000000
     16991       543  AKDO      H7            -29.2367194736        9.3339239500       25.1324849511  LPSA16    3               1.0000000000
     16992       543  AKDO      O7            -27.5849489360        8.8277601627       26.3661029982  LPSA16    3               1.0000000000
     16993       543  AKDO      HO7           -27.7796136043        7.8880473229       26.1647669547  LPSA16    3               1.0000000000
     16994       543  AKDO      C8            -27.2922128630        9.5195767130       24.1539635864  LPSA16    3               1.0000000000
     16995       543  AKDO      H81           -27.6303409672       10.1766900113       23.3419478721  LPSA16    3               1.0000000000
     16996       543  AKDO      H82           -26.2188198398        9.7232828112       24.2853144505  LPSA16    3               1.0000000000
     16997       543  AKDO      O8            -27.3623627022        8.2031125887       23.6541307456  LPSA16    3               1.0000000000
     16998       543  AKDO      HO8           -28.2443608104        8.2950464561       23.2473452835  LPSA16    3               1.0000000000
     16999       544  AHEP      C1            -24.5105649504       15.3276674241       27.2793229502  LPSA16    4               2.0000000000
     17000       544  AHEP      H1            -23.5086288076       15.6600621029       26.8517192453  LPSA16    4               2.0000000000
     17001       544  AHEP      C5            -26.5952942502       16.3174569417       28.0185271385  LPSA16    4               2.0000000000
     17002       544  AHEP      H5            -27.0393360683       15.3494880759       27.5619054335  LPSA16    4               2.0000000000
     17003       544  AHEP      O5            -25.3267776334       16.4957220239       27.3942805697  LPSA16    4               2.0000000000
     17004       544  AHEP      C2            -24.2122410030       14.8654006991       28.6827861277  LPSA16    4               2.0000000000
     17005       544  AHEP      H2            -23.6255373812       13.9421489111       28.7442425996  LPSA16    4               2.0000000000
     17006       544  AHEP      O2            -23.4784505671       15.8339184127       29.3407203943  LPSA16    4               2.0000000000
     17007       544  AHEP      HO2           -22.8058265112       15.4237863506       29.8507927467  LPSA16    4               2.0000000000
     17008       544  AHEP      C3            -25.5079849292       14.6325491702       29.4857672188  LPSA16    4               2.0000000000
     17009       544  AHEP      H3            -26.0804853020       13.7312298971       29.2269906369  LPSA16    4               2.0000000000
     17010       544  AHEP      O3            -25.2073331095       14.3937905237       30.7882097304  LPSA16    4               2.0000000000
     17011       544  AHEP      C4            -26.3436283913       15.8864390725       29.4546205599  LPSA16    4               2.0000000000
     17012       544  AHEP      H4            -25.9071077926       16.7731092216       29.9788637739  LPSA16    4               2.0000000000
     17013       544  AHEP      O4            -27.5940905886       15.6127112932       30.0145912217  LPSA16    4               2.0000000000
     17014       544  AHEP      P4            -28.0602619411       16.1998494095       31.4978499249  LPSA16    4               2.0000000000
     17015       544  AHEP      OP42          -28.9319246252       15.2049037358       32.1560374192  LPSA16    4               2.0000000000
     17016       544  AHEP      OP43          -28.8069931349       17.4179395015       31.0397938518  LPSA16    4               2.0000000000
     17017       544  AHEP      OP44          -26.7980184789       16.6280293053       32.3098937101  LPSA16    4               2.0000000000
     17018       544  AHEP      C6            -27.5307953192       17.5602426950       27.7982482844  LPSA16    4               2.0000000000
     17019       544  AHEP      H6            -28.5701032002       17.2125371095       28.0833143566  LPSA16    4               2.0000000000
     17020       544  AHEP      O6            -27.1097806966       18.5779579069       28.7103505027  LPSA16    4               2.0000000000
     17021       544  AHEP      HO6           -27.8733784981       18.9599940661       29.2203787365  LPSA16    4               2.0000000000
     17022       544  AHEP      C7            -27.5775256540       18.0642002231       26.3054198206  LPSA16    4               2.0000000000
     17023       544  AHEP      H71           -28.3892927392       18.8517257175       26.1576126064  LPSA16    4               2.0000000000
     17024       544  AHEP      H72           -27.6460539375       17.1861386320       25.6323487339  LPSA16    4               2.0000000000
     17025       544  AHEP      O7            -26.3696150776       18.7436166840       25.9755159574  LPSA16    4               2.0000000000
     17026       544  AHEP      HO7           -26.4354214381       19.6462290539       26.3256794122  LPSA16    4               2.0000000000
     17027       545  AHEP      C1            -25.5820444713       13.1558465809       31.4342177374  LPSA16    5               3.0000000000
     17028       545  AHEP      H1            -26.5110406501       12.7221090125       30.9794447437  LPSA16    5               3.0000000000
     17029       545  AHEP      C5            -23.3255971612       12.5625516732       31.9165413065  LPSA16    5               3.0000000000
     17030       545  AHEP      H5            -23.0904081183       13.6359493369       31.6031509785  LPSA16    5               3.0000000000
     17031       545  AHEP      O5            -24.5424402338       12.1692231506       31.3013865768  LPSA16    5               3.0000000000
     17032       545  AHEP      C2            -25.8466578970       13.2866343318       32.9718957084  LPSA16    5               3.0000000000
     17033       545  AHEP      H2            -26.6185769601       14.1133817419       33.0921707216  LPSA16    5               3.0000000000
     17034       545  AHEP      O2            -26.3928959517       12.0793179742       33.4691025827  LPSA16    5               3.0000000000
     17035       545  AHEP      HO2           -27.3232376235       12.1858212682       33.6403503244  LPSA16    5               3.0000000000
     17036       545  AHEP      C3            -24.5670738660       13.7470725032       33.7004304811  LPSA16    5               3.0000000000
     17037       545  AHEP      H3            -24.2466916108       14.7299361999       33.3375632548  LPSA16    5               3.0000000000
     17038       545  AHEP      O3            -24.6671361282       13.8830674180       35.1462238331  LPSA16    5               3.0000000000
     17039       545  AHEP      C4            -23.5340519478       12.7021866890       33.4524658705  LPSA16    5               3.0000000000
     17040       545  AHEP      H4            -23.8516979300       11.6956157415       33.8188816395  LPSA16    5               3.0000000000
     17041       545  AHEP      O4            -22.2909774431       13.1364086832       34.0881196202  LPSA16    5               3.0000000000
     17042       545  AHEP      P4            -21.6506297874       12.2943657696       35.2810123301  LPSA16    5               3.0000000000
     17043       545  AHEP      OP42          -20.5223881081       13.1416180453       35.8202965042  LPSA16    5               3.0000000000
     17044       545  AHEP      OP43          -21.1327882520       10.9943181027       34.6107506294  LPSA16    5               3.0000000000
     17045       545  AHEP      OP44          -22.7676895663       11.9833693325       36.2417033353  LPSA16    5               3.0000000000
     17046       545  AHEP      C6            -22.1366362741       11.6613082973       31.5493607386  LPSA16    5               3.0000000000
     17047       545  AHEP      H6            -21.1868671956       12.0499035155       31.9533288164  LPSA16    5               3.0000000000
     17048       545  AHEP      O6            -22.3487208069       10.3429833603       32.0428602265  LPSA16    5               3.0000000000
     17049       545  AHEP      HO6           -22.9954023350        9.7831911579       31.5367188277  LPSA16    5               3.0000000000
     17050       545  AHEP      C7            -21.8779114644       11.7349525411       30.0822725317  LPSA16    5               3.0000000000
     17051       545  AHEP      H71           -20.7837667098       11.6241012570       29.9169108581  LPSA16    5               3.0000000000
     17052       545  AHEP      H72           -22.1784445833       12.6929479507       29.6179339851  LPSA16    5               3.0000000000
     17053       545  AHEP      O7            -22.4851097211       10.5643531584       29.4957736452  LPSA16    5               3.0000000000
     17054       546  AHEP      C1            -23.6617561035       10.8282082857       28.7926622005  LPSA16    6               4.0000000000
     17055       546  AHEP      H1            -24.0480287956       11.8768827749       29.0422981953  LPSA16    6               4.0000000000
     17056       546  AHEP      C5            -22.9903963768        9.5040167666       26.9237617191  LPSA16    6               4.0000000000
     17057       546  AHEP      H5            -22.0786908889        9.2492751759       27.4818042043  LPSA16    6               4.0000000000
     17058       546  AHEP      O5            -23.4836527635       10.7822846656       27.3547530115  LPSA16    6               4.0000000000
     17059       546  AHEP      C2            -24.7203978362        9.8586183956       29.2397872647  LPSA16    6               4.0000000000
     17060       546  AHEP      H2            -24.8616912251       10.0131985610       30.3523091474  LPSA16    6               4.0000000000
     17061       546  AHEP      O2            -25.9894351122       10.1722321686       28.7267108980  LPSA16    6               4.0000000000
     17062       546  AHEP      HO2           -26.4651496290       10.4949693210       29.4669064354  LPSA16    6               4.0000000000
     17063       546  AHEP      C3            -24.2547076830        8.4341457218       28.8468391403  LPSA16    6               4.0000000000
     17064       546  AHEP      H3            -23.3502955056        8.2239485403       29.4311808254  LPSA16    6               4.0000000000
     17065       546  AHEP      O3            -25.2386624518        7.3514942758       29.2225362108  LPSA16    6               4.0000000000
     17066       546  AHEP      HO3           -25.0621873732        6.8725304894       29.9865592523  LPSA16    6               4.0000000000
     17067       546  AHEP      C4            -24.0396969371        8.4474817438       27.2761740859  LPSA16    6               4.0000000000
     17068       546  AHEP      H4            -25.0038740267        8.5292916213       26.7944950683  LPSA16    6               4.0000000000
     17069       546  AHEP      O4            -23.5755429008        7.1774944280       26.7938835778  LPSA16    6               4.0000000000
     17070       546  AHEP      HO4           -22.6094151154        7.1483777340       27.1589530594  LPSA16    6               4.0000000000
     17071       546  AHEP      C6            -22.5487357947        9.4908222478       25.4906533340  LPSA16    6               4.0000000000
     17072       546  AHEP      H6            -22.1114658086        8.5092515422       25.3442628137  LPSA16    6               4.0000000000
     17073       546  AHEP      O6            -23.6950599011        9.4913456596       24.6375675438  LPSA16    6               4.0000000000
     17074       546  AHEP      HO6           -23.6522893662       10.2080288399       23.9977784313  LPSA16    6               4.0000000000
     17075       546  AHEP      C7            -21.4805843801       10.4984516204       25.1799756221  LPSA16    6               4.0000000000
     17076       546  AHEP      H71           -21.1109735237       10.2839686203       24.1408078076  LPSA16    6               4.0000000000
     17077       546  AHEP      H72           -20.6821625216       10.3330493579       25.9252229174  LPSA16    6               4.0000000000
     17078       546  AHEP      O7            -21.9097463752       11.8259761562       25.2517430265  LPSA16    6               4.0000000000
     17079       546  AHEP      HO7           -21.8310937303       12.0518521105       26.2011285002  LPSA16    6               4.0000000000
     17080       547  AGLC      C1            -25.1141411587       15.1326427197       35.6520976122  LPSA16    7               4.0000000000
     17081       547  AGLC      H1            -24.4688358149       15.9650054641       35.2047739589  LPSA16    7               4.0000000000
     17082       547  AGLC      C5            -27.3417764267       14.4983041724       36.0987679218  LPSA16    7               4.0000000000
     17083       547  AGLC      H5            -27.1304333898       13.4526162991       35.8327124756  LPSA16    7               4.0000000000
     17084       547  AGLC      O5            -26.4769924620       15.3604344424       35.4366254460  LPSA16    7               4.0000000000
     17085       547  AGLC      C2            -24.9206307440       15.2235001207       37.1582745954  LPSA16    7               4.0000000000
     17086       547  AGLC      H2            -25.3702783377       16.2278436047       37.4887389927  LPSA16    7               4.0000000000
     17087       547  AGLC      O2            -23.5325514617       15.3991670397       37.5024056006  LPSA16    7               4.0000000000
     17088       547  AGLC      HO2           -23.1959043468       14.5171049681       37.6430208865  LPSA16    7               4.0000000000
     17089       547  AGLC      C3            -25.7246196568       14.3508528533       37.9903802326  LPSA16    7               4.0000000000
     17090       547  AGLC      H3            -25.4372730676       13.3477397365       37.6727250444  LPSA16    7               4.0000000000
     17091       547  AGLC      O3            -25.4471706597       14.3461039966       39.4204481292  LPSA16    7               4.0000000000
     17092       547  AGLC      C4            -27.1324884177       14.6863478181       37.5928595998  LPSA16    7               4.0000000000
     17093       547  AGLC      H4            -27.4088604210       15.7438704873       37.9560286200  LPSA16    7               4.0000000000
     17094       547  AGLC      O4            -27.9474068165       13.6754326042       38.2243117391  LPSA16    7               4.0000000000
     17095       547  AGLC      HO4           -28.7272718413       14.0091860622       38.6132003238  LPSA16    7               4.0000000000
     17096       547  AGLC      C6            -28.7728693450       14.6481199032       35.5245160098  LPSA16    7               4.0000000000
     17097       547  AGLC      H61           -28.6803061694       14.5413846981       34.4135318240  LPSA16    7               4.0000000000
     17098       547  AGLC      H62           -29.5511708152       13.9356020144       35.8722646349  LPSA16    7               4.0000000000
     17099       547  AGLC      O6            -29.1701934695       16.0434106275       35.6892983147  LPSA16    7               4.0000000000
     17100       547  AGLC      HO6           -29.6963948939       15.9575533641       36.4386090630  LPSA16    7               4.0000000000
     17101       548  AGLC      C1            -24.9268822254       13.1710922749       39.9328324507  LPSA16    8               5.0000000000
     17102       548  AGLC      H1            -25.5263081237       12.3103460915       39.5884769495  LPSA16    8               5.0000000000
     17103       548  AGLC      C5            -22.5591834508       13.8625922336       40.2153373402  LPSA16    8               5.0000000000
     17104       548  AGLC      H5            -22.8328317501       14.8561204664       39.8400606936  LPSA16    8               5.0000000000
     17105       548  AGLC      O5            -23.5109615605       12.9389920191       39.6195505863  LPSA16    8               5.0000000000
     17106       548  AGLC      C2            -25.0315525379       13.1464755723       41.4170311384  LPSA16    8               5.0000000000
     17107       548  AGLC      H2            -24.7449350964       12.0967132859       41.6529594578  LPSA16    8               5.0000000000
     17108       548  AGLC      O2            -26.3522933335       13.2012220330       41.9438754185  LPSA16    8               5.0000000000
     17109       548  AGLC      C3            -24.1349155975       14.0933370697       42.1297388169  LPSA16    8               5.0000000000
     17110       548  AGLC      H3            -24.4992326755       15.0564236940       41.6567950186  LPSA16    8               5.0000000000
     17111       548  AGLC      O3            -24.4006019522       14.0621700124       43.5370978028  LPSA16    8               5.0000000000
     17112       548  AGLC      C4            -22.7672384980       13.7570734927       41.7603093222  LPSA16    8               5.0000000000
     17113       548  AGLC      H4            -22.5326522543       12.7467477262       42.0401368658  LPSA16    8               5.0000000000
     17114       548  AGLC      O4            -21.8480772945       14.6171925431       42.3914819843  LPSA16    8               5.0000000000
     17115       548  AGLC      HO4           -22.1993025422       15.4737558336       42.3800652601  LPSA16    8               5.0000000000
     17116       548  AGLC      C6            -21.0935105785       13.7406020120       39.7357334439  LPSA16    8               5.0000000000
     17117       548  AGLC      H61           -20.9846777397       13.6322439790       38.6468043611  LPSA16    8               5.0000000000
     17118       548  AGLC      H62           -20.4530255615       14.5519452198       40.0276014644  LPSA16    8               5.0000000000
     17119       548  AGLC      O6            -20.3946914675       12.6725029397       40.3040784562  LPSA16    8               5.0000000000
     17120       548  AGLC      HO6           -20.0901685691       12.8670863559       41.2121845210  LPSA16    8               5.0000000000
     17121       549  AGAL      C1            -27.3239357131       12.3254921486       41.4573847493  LPSA16    9               6.0000000000
     17122       549  AGAL      H1            -27.2886735014       12.2928068868       40.3420235153  LPSA16    9               6.0000000000
     17123       549  AGAL      C5            -27.4367497825       10.7945955102       43.2125447641  LPSA16    9               6.0000000000
     17124       549  AGAL      H5            -26.7907568742       11.5987912369       43.7424973645  LPSA16    9               6.0000000000
     17125       549  AGAL      O5            -27.2393457647       10.9193435583       41.8451689838  LPSA16    9               6.0000000000
     17126       549  AGAL      C2            -28.6764808994       12.8657977379       41.8393925249  LPSA16    9               6.0000000000
     17127       549  AGAL      H2            -29.4430802171       12.2357168448       41.4115621152  LPSA16    9               6.0000000000
     17128       549  AGAL      O2            -28.9773135025       14.0998020811       41.1608705954  LPSA16    9               6.0000000000
     17129       549  AGAL      C3            -28.9297058857       12.7467258858       43.3264191845  LPSA16    9               6.0000000000
     17130       549  AGAL      H3            -28.1908326502       13.4220477269       43.9424563891  LPSA16    9               6.0000000000
     17131       549  AGAL      O3            -30.1298507808       13.3206599685       43.7491515633  LPSA16    9               6.0000000000
     17132       549  AGAL      HO3           -30.2849334474       14.0723960283       43.1585960960  LPSA16    9               6.0000000000
     17133       549  AGAL      C4            -28.8152489759       11.3112908632       43.6505755014  LPSA16    9               6.0000000000
     17134       549  AGAL      H4            -28.8800757390       11.1034293881       44.7734818408  LPSA16    9               6.0000000000
     17135       549  AGAL      O4            -29.7697515850       10.4915148589       43.0499075873  LPSA16    9               6.0000000000
     17136       549  AGAL      HO4           -29.9226567626        9.7552342977       43.6622427513  LPSA16    9               6.0000000000
     17137       549  AGAL      C6            -26.9133507307        9.4993518504       43.8349081587  LPSA16    9               6.0000000000
     17138       549  AGAL      H61           -25.8247167237        9.3174369568       43.6417203355  LPSA16    9               6.0000000000
     17139       549  AGAL      H62           -26.9768832576        9.4575806003       44.9292747136  LPSA16    9               6.0000000000
     17140       549  AGAL      O6            -27.6490287748        8.3933864351       43.4062227539  LPSA16    9               6.0000000000
     17141       549  AGAL      HO6           -27.1359518207        7.9717771914       42.6923548993  LPSA16    9               6.0000000000
     17142       550  AGAL      C1            -29.4726719831       15.3242318852       41.7517281777  LPSA16    10              7.0000000000
     17143       550  AGAL      H1            -30.5509664617       15.1364097295       41.8429972083  LPSA16    10              7.0000000000
     17144       550  AGAL      C5            -27.6274062326       16.1429621909       43.0613392294  LPSA16    10              7.0000000000
     17145       550  AGAL      H5            -27.0412258637       15.2192640665       42.6233508762  LPSA16    10              7.0000000000
     17146       550  AGAL      O5            -29.0301479382       15.8156964044       43.0470213554  LPSA16    10              7.0000000000
     17147       550  AGAL      C2            -29.2038103835       16.4376737233       40.7227968417  LPSA16    10              7.0000000000
     17148       550  AGAL      H2            -29.8923182723       17.3123584899       41.0433947026  LPSA16    10              7.0000000000
     17149       550  AGAL      O2            -29.8785612316       16.2654439513       39.5532095562  LPSA16    10              7.0000000000
     17150       550  AGAL      HO2           -30.3939047878       17.0332742854       39.3379401176  LPSA16    10              7.0000000000
     17151       550  AGAL      C3            -27.7713316618       16.8353201540       40.6928251787  LPSA16    10              7.0000000000
     17152       550  AGAL      H3            -27.2581732614       15.9025635848       40.4679648945  LPSA16    10              7.0000000000
     17153       550  AGAL      O3            -27.4468864071       17.8343752018       39.7732034444  LPSA16    10              7.0000000000
     17154       550  AGAL      HO3           -26.9791701854       17.4045314276       39.0151094934  LPSA16    10              7.0000000000
     17155       550  AGAL      C4            -27.3632186486       17.2897492795       42.0524071915  LPSA16    10              7.0000000000
     17156       550  AGAL      H4            -26.2768624543       17.4953348080       42.1099272557  LPSA16    10              7.0000000000
     17157       550  AGAL      O4            -28.0210492020       18.4405250650       42.4965010455  LPSA16    10              7.0000000000
     17158       550  AGAL      HO4           -28.9194716279       18.1721656246       42.5675127347  LPSA16    10              7.0000000000
     17159       550  AGAL      C6            -27.0009147410       16.3917490170       44.3959537205  LPSA16    10              7.0000000000
     17160       550  AGAL      H61           -27.2111182452       15.5963528233       45.1044438806  LPSA16    10              7.0000000000
     17161       550  AGAL      H62           -25.8152363644       16.3402667726       44.2564473849  LPSA16    10              7.0000000000
     17162       550  AGAL      O6            -27.2675966162       17.6166640460       45.1112340130  LPSA16    10              7.0000000000
     17163       550  AGAL      HO6           -27.7542851958       17.3873891573       45.9237589285  LPSA16    10              7.0000000000
     17164       551  BGLC      C1            -23.7131718812       13.2861447093       44.5018065681  LPSA16    11              6.0000000000
     17165       551  BGLC      H1            -22.7733135343       13.8110004232       44.5883763758  LPSA16    11              6.0000000000
     17166       551  BGLC      C5            -22.9102721712       10.9958333440       45.1248117688  LPSA16    11              6.0000000000
     17167       551  BGLC      H5            -21.8519943321       11.3488516934       45.3871201921  LPSA16    11              6.0000000000
     17168       551  BGLC      O5            -23.6050748368       11.8673947564       44.0830650888  LPSA16    11              6.0000000000
     17169       551  BGLC      C2            -24.4826978958       13.3172020425       45.7977571702  LPSA16    11              6.0000000000
     17170       551  BGLC      H2            -25.5441357908       12.9688705693       45.7293388291  LPSA16    11              6.0000000000
     17171       551  BGLC      O2            -24.6313080377       14.6992925817       46.0886391483  LPSA16    11              6.0000000000
     17172       551  BGLC      HO2           -25.5329578242       14.8736856105       46.2788110113  LPSA16    11              6.0000000000
     17173       551  BGLC      C3            -23.8896253864       12.5058460871       46.8736276645  LPSA16    11              6.0000000000
     17174       551  BGLC      H3            -22.8821234018       13.0054439233       47.1984917368  LPSA16    11              6.0000000000
     17175       551  BGLC      O3            -24.7469666598       12.5971501929       48.0056213318  LPSA16    11              6.0000000000
     17176       551  BGLC      C4            -23.7376698261       11.1328301898       46.4390836423  LPSA16    11              6.0000000000
     17177       551  BGLC      H4            -24.7912016421       10.7621299166       46.2001611147  LPSA16    11              6.0000000000
     17178       551  BGLC      O4            -23.2548514633       10.2954797516       47.4766894645  LPSA16    11              6.0000000000
     17179       551  BGLC      HO4           -23.9606569221       10.1850903617       48.1247908570  LPSA16    11              6.0000000000
     17180       551  BGLC      C6            -22.6681565867        9.5981789124       44.5291127165  LPSA16    11              6.0000000000
     17181       551  BGLC      H61           -22.4854491914        8.8111670668       45.2481190913  LPSA16    11              6.0000000000
     17182       551  BGLC      H62           -23.5563910010        9.3623473395       43.8913252379  LPSA16    11              6.0000000000
     17183       551  BGLC      O6            -21.5835804244        9.5286716868       43.5637942269  LPSA16    11              6.0000000000
     17184       551  BGLC      HO6           -20.9492104760        9.0148788611       44.0054369298  LPSA16    11              6.0000000000
     17185       552  BGLCNA    C1            -24.2697627636       12.9515322312       49.3238540420  LPSA16    12              7.0000000000
     17186       552  BGLCNA    H1            -24.2710564678       14.0917881655       49.3874222992  LPSA16    12              7.0000000000
     17187       552  BGLCNA    C5            -22.4434690220       12.9197033327       50.8763077070  LPSA16    12              7.0000000000
     17188       552  BGLCNA    H5            -22.4411471320       14.0961824785       50.9814236466  LPSA16    12              7.0000000000
     17189       552  BGLCNA    O5            -22.9334422961       12.4685108192       49.5875345322  LPSA16    12              7.0000000000
     17190       552  BGLCNA    C2            -25.2022749336       12.3541604988       50.3245054808  LPSA16    12              7.0000000000
     17191       552  BGLCNA    H2            -24.9798766700       11.2036459127       50.3375086743  LPSA16    12              7.0000000000
     17192       552  BGLCNA    N             -26.5939138848       12.7512307586       50.0347611965  LPSA16    12              7.0000000000
     17193       552  BGLCNA    HN            -26.6291298788       13.6945672624       49.9972643287  LPSA16    12              7.0000000000
     17194       552  BGLCNA    C             -27.5282046973       11.8612551608       49.8903426450  LPSA16    12              7.0000000000
     17195       552  BGLCNA    O             -27.2797160866       10.6798539519       50.0855928044  LPSA16    12              7.0000000000
     17196       552  BGLCNA    CT            -28.9010543244       12.3678177821       49.5677689528  LPSA16    12              7.0000000000
     17197       552  BGLCNA    HT1           -29.6157397247       12.1919432746       50.3918503408  LPSA16    12              7.0000000000
     17198       552  BGLCNA    HT2           -29.3764196220       11.7115548831       48.7104760971  LPSA16    12              7.0000000000
     17199       552  BGLCNA    HT3           -28.7789012553       13.4272128289       49.2316245990  LPSA16    12              7.0000000000
     17200       552  BGLCNA    C3            -24.8267858822       12.7567658661       51.6995695120  LPSA16    12              7.0000000000
     17201       552  BGLCNA    H3            -24.9538085759       13.9247978346       51.8605307917  LPSA16    12              7.0000000000
     17202       552  BGLCNA    O3            -25.7224405221       12.2513779610       52.7272334264  LPSA16    12              7.0000000000
     17203       552  BGLCNA    C4            -23.4212620043       12.3166700916       51.9591692987  LPSA16    12              7.0000000000
     17204       552  BGLCNA    H4            -23.2607408965       11.1740202038       51.9037868612  LPSA16    12              7.0000000000
     17205       552  BGLCNA    O4            -22.9896102870       12.6755860876       53.2294962294  LPSA16    12              7.0000000000
     17206       552  BGLCNA    HO4           -22.7744868131       13.6523762076       53.2834945119  LPSA16    12              7.0000000000
     17207       552  BGLCNA    C6            -20.9576292794       12.5137879005       50.9528560558  LPSA16    12              7.0000000000
     17208       552  BGLCNA    H61           -20.5583151005       12.7399524183       51.9144325068  LPSA16    12              7.0000000000
     17209       552  BGLCNA    H62           -20.9917447923       11.4370262191       50.8287962869  LPSA16    12              7.0000000000
     17210       552  BGLCNA    O6            -20.2477597689       13.0392950696       49.8597561973  LPSA16    12              7.0000000000
     17211       552  BGLCNA    HO6           -19.9510563066       13.8761987773       50.1903398796  LPSA16    12              7.0000000000
     17212       553  AGAL      C1            -26.0493148807       13.1773172955       53.8132743488  LPSA16    13              8.0000000000
     17213       553  AGAL      H1            -25.1106670995       13.6365550420       54.1959401301  LPSA16    13              8.0000000000
     17214       553  AGAL      C5            -28.3927376633       13.3986151302       53.2950732168  LPSA16    13              8.0000000000
     17215       553  AGAL      H5            -28.1911604444       12.6185703382       52.5641412600  LPSA16    13              8.0000000000
     17216       553  AGAL      O5            -27.1530366693       14.0969556745       53.4918445955  LPSA16    13              8.0000000000
     17217       553  AGAL      C2            -26.5648242846       12.4773914988       55.1010141246  LPSA16    13              8.0000000000
     17218       553  AGAL      H2            -26.9490585632       13.2546098159       55.7917211299  LPSA16    13              8.0000000000
     17219       553  AGAL      O2            -25.5495416870       11.7590352253       55.7701983428  LPSA16    13              8.0000000000
     17220       553  AGAL      C3            -27.9084421396       11.7362425082       54.8979691660  LPSA16    13              8.0000000000
     17221       553  AGAL      H3            -27.8040852873       11.0697185602       54.0477453328  LPSA16    13              8.0000000000
     17222       553  AGAL      O3            -28.2288136258       10.8597012628       55.9888739531  LPSA16    13              8.0000000000
     17223       553  AGAL      HO3           -28.6106514036       10.0426111292       55.6848713412  LPSA16    13              8.0000000000
     17224       553  AGAL      C4            -28.9312814648       12.6588077050       54.5514025965  LPSA16    13              8.0000000000
     17225       553  AGAL      H4            -29.8844006339       12.1099593678       54.1954731349  LPSA16    13              8.0000000000
     17226       553  AGAL      O4            -29.2424188089       13.5794474658       55.5743212917  LPSA16    13              8.0000000000
     17227       553  AGAL      HO4           -28.4976938924       13.9762363824       56.0499681296  LPSA16    13              8.0000000000
     17228       553  AGAL      C6            -29.4566449638       14.1612743928       52.5301443486  LPSA16    13              8.0000000000
     17229       553  AGAL      H61           -29.0150742003       14.6017064453       51.6253596531  LPSA16    13              8.0000000000
     17230       553  AGAL      H62           -30.3259534318       13.4763751972       52.3684678279  LPSA16    13              8.0000000000
     17231       553  AGAL      O6            -29.9735357252       15.2282018054       53.2985910507  LPSA16    13              8.0000000000
     17232       553  AGAL      HO6           -30.6166253652       14.8696209968       53.9299633642  LPSA16    13              8.0000000000
     17233       554  ARHM      C1            -25.0752943051       12.1978057804       57.0117786358  LPSA16    14              9.0000000000
     17234       554  ARHM      H1            -25.2307586041       13.2965544252       56.9981767125  LPSA16    14              9.0000000000
     17235       554  ARHM      C5            -23.3902593179       10.6018764446       57.1930138837  LPSA16    14              9.0000000000
     17236       554  ARHM      H5            -23.7748686737       10.1626346599       56.1976867078  LPSA16    14              9.0000000000
     17237       554  ARHM      O5            -23.6879096691       11.9479544013       57.1718909996  LPSA16    14              9.0000000000
     17238       554  ARHM      C2            -25.8727776016       11.5095620201       58.1413490634  LPSA16    14              9.0000000000
     17239       554  ARHM      H2            -26.9070554107       11.7045791096       57.8875987320  LPSA16    14              9.0000000000
     17240       554  ARHM      O2            -25.5681001524       11.9397789073       59.4330148990  LPSA16    14              9.0000000000
     17241       554  ARHM      C3            -25.5918245281       10.0350857227       58.1095432995  LPSA16    14              9.0000000000
     17242       554  ARHM      H3            -25.7232330923        9.6830316297       57.0440121713  LPSA16    14              9.0000000000
     17243       554  ARHM      O3            -26.4718945213        9.2530997403       58.8567888868  LPSA16    14              9.0000000000
     17244       554  ARHM      HO3           -26.2119033652        9.4115891699       59.8104957846  LPSA16    14              9.0000000000
     17245       554  ARHM      C4            -24.1347079171        9.8711237631       58.3490442956  LPSA16    14              9.0000000000
     17246       554  ARHM      H4            -23.7298425455       10.3116649731       59.2902338481  LPSA16    14              9.0000000000
     17247       554  ARHM      O4            -23.8259075138        8.4532982125       58.4446785014  LPSA16    14              9.0000000000
     17248       554  ARHM      HO4           -23.5351704636        8.1330168361       59.2969967688  LPSA16    14              9.0000000000
     17249       554  ARHM      C6            -21.8659636502       10.4043431388       57.2492155848  LPSA16    14              9.0000000000
     17250       554  ARHM      H61           -21.2695949253       11.0759059650       56.5358243550  LPSA16    14              9.0000000000
     17251       554  ARHM      H62           -21.5913902681       10.5236877661       58.3170764683  LPSA16    14              9.0000000000
     17252       554  ARHM      H63           -21.4337942023        9.4489725812       56.9421594120  LPSA16    14              9.0000000000
     17253       555  ARHM      C1            -25.5657776466       13.2478037549       59.7267990175  LPSA16    15             10.0000000000
     17254       555  ARHM      H1            -26.2356535682       13.8160122300       59.0458905905  LPSA16    15             10.0000000000
     17255       555  ARHM      C5            -23.2641279077       13.4003599202       60.6468530148  LPSA16    15             10.0000000000
     17256       555  ARHM      H5            -22.9605185397       12.3249513640       60.4457705401  LPSA16    15             10.0000000000
     17257       555  ARHM      O5            -24.2505871628       13.8548709401       59.6688136410  LPSA16    15             10.0000000000
     17258       555  ARHM      C2            -26.1048641367       13.4538462977       61.1407671534  LPSA16    15             10.0000000000
     17259       555  ARHM      H2            -27.0995460984       12.8696146847       61.2133420761  LPSA16    15             10.0000000000
     17260       555  ARHM      O2            -26.2913705492       14.8886723492       61.3234079317  LPSA16    15             10.0000000000
     17261       555  ARHM      C3            -25.1320954636       12.8725244166       62.1677656617  LPSA16    15             10.0000000000
     17262       555  ARHM      H3            -24.9524514352       11.8040752326       61.8628392879  LPSA16    15             10.0000000000
     17263       555  ARHM      O3            -25.8828503144       12.7988046202       63.4092175029  LPSA16    15             10.0000000000
     17264       555  ARHM      C4            -23.8663962516       13.5745349466       62.0487117432  LPSA16    15             10.0000000000
     17265       555  ARHM      H4            -24.0735358629       14.7144908428       62.1496903561  LPSA16    15             10.0000000000
     17266       555  ARHM      O4            -22.8220035115       13.2316830999       62.9635513464  LPSA16    15             10.0000000000
     17267       555  ARHM      HO4           -22.1861906467       13.9312547968       62.9565205260  LPSA16    15             10.0000000000
     17268       555  ARHM      C6            -21.9758060621       14.1647562992       60.4460959132  LPSA16    15             10.0000000000
     17269       555  ARHM      H61           -21.1258041628       13.8257165294       61.0956562646  LPSA16    15             10.0000000000
     17270       555  ARHM      H62           -21.7560044968       14.2367946819       59.3910198679  LPSA16    15             10.0000000000
     17271       555  ARHM      H63           -22.0343995474       15.2114310018       60.8578185328  LPSA16    15             10.0000000000
     17272       556  BMANNA    C1            -26.8885217338       15.3762534155       62.5145562334  LPSA16    16             11.0000000000
     17273       556  BMANNA    H1            -26.0971701515       15.2462223745       63.3432051365  LPSA16    16             11.0000000000
     17274       556  BMANNA    C5            -28.5360731319       15.2213051836       64.1851548173  LPSA16    16             11.0000000000
     17275       556  BMANNA    H5            -27.7822154681       15.1495991901       64.9800677769  LPSA16    16             11.0000000000
     17276       556  BMANNA    O5            -28.0700082292       14.6927700770       62.9158851071  LPSA16    16             11.0000000000
     17277       556  BMANNA    C2            -27.1740030416       16.8777604272       62.2781089586  LPSA16    16             11.0000000000
     17278       556  BMANNA    H2            -26.1784439570       17.3073812263       61.9912908466  LPSA16    16             11.0000000000
     17279       556  BMANNA    N             -28.1250838169       17.2487948155       61.2264456342  LPSA16    16             11.0000000000
     17280       556  BMANNA    HN            -29.0348545776       17.2901947119       61.5688724990  LPSA16    16             11.0000000000
     17281       556  BMANNA    C             -27.8157817320       17.4555375945       59.9704010620  LPSA16    16             11.0000000000
     17282       556  BMANNA    O             -26.6238051461       17.4269882848       59.5582221915  LPSA16    16             11.0000000000
     17283       556  BMANNA    CT            -28.9704349148       17.7366940602       59.1331689300  LPSA16    16             11.0000000000
     17284       556  BMANNA    HT1           -29.0976453085       18.7654278990       58.8344492748  LPSA16    16             11.0000000000
     17285       556  BMANNA    HT2           -29.9412619152       17.4097907413       59.5043001239  LPSA16    16             11.0000000000
     17286       556  BMANNA    HT3           -28.8762908259       17.2214162886       58.1231520073  LPSA16    16             11.0000000000
     17287       556  BMANNA    C3            -27.6185010499       17.4236279971       63.6119771117  LPSA16    16             11.0000000000
     17288       556  BMANNA    H3            -26.8233602159       17.2530319353       64.3839812837  LPSA16    16             11.0000000000
     17289       556  BMANNA    O3            -27.8178879746       18.8079096258       63.6122488842  LPSA16    16             11.0000000000
     17290       556  BMANNA    HO3           -27.3065630669       19.2216463581       64.2950500102  LPSA16    16             11.0000000000
     17291       556  BMANNA    C4            -28.8890248503       16.7191139029       64.1045846713  LPSA16    16             11.0000000000
     17292       556  BMANNA    H4            -29.7401061443       16.8653990639       63.4124605202  LPSA16    16             11.0000000000
     17293       556  BMANNA    O4            -29.4124071951       17.1271784831       65.3816866120  LPSA16    16             11.0000000000
     17294       556  BMANNA    HO4           -30.3472249090       16.9335450925       65.4353184152  LPSA16    16             11.0000000000
     17295       556  BMANNA    C6            -29.7300887415       14.4358642148       64.7427751243  LPSA16    16             11.0000000000
     17296       556  BMANNA    H61           -29.6705245876       14.5016702906       65.8875394407  LPSA16    16             11.0000000000
     17297       556  BMANNA    H62           -30.6782371875       14.8845981465       64.4389269682  LPSA16    16             11.0000000000
     17298       556  BMANNA    O6            -29.7510947408       13.0445956355       64.3660927576  LPSA16    16             11.0000000000
     17299       556  BMANNA    HO6           -30.6158265991       12.9795417559       63.9036969990  LPSA16    16             11.0000000000
     17300       557  BGLCNA    C1            -25.6406262985       11.7151640659       64.1715778089  LPSA16    17             11.0000000000
     17301       557  BGLCNA    H1            -24.5782775267       11.3181852631       63.9082176002  LPSA16    17             11.0000000000
     17302       557  BGLCNA    C5            -26.3028852807        9.3946118482       64.5563394407  LPSA16    17             11.0000000000
     17303       557  BGLCNA    H5            -25.2699736699        8.9591778573       64.2825289487  LPSA16    17             11.0000000000
     17304       557  BGLCNA    O5            -26.4836922825       10.5918119229       63.7849982893  LPSA16    17             11.0000000000
     17305       557  BGLCNA    C2            -25.8472990606       12.1024187081       65.5899343931  LPSA16    17             11.0000000000
     17306       557  BGLCNA    H2            -26.9055502158       12.4620429448       65.8249043900  LPSA16    17             11.0000000000
     17307       557  BGLCNA    N             -25.0934107137       13.2532058834       65.8849826081  LPSA16    17             11.0000000000
     17308       557  BGLCNA    HN            -24.1996623328       13.3803288053       65.4150135415  LPSA16    17             11.0000000000
     17309       557  BGLCNA    C             -25.2840186984       14.1826507935       66.8043620798  LPSA16    17             11.0000000000
     17310       557  BGLCNA    O             -26.3096117768       14.2313766757       67.4729873017  LPSA16    17             11.0000000000
     17311       557  BGLCNA    CT            -24.1900204851       15.1672232293       66.9728872304  LPSA16    17             11.0000000000
     17312       557  BGLCNA    HT1           -24.2937254135       16.1840886124       66.5529393721  LPSA16    17             11.0000000000
     17313       557  BGLCNA    HT2           -23.2433979256       14.6596574714       66.7043805047  LPSA16    17             11.0000000000
     17314       557  BGLCNA    HT3           -24.0093399269       15.3729785136       68.1408097225  LPSA16    17             11.0000000000
     17315       557  BGLCNA    C3            -25.5386120328       10.8682674071       66.4076579941  LPSA16    17             11.0000000000
     17316       557  BGLCNA    H3            -24.4868223918       10.6142632818       66.0441361901  LPSA16    17             11.0000000000
     17317       557  BGLCNA    O3            -25.4651140757       11.2806397254       67.8205355914  LPSA16    17             11.0000000000
     17318       557  BGLCNA    C4            -26.5402432351        9.7791996347       66.0496966154  LPSA16    17             11.0000000000
     17319       557  BGLCNA    H4            -27.6184790965       10.1625128171       66.1123142204  LPSA16    17             11.0000000000
     17320       557  BGLCNA    O4            -26.4630732425        8.6674077762       66.9186044206  LPSA16    17             11.0000000000
     17321       557  BGLCNA    HO4           -27.0425882935        7.9416413034       66.7204061560  LPSA16    17             11.0000000000
     17322       557  BGLCNA    C6            -27.3361185858        8.3373933669       64.1200051697  LPSA16    17             11.0000000000
     17323       557  BGLCNA    H61           -26.8895806213        7.3621862970       64.1272946536  LPSA16    17             11.0000000000
     17324       557  BGLCNA    H62           -28.2265541425        8.3178833681       64.8212395067  LPSA16    17             11.0000000000
     17325       557  BGLCNA    O6            -27.8285535793        8.5667820383       62.7926115083  LPSA16    17             11.0000000000
     17326       557  BGLCNA    HO6           -27.0970768472        8.5518779655       62.1856770532  LPSA16    17             11.0000000000
     17327       558  AGAL      C1            -24.4713260535       10.5898678283       68.6198653987  LPSA16    18             12.0000000000
     17328       558  AGAL      H1            -24.8628183294        9.5464973159       68.8082567594  LPSA16    18             12.0000000000
     17329       558  AGAL      C5            -22.5574990448       11.8280044219       67.8636918791  LPSA16    18             12.0000000000
     17330       558  AGAL      H5            -23.2726835773       12.5178833104       67.4068928888  LPSA16    18             12.0000000000
     17331       558  AGAL      O5            -23.2144310613       10.5147549465       67.9834320655  LPSA16    18             12.0000000000
     17332       558  AGAL      C2            -24.2215831632       11.3088897186       70.0000206359  LPSA16    18             12.0000000000
     17333       558  AGAL      H2            -23.4284062408       10.6307723941       70.3908489884  LPSA16    18             12.0000000000
     17334       558  AGAL      O2            -25.3209241676       11.1516194277       70.8342757016  LPSA16    18             12.0000000000
     17335       558  AGAL      C3            -23.5934747951       12.6525513736       69.8682924558  LPSA16    18             12.0000000000
     17336       558  AGAL      H3            -24.2112685013       13.2681948153       69.0958348126  LPSA16    18             12.0000000000
     17337       558  AGAL      O3            -23.5603112416       13.3517948488       71.0758896640  LPSA16    18             12.0000000000
     17338       558  AGAL      HO3           -23.8543644521       14.2580399802       70.9682873819  LPSA16    18             12.0000000000
     17339       558  AGAL      C4            -22.3055633274       12.5113784576       69.1634745928  LPSA16    18             12.0000000000
     17340       558  AGAL      H4            -21.7853942989       13.4632713876       68.9039691178  LPSA16    18             12.0000000000
     17341       558  AGAL      O4            -21.3595571830       11.7654487773       69.9734134928  LPSA16    18             12.0000000000
     17342       558  AGAL      HO4           -21.0203091854       12.3667501889       70.7236544006  LPSA16    18             12.0000000000
     17343       558  AGAL      C6            -21.5532850349       11.7201679980       66.8042742825  LPSA16    18             12.0000000000
     17344       558  AGAL      H61           -22.0914968945       11.4733315749       65.8877991861  LPSA16    18             12.0000000000
     17345       558  AGAL      H62           -21.1397348336       12.7536865841       66.6499463921  LPSA16    18             12.0000000000
     17346       558  AGAL      O6            -20.6043911174       10.7977090192       66.9803033045  LPSA16    18             12.0000000000
     17347       558  AGAL      HO6           -20.7331164911       10.1554330642       67.6707071977  LPSA16    18             12.0000000000
     17348       559  ARHM      C1            -24.8803818977       10.8382375790       72.1803514454  LPSA16    19             13.0000000000
     17349       559  ARHM      H1            -23.8581532556       11.1281888718       72.3185909119  LPSA16    19             13.0000000000
     17350       559  ARHM      C5            -26.0072421902        8.7529533999       72.2512180912  LPSA16    19             13.0000000000
     17351       559  ARHM      H5            -26.3615631283        8.9827529114       71.2133247196  LPSA16    19             13.0000000000
     17352       559  ARHM      O5            -24.7591566020        9.4282444718       72.4162684983  LPSA16    19             13.0000000000
     17353       559  ARHM      C2            -25.8473426336       11.4728186176       73.1100514097  LPSA16    19             13.0000000000
     17354       559  ARHM      H2            -26.0468344036       12.4998114633       72.9420985559  LPSA16    19             13.0000000000
     17355       559  ARHM      O2            -25.3965235239       11.3367450449       74.4131644751  LPSA16    19             13.0000000000
     17356       559  ARHM      C3            -27.2013561738       10.7077220231       72.9859276785  LPSA16    19             13.0000000000
     17357       559  ARHM      H3            -27.5128193836       10.7816858637       71.9471750908  LPSA16    19             13.0000000000
     17358       559  ARHM      O3            -28.1808780208       11.2942115195       73.7644258584  LPSA16    19             13.0000000000
     17359       559  ARHM      HO3           -27.8076315852       11.4015549439       74.6464134549  LPSA16    19             13.0000000000
     17360       559  ARHM      C4            -27.0745422590        9.2658196812       73.2443334127  LPSA16    19             13.0000000000
     17361       559  ARHM      H4            -26.6952755522        9.1780342613       74.2703943704  LPSA16    19             13.0000000000
     17362       559  ARHM      O4            -28.2602414612        8.5387329062       73.1708570575  LPSA16    19             13.0000000000
     17363       559  ARHM      HO4           -28.5511372408        8.5940740854       72.2126258713  LPSA16    19             13.0000000000
     17364       559  ARHM      C6            -25.8284498041        7.2249505769       72.3031700958  LPSA16    19             13.0000000000
     17365       559  ARHM      H61           -25.1026404519        7.0810161071       71.5186681997  LPSA16    19             13.0000000000
     17366       559  ARHM      H62           -25.4277044980        6.8107560553       73.2001761489  LPSA16    19             13.0000000000
     17367       559  ARHM      H63           -26.7467262674        6.6714502937       72.0875448643  LPSA16    19             13.0000000000
     17368       560  ARHM      C1            -24.3641167846       12.2220883802       74.6981797177  LPSA16    20             14.0000000000
     17369       560  ARHM      H1            -24.2309977968       13.0168915007       73.8936196974  LPSA16    20             14.0000000000
     17370       560  ARHM      C5            -22.9563208331       10.7808475176       75.9960310464  LPSA16    20             14.0000000000
     17371       560  ARHM      H5            -23.7584942445       10.0223973087       75.8071112250  LPSA16    20             14.0000000000
     17372       560  ARHM      O5            -23.0602969800       11.6661311205       74.8741575474  LPSA16    20             14.0000000000
     17373       560  ARHM      C2            -24.7149821748       13.0323218196       75.9438944127  LPSA16    20             14.0000000000
     17374       560  ARHM      H2            -25.8112324282       13.4070384460       75.7904987900  LPSA16    20             14.0000000000
     17375       560  ARHM      O2            -23.8040028965       14.1220467137       76.2145535291  LPSA16    20             14.0000000000
     17376       560  ARHM      C3            -24.6077239046       12.1024547208       77.0746584307  LPSA16    20             14.0000000000
     17377       560  ARHM      H3            -25.3630837400       11.2395780222       76.9570890266  LPSA16    20             14.0000000000
     17378       560  ARHM      O3            -25.0372564106       12.8450638617       78.2431898216  LPSA16    20             14.0000000000
     17379       560  ARHM      C4            -23.2427079949       11.5166055468       77.2147849866  LPSA16    20             14.0000000000
     17380       560  ARHM      H4            -22.4739868108       12.2581014087       77.2882629629  LPSA16    20             14.0000000000
     17381       560  ARHM      O4            -23.1920830143       10.7326114140       78.4294019453  LPSA16    20             14.0000000000
     17382       560  ARHM      HO4           -22.5689636459       10.1304791432       78.0714846557  LPSA16    20             14.0000000000
     17383       560  ARHM      C6            -21.6509683907       10.1015020633       75.9818768401  LPSA16    20             14.0000000000
     17384       560  ARHM      H61           -20.7035396073       10.7158835867       76.0487105533  LPSA16    20             14.0000000000
     17385       560  ARHM      H62           -21.6246011113        9.3257357083       76.7492574554  LPSA16    20             14.0000000000
     17386       560  ARHM      H63           -21.4254274552        9.5363152829       75.0059134709  LPSA16    20             14.0000000000
     17387       561  BMANNA    C1            -24.2429884108       15.1857013684       75.4501725836  LPSA16    21             15.0000000000
     17388       561  BMANNA    H1            -25.0197380205       14.8517654503       74.6495731600  LPSA16    21             15.0000000000
     17389       561  BMANNA    C5            -23.7435357192       16.6684264961       73.6578092950  LPSA16    21             15.0000000000
     17390       561  BMANNA    H5            -24.6943544810       16.3572932394       73.0422409194  LPSA16    21             15.0000000000
     17391       561  BMANNA    O5            -23.1797556830       15.6432145386       74.5460975074  LPSA16    21             15.0000000000
     17392       561  BMANNA    C2            -24.7216049247       16.2972574498       76.3268603500  LPSA16    21             15.0000000000
     17393       561  BMANNA    H2            -25.5331190698       15.8055551173       76.8663433126  LPSA16    21             15.0000000000
     17394       561  BMANNA    N             -23.6905140638       16.7429753334       77.2602735953  LPSA16    21             15.0000000000
     17395       561  BMANNA    HN            -22.8361951427       16.9794912792       76.8630196157  LPSA16    21             15.0000000000
     17396       561  BMANNA    C             -23.9102617857       17.1161467977       78.6142451918  LPSA16    21             15.0000000000
     17397       561  BMANNA    O             -25.0584192428       17.2631163181       79.0340579138  LPSA16    21             15.0000000000
     17398       561  BMANNA    CT            -22.6827728777       17.3866295178       79.5125915666  LPSA16    21             15.0000000000
     17399       561  BMANNA    HT1           -22.3186938145       18.4195058883       79.3040814335  LPSA16    21             15.0000000000
     17400       561  BMANNA    HT2           -21.9685363946       16.5682007395       79.3224353366  LPSA16    21             15.0000000000
     17401       561  BMANNA    HT3           -22.9816948741       17.3467402211       80.6000991146  LPSA16    21             15.0000000000
     17402       561  BMANNA    C3            -25.2737104121       17.3594746308       75.4428482744  LPSA16    21             15.0000000000
     17403       561  BMANNA    H3            -26.1148121008       16.8369520544       75.0091666053  LPSA16    21             15.0000000000
     17404       561  BMANNA    O3            -25.7876745649       18.4603115037       76.1769203835  LPSA16    21             15.0000000000
     17405       561  BMANNA    HO3           -25.1000523260       18.7705929744       76.7354970047  LPSA16    21             15.0000000000
     17406       561  BMANNA    C4            -24.2159011099       17.8474380104       74.4866217523  LPSA16    21             15.0000000000
     17407       561  BMANNA    H4            -23.2954845158       18.4143477586       75.0002820064  LPSA16    21             15.0000000000
     17408       561  BMANNA    O4            -24.6978667887       18.8299106488       73.6152290754  LPSA16    21             15.0000000000
     17409       561  BMANNA    HO4           -24.2497809651       19.6907409796       73.7703874424  LPSA16    21             15.0000000000
     17410       561  BMANNA    C6            -22.8098233663       17.0627563581       72.6348027846  LPSA16    21             15.0000000000
     17411       561  BMANNA    H61           -23.2589177763       17.7056238106       71.8494922130  LPSA16    21             15.0000000000
     17412       561  BMANNA    H62           -22.0898702703       17.8161909393       73.0558617198  LPSA16    21             15.0000000000
     17413       561  BMANNA    O6            -22.0150633405       16.0667058445       72.0654385618  LPSA16    21             15.0000000000
     17414       561  BMANNA    HO6           -21.5773111613       15.6030682100       72.7784055652  LPSA16    21             15.0000000000
     17415       562  BGLCNA    C1            -25.7880433399       12.2226599983       79.2248726046  LPSA16    22             15.0000000000
     17416       562  BGLCNA    H1            -25.6500257815       11.1029068158       79.2753119810  LPSA16    22             15.0000000000
     17417       562  BGLCNA    C5            -27.9645245004       11.7092429635       80.1145289529  LPSA16    22             15.0000000000
     17418       562  BGLCNA    H5            -27.6353033962       10.5864176753       80.0727605020  LPSA16    22             15.0000000000
     17419       562  BGLCNA    O5            -27.1687660531       12.3858945669       79.0803056561  LPSA16    22             15.0000000000
     17420       562  BGLCNA    C2            -25.3744931817       12.7850968745       80.5602818744  LPSA16    22             15.0000000000
     17421       562  BGLCNA    H2            -25.6648917295       13.8907387979       80.4633107900  LPSA16    22             15.0000000000
     17422       562  BGLCNA    N             -23.9432529422       12.6222522432       80.7025670875  LPSA16    22             15.0000000000
     17423       562  BGLCNA    HN            -23.5842074090       11.7494471462       80.4501896382  LPSA16    22             15.0000000000
     17424       562  BGLCNA    C             -23.1503542803       13.4666698442       81.3295640408  LPSA16    22             15.0000000000
     17425       562  BGLCNA    O             -23.5959517740       14.5083806730       81.8448112003  LPSA16    22             15.0000000000
     17426       562  BGLCNA    CT            -21.7103375711       13.1112571445       81.4359073222  LPSA16    22             15.0000000000
     17427       562  BGLCNA    HT1           -21.3036121547       13.5565163752       80.5353412834  LPSA16    22             15.0000000000
     17428       562  BGLCNA    HT2           -21.6277241298       12.0118957984       81.2752873926  LPSA16    22             15.0000000000
     17429       562  BGLCNA    HT3           -21.2359087216       13.3358797493       82.3679651303  LPSA16    22             15.0000000000
     17430       562  BGLCNA    C3            -26.1569112791       12.1474904296       81.6855161512  LPSA16    22             15.0000000000
     17431       562  BGLCNA    H3            -25.9842426499       11.0427854334       81.6419517197  LPSA16    22             15.0000000000
     17432       562  BGLCNA    O3            -25.5918573144       12.6560194446       82.8729300216  LPSA16    22             15.0000000000
     17433       562  BGLCNA    C4            -27.6613981875       12.3399793939       81.4704242134  LPSA16    22             15.0000000000
     17434       562  BGLCNA    H4            -27.8103004759       13.3861604854       81.4144045074  LPSA16    22             15.0000000000
     17435       562  BGLCNA    O4            -28.4408100292       11.7987161751       82.5140850489  LPSA16    22             15.0000000000
     17436       562  BGLCNA    HO4           -29.1690224500       12.4122083376       82.7130071916  LPSA16    22             15.0000000000
     17437       562  BGLCNA    C6            -29.4271334979       11.8790604528       79.7284495560  LPSA16    22             15.0000000000
     17438       562  BGLCNA    H61           -29.9784477814       11.6710351598       80.6924177192  LPSA16    22             15.0000000000
     17439       562  BGLCNA    H62           -29.6574391332       12.9331142626       79.4648784538  LPSA16    22             15.0000000000
     17440       562  BGLCNA    O6            -29.8967766733       10.9510045797       78.8100863794  LPSA16    22             15.0000000000
     17441       562  BGLCNA    HO6           -29.3646510010       11.0066346883       78.0328486455  LPSA16    22             15.0000000000
     17442       563  AGAL      C1            -25.7711142048       11.9777080997       84.0628261254  LPSA16    23             16.0000000000
     17443       563  AGAL      H1            -26.7913527772       12.1344888467       84.5106287163  LPSA16    23             16.0000000000
     17444       563  AGAL      C5            -24.1852943637       10.2275459528       83.7583018441  LPSA16    23             16.0000000000
     17445       563  AGAL      H5            -23.8163208234       10.8137139922       82.8366412438  LPSA16    23             16.0000000000
     17446       563  AGAL      O5            -25.5317797208       10.5681331854       83.9976212264  LPSA16    23             16.0000000000
     17447       563  AGAL      C2            -24.8710516920       12.5486802326       85.1427633740  LPSA16    23             16.0000000000
     17448       563  AGAL      H2            -25.0962049669       11.9675764456       86.0076373284  LPSA16    23             16.0000000000
     17449       563  AGAL      O2            -25.1730956401       13.8761561152       85.5000844886  LPSA16    23             16.0000000000
     17450       563  AGAL      C3            -23.4279160720       12.2544945600       84.9194901020  LPSA16    23             16.0000000000
     17451       563  AGAL      H3            -23.2124960668       12.6069192829       83.8641570193  LPSA16    23             16.0000000000
     17452       563  AGAL      O3            -22.5320762331       12.9440327001       85.7108298168  LPSA16    23             16.0000000000
     17453       563  AGAL      HO3           -22.8971392549       12.8597750175       86.6206525111  LPSA16    23             16.0000000000
     17454       563  AGAL      C4            -23.2694049633       10.7637339770       84.8901212015  LPSA16    23             16.0000000000
     17455       563  AGAL      H4            -22.2290585147       10.4465936480       84.6506069022  LPSA16    23             16.0000000000
     17456       563  AGAL      O4            -23.5042491720       10.0828421663       86.1132943683  LPSA16    23             16.0000000000
     17457       563  AGAL      HO4           -23.8718338490        9.3083836733       85.8278371007  LPSA16    23             16.0000000000
     17458       563  AGAL      C6            -24.0577684379        8.7907425112       83.3278962909  LPSA16    23             16.0000000000
     17459       563  AGAL      H61           -24.8000140275        8.5667494379       82.6074235255  LPSA16    23             16.0000000000
     17460       563  AGAL      H62           -23.1412434631        8.6000981889       82.7620574208  LPSA16    23             16.0000000000
     17461       563  AGAL      O6            -24.2750753368        7.9385396785       84.3845202183  LPSA16    23             16.0000000000
     17462       563  AGAL      HO6           -24.2512931380        7.0168530966       84.1740981585  LPSA16    23             16.0000000000
     17463       564  ARHM      C1            -26.2868713788       14.2671832471       86.2818185944  LPSA16    24             17.0000000000
     17464       564  ARHM      H1            -26.9346612932       13.4162461801       86.3680542693  LPSA16    24             17.0000000000
     17465       564  ARHM      C5            -26.4140256048       16.5710603072       85.6157638072  LPSA16    24             17.0000000000
     17466       564  ARHM      H5            -25.5503557246       16.4062298102       85.0070975499  LPSA16    24             17.0000000000
     17467       564  ARHM      O5            -27.1587762482       15.3827406202       85.8657410059  LPSA16    24             17.0000000000
     17468       564  ARHM      C2            -25.6569115451       14.6046990429       87.5921581840  LPSA16    24             17.0000000000
     17469       564  ARHM      H2            -24.9379036965       13.8678049183       87.8984046741  LPSA16    24             17.0000000000
     17470       564  ARHM      O2            -26.6333324698       14.9050078644       88.6075763533  LPSA16    24             17.0000000000
     17471       564  ARHM      C3            -24.8733374193       15.9139589471       87.4133527752  LPSA16    24             17.0000000000
     17472       564  ARHM      H3            -24.1079745024       15.6875193073       86.6640279609  LPSA16    24             17.0000000000
     17473       564  ARHM      O3            -24.0708277489       16.2952502730       88.5620392964  LPSA16    24             17.0000000000
     17474       564  ARHM      HO3           -24.6699090882       16.8080030167       89.1463757531  LPSA16    24             17.0000000000
     17475       564  ARHM      C4            -25.7734949418       17.0475313830       86.9402325015  LPSA16    24             17.0000000000
     17476       564  ARHM      H4            -26.6414132985       17.1456630035       87.7071552895  LPSA16    24             17.0000000000
     17477       564  ARHM      O4            -25.1377339688       18.3032271490       86.8379508285  LPSA16    24             17.0000000000
     17478       564  ARHM      HO4           -25.6961982680       19.0411426242       87.0219124236  LPSA16    24             17.0000000000
     17479       564  ARHM      C6            -27.2719472814       17.7052307260       84.9175891319  LPSA16    24             17.0000000000
     17480       564  ARHM      H61           -26.5957284984       18.3723344213       84.3853494017  LPSA16    24             17.0000000000
     17481       564  ARHM      H62           -27.9133743594       17.2018892146       84.2649634992  LPSA16    24             17.0000000000
     17482       564  ARHM      H63           -27.9512175153       18.2119289607       85.6811466487  LPSA16    24             17.0000000000
     17483       565  ARHM      C1            -27.1734786185       13.7091608165       89.1588742089  LPSA16    25             18.0000000000
     17484       565  ARHM      H1            -27.0444890700       12.9094293425       88.4722246341  LPSA16    25             18.0000000000
     17485       565  ARHM      C5            -29.0709622511       14.7612046910       90.1670531641  LPSA16    25             18.0000000000
     17486       565  ARHM      H5            -28.7840801012       15.7395368801       89.8870230824  LPSA16    25             18.0000000000
     17487       565  ARHM      O5            -28.6120049110       13.7609879096       89.2315309535  LPSA16    25             18.0000000000
     17488       565  ARHM      C2            -26.5385439771       13.4513314079       90.4685713243  LPSA16    25             18.0000000000
     17489       565  ARHM      H2            -25.4079289613       13.5488113857       90.3413143991  LPSA16    25             18.0000000000
     17490       565  ARHM      O2            -26.8908829280       12.1114326291       90.9328696740  LPSA16    25             18.0000000000
     17491       565  ARHM      C3            -27.0995804675       14.5252824742       91.4562257518  LPSA16    25             18.0000000000
     17492       565  ARHM      H3            -26.7680459516       15.5210548394       91.0689171631  LPSA16    25             18.0000000000
     17493       565  ARHM      O3            -26.4597811003       14.2838343928       92.6920647463  LPSA16    25             18.0000000000
     17494       565  ARHM      C4            -28.5243975089       14.5213013262       91.5960769721  LPSA16    25             18.0000000000
     17495       565  ARHM      H4            -28.9327737987       13.4665482688       91.8876801091  LPSA16    25             18.0000000000
     17496       565  ARHM      O4            -28.8478032734       15.4976799877       92.5862492282  LPSA16    25             18.0000000000
     17497       565  ARHM      HO4           -29.5966331587       15.1244044371       93.0149361445  LPSA16    25             18.0000000000
     17498       565  ARHM      C6            -30.5958626141       14.8479920289       90.2083352735  LPSA16    25             18.0000000000
     17499       565  ARHM      H61           -31.0379371675       14.9225153390       89.1912344565  LPSA16    25             18.0000000000
     17500       565  ARHM      H62           -31.0826155181       13.9460202033       90.6686969550  LPSA16    25             18.0000000000
     17501       565  ARHM      H63           -30.9873623775       15.7446335590       90.8233913566  LPSA16    25             18.0000000000
     17502       566  BMANNA    C1            -26.1595161908       11.0799614154       90.3138108879  LPSA16    26             19.0000000000
     17503       566  BMANNA    H1            -25.2087074502       11.4628283473       89.8388342826  LPSA16    26             19.0000000000
     17504       566  BMANNA    C5            -25.9971410480        9.3950400531       88.6312665858  LPSA16    26             19.0000000000
     17505       566  BMANNA    H5            -25.1597664193        9.9254816406       88.1771240033  LPSA16    26             19.0000000000
     17506       566  BMANNA    O5            -26.8409766149       10.3841779594       89.2346891933  LPSA16    26             19.0000000000
     17507       566  BMANNA    C2            -25.8002134260       10.1296093322       91.3475147821  LPSA16    26             19.0000000000
     17508       566  BMANNA    H2            -25.2149059859       10.7435107528       92.1081287357  LPSA16    26             19.0000000000
     17509       566  BMANNA    N             -27.0447954521        9.5737685570       91.9238920796  LPSA16    26             19.0000000000
     17510       566  BMANNA    HN            -27.6507259577        9.1616431654       91.3050515894  LPSA16    26             19.0000000000
     17511       566  BMANNA    C             -27.3238734423        9.5186975760       93.1798471680  LPSA16    26             19.0000000000
     17512       566  BMANNA    O             -26.6125531108       10.1250012989       94.0003587425  LPSA16    26             19.0000000000
     17513       566  BMANNA    CT            -28.5107223119        8.6937561781       93.6758917343  LPSA16    26             19.0000000000
     17514       566  BMANNA    HT1           -29.1662077175        8.5820065839       92.8666282051  LPSA16    26             19.0000000000
     17515       566  BMANNA    HT2           -29.0364550490        8.9052553400       94.6620984389  LPSA16    26             19.0000000000
     17516       566  BMANNA    HT3           -28.1008157510        7.6912847932       93.8484898219  LPSA16    26             19.0000000000
     17517       566  BMANNA    C3            -24.8676526590        9.0957196219       90.7100883268  LPSA16    26             19.0000000000
     17518       566  BMANNA    H3            -23.9620802597        9.6370716093       90.3384445889  LPSA16    26             19.0000000000
     17519       566  BMANNA    O3            -24.4038099480        8.2086234240       91.7636866611  LPSA16    26             19.0000000000
     17520       566  BMANNA    HO3           -23.7785553662        8.7535256402       92.2265744207  LPSA16    26             19.0000000000
     17521       566  BMANNA    C4            -25.5613935764        8.4408244973       89.6481622736  LPSA16    26             19.0000000000
     17522       566  BMANNA    H4            -26.5039131397        7.8744916669       89.9013799111  LPSA16    26             19.0000000000
     17523       566  BMANNA    O4            -24.7512175837        7.4438936463       89.0416847738  LPSA16    26             19.0000000000
     17524       566  BMANNA    HO4           -24.8225688310        6.6429533857       89.5591157304  LPSA16    26             19.0000000000
     17525       566  BMANNA    C6            -26.8004219394        8.9017967506       87.3900617492  LPSA16    26             19.0000000000
     17526       566  BMANNA    H61           -27.3736135702        9.7199574260       86.9191763972  LPSA16    26             19.0000000000
     17527       566  BMANNA    H62           -26.1694703251        8.4823273772       86.6504270337  LPSA16    26             19.0000000000
     17528       566  BMANNA    O6            -27.7310162500        7.8808364797       87.7329108337  LPSA16    26             19.0000000000
     17529       566  BMANNA    HO6           -27.2875947240        7.1829512679       88.1688153196  LPSA16    26             19.0000000000
     17530       567  BGLCNA    C1            -25.9058341115       15.2461602633       93.4616184899  LPSA16    27             19.0000000000
     17531       567  BGLCNA    H1            -26.5079108084       16.1491474592       93.4392217979  LPSA16    27             19.0000000000
     17532       567  BGLCNA    C5            -24.0941283868       16.6972127319       93.9656603721  LPSA16    27             19.0000000000
     17533       567  BGLCNA    H5            -24.8438976488       17.5294060604       93.9564344452  LPSA16    27             19.0000000000
     17534       567  BGLCNA    O5            -24.5994815351       15.7059537299       93.0607755266  LPSA16    27             19.0000000000
     17535       567  BGLCNA    C2            -25.8744769365       14.6738074249       94.8806799918  LPSA16    27             19.0000000000
     17536       567  BGLCNA    H2            -25.1555894989       13.8362388497       94.8757458582  LPSA16    27             19.0000000000
     17537       567  BGLCNA    N             -27.1851622721       14.1729989684       95.2501113516  LPSA16    27             19.0000000000
     17538       567  BGLCNA    HN            -27.9917396937       14.8307041867       95.0827132934  LPSA16    27             19.0000000000
     17539       567  BGLCNA    C             -27.1996213846       12.9720789214       95.9523160909  LPSA16    27             19.0000000000
     17540       567  BGLCNA    O             -26.2041819108       12.4323466823       96.5238801166  LPSA16    27             19.0000000000
     17541       567  BGLCNA    CT            -28.6080258122       12.3052854205       96.0293745529  LPSA16    27             19.0000000000
     17542       567  BGLCNA    HT1           -29.3367511009       12.8427690315       95.3635606282  LPSA16    27             19.0000000000
     17543       567  BGLCNA    HT2           -28.9959558440       12.1883818741       97.0167906789  LPSA16    27             19.0000000000
     17544       567  BGLCNA    HT3           -28.4636912739       11.2015385940       95.7039804309  LPSA16    27             19.0000000000
     17545       567  BGLCNA    C3            -25.3524852191       15.7073154947       95.7540348103  LPSA16    27             19.0000000000
     17546       567  BGLCNA    H3            -25.9835929229       16.6305609425       95.7401190096  LPSA16    27             19.0000000000
     17547       567  BGLCNA    O3            -25.4026639523       15.0736534603       97.0775356047  LPSA16    27             19.0000000000
     17548       567  BGLCNA    C4            -23.9419120063       16.1776927485       95.3486864533  LPSA16    27             19.0000000000
     17549       567  BGLCNA    H4            -23.2570137736       15.2995714427       95.3090014479  LPSA16    27             19.0000000000
     17550       567  BGLCNA    O4            -23.4534122016       17.1341959655       96.2156872787  LPSA16    27             19.0000000000
     17551       567  BGLCNA    HO4           -23.9718982906       17.8878001862       96.0162444362  LPSA16    27             19.0000000000
     17552       567  BGLCNA    C6            -22.8022546521       17.2653785611       93.2852949846  LPSA16    27             19.0000000000
     17553       567  BGLCNA    H61           -22.5542364506       18.1652935243       93.8557506920  LPSA16    27             19.0000000000
     17554       567  BGLCNA    H62           -21.9456197457       16.5758550487       93.4725180191  LPSA16    27             19.0000000000
     17555       567  BGLCNA    O6            -23.0117428218       17.5271103301       91.9076175409  LPSA16    27             19.0000000000
     17556       567  BGLCNA    HO6           -22.1673080404       17.8546705686       91.5273290588  LPSA16    27             19.0000000000
     17557       568  AGAL      C1            -25.3078736310       15.9002604486       98.2622020222  LPSA16    28             20.0000000000
     17558       568  AGAL      H1            -24.3263960581       16.2896445857       98.3007149491  LPSA16    28             20.0000000000
     17559       568  AGAL      C5            -27.5975033756       16.6924516670       98.1710438288  LPSA16    28             20.0000000000
     17560       568  AGAL      H5            -27.8416489254       15.7626175174       97.4646141937  LPSA16    28             20.0000000000
     17561       568  AGAL      O5            -26.1534471314       17.0389212436       98.1147365872  LPSA16    28             20.0000000000
     17562       568  AGAL      C2            -25.6555084589       15.2649172697       99.6197190629  LPSA16    28             20.0000000000
     17563       568  AGAL      H2            -25.4999826845       16.1024320205      100.2965066153  LPSA16    28             20.0000000000
     17564       568  AGAL      O2            -24.8044099600       14.2258019644      100.0788731798  LPSA16    28             20.0000000000
     17565       568  AGAL      C3            -27.1016993560       14.8996508573       99.7396972452  LPSA16    28             20.0000000000
     17566       568  AGAL      H3            -27.3561265498       14.2276264378       98.8607737785  LPSA16    28             20.0000000000
     17567       568  AGAL      O3            -27.5489772193       14.1786018516      100.9043404272  LPSA16    28             20.0000000000
     17568       568  AGAL      HO3           -27.8678377831       13.3214672324      100.5606486229  LPSA16    28             20.0000000000
     17569       568  AGAL      C4            -27.9214794067       16.1057316819       99.5102226768  LPSA16    28             20.0000000000
     17570       568  AGAL      H4            -28.9418320520       15.8059720642       99.4798298294  LPSA16    28             20.0000000000
     17571       568  AGAL      O4            -27.7526382424       17.0939600466      100.4757933835  LPSA16    28             20.0000000000
     17572       568  AGAL      HO4           -28.4908783564       17.0292248926      101.0376442747  LPSA16    28             20.0000000000
     17573       568  AGAL      C6            -28.5366032611       17.7772296459       97.6362902244  LPSA16    28             20.0000000000
     17574       568  AGAL      H61           -28.3275218936       17.9398537789       96.5809275898  LPSA16    28             20.0000000000
     17575       568  AGAL      H62           -29.6662127703       17.5967419976       97.7651048223  LPSA16    28             20.0000000000
     17576       568  AGAL      O6            -28.3227539995       18.9799245819       98.3456070822  LPSA16    28             20.0000000000
     17577       568  AGAL      HO6           -27.6130132035       19.4809213985       97.9416813930  LPSA16    28             20.0000000000
     17578       569  ARHM      C1            -24.5169477488       14.4398633281      101.4808913342  LPSA16    29             21.0000000000
     17579       569  ARHM      H1            -25.3645066411       14.9972963567      101.9964955809  LPSA16    29             21.0000000000
     17580       569  ARHM      C5            -22.1939944532       14.5229077423      101.1486206043  LPSA16    29             21.0000000000
     17581       569  ARHM      H5            -22.4481855048       14.2983327798      100.0935446791  LPSA16    29             21.0000000000
     17582       569  ARHM      O5            -23.3264311364       15.1473774634      101.6833506475  LPSA16    29             21.0000000000
     17583       569  ARHM      C2            -24.4766795991       13.1351387334      102.1437305515  LPSA16    29             21.0000000000
     17584       569  ARHM      H2            -25.3365847662       12.5427970472      101.9067628034  LPSA16    29             21.0000000000
     17585       569  ARHM      O2            -24.3982359814       13.2551745252      103.5748524404  LPSA16    29             21.0000000000
     17586       569  ARHM      C3            -23.2697023259       12.4034883005      101.6289418068  LPSA16    29             21.0000000000
     17587       569  ARHM      H3            -23.4180349849       12.1840030864      100.4952263366  LPSA16    29             21.0000000000
     17588       569  ARHM      O3            -23.2560812010       11.1231350863      102.1995749427  LPSA16    29             21.0000000000
     17589       569  ARHM      HO3           -22.3949126555       10.8740831977      102.2092645043  LPSA16    29             21.0000000000
     17590       569  ARHM      C4            -22.0100050042       13.1262400467      101.8247918557  LPSA16    29             21.0000000000
     17591       569  ARHM      H4            -21.7705812660       13.2660533529      102.9338171738  LPSA16    29             21.0000000000
     17592       569  ARHM      O4            -20.7989737323       12.4991241228      101.3452167393  LPSA16    29             21.0000000000
     17593       569  ARHM      HO4           -20.8863740148       12.0808252719      100.4362974805  LPSA16    29             21.0000000000
     17594       569  ARHM      C6            -21.0469667304       15.5467069623      101.2162231226  LPSA16    29             21.0000000000
     17595       569  ARHM      H61           -21.5263109378       16.4911872259      100.7685423143  LPSA16    29             21.0000000000
     17596       569  ARHM      H62           -20.8054274954       15.7462508008      102.3013153741  LPSA16    29             21.0000000000
     17597       569  ARHM      H63           -20.2128441300       15.1817089499      100.6072571094  LPSA16    29             21.0000000000
     17598       570  ARHM      C1            -25.5195265351       13.1595724907      104.3945976075  LPSA16    30             22.0000000000
     17599       570  ARHM      H1            -26.0099014383       12.1786642852      104.2094096401  LPSA16    30             22.0000000000
     17600       570  ARHM      C5            -25.9094479932       15.5590389609      104.5143062533  LPSA16    30             22.0000000000
     17601       570  ARHM      H5            -24.9501082856       15.5554411620      103.8668162917  LPSA16    30             22.0000000000
     17602       570  ARHM      O5            -26.4522889986       14.2445751621      104.2052433351  LPSA16    30             22.0000000000
     17603       570  ARHM      C2            -25.0790189900       13.1801597907      105.8471183130  LPSA16    30             22.0000000000
     17604       570  ARHM      H2            -24.3886628053       12.4222260720      106.0289718167  LPSA16    30             22.0000000000
     17605       570  ARHM      O2            -26.2509386860       13.0717391784      106.5813641610  LPSA16    30             22.0000000000
     17606       570  ARHM      C3            -24.5363900448       14.4821828231      106.2079894766  LPSA16    30             22.0000000000
     17607       570  ARHM      H3            -23.7673746526       14.7283155033      105.5270001340  LPSA16    30             22.0000000000
     17608       570  ARHM      O3            -23.9454614401       14.5232427987      107.5373891676  LPSA16    30             22.0000000000
     17609       570  ARHM      C4            -25.5365940992       15.6185133695      105.9708288384  LPSA16    30             22.0000000000
     17610       570  ARHM      H4            -26.4609375126       15.5005410278      106.5400372406  LPSA16    30             22.0000000000
     17611       570  ARHM      O4            -25.1090014996       16.8651795363      106.2997755749  LPSA16    30             22.0000000000
     17612       570  ARHM      HO4           -24.5308673779       17.3497175998      105.6964454668  LPSA16    30             22.0000000000
     17613       570  ARHM      C6            -26.8768265328       16.6323119025      104.0930490251  LPSA16    30             22.0000000000
     17614       570  ARHM      H61           -26.3456462917       17.6171335174      104.2143179997  LPSA16    30             22.0000000000
     17615       570  ARHM      H62           -27.0191983526       16.5724079476      103.0019050467  LPSA16    30             22.0000000000
     17616       570  ARHM      H63           -27.8668845843       16.6039999675      104.6493652223  LPSA16    30             22.0000000000
     17617       571  BMANNA    C1            -26.6316416930       11.7648242889      106.9502319096  LPSA16    31             23.0000000000
     17618       571  BMANNA    H1            -25.7023941978       11.1873276401      107.1550799008  LPSA16    31             23.0000000000
     17619       571  BMANNA    C5            -27.6997162828        9.7087028029      106.2136717625  LPSA16    31             23.0000000000
     17620       571  BMANNA    H5            -26.7568687994        9.2522071744      106.5467054000  LPSA16    31             23.0000000000
     17621       571  BMANNA    O5            -27.3626219325       11.0855382147      105.8742289322  LPSA16    31             23.0000000000
     17622       571  BMANNA    C2            -27.5031292746       11.8135655065      108.0830629221  LPSA16    31             23.0000000000
     17623       571  BMANNA    H2            -26.8848347430       12.2260379218      108.9031915743  LPSA16    31             23.0000000000
     17624       571  BMANNA    N             -28.5596360314       12.7299162005      107.8252935315  LPSA16    31             23.0000000000
     17625       571  BMANNA    HN            -28.8119654252       12.8911748883      106.8111160773  LPSA16    31             23.0000000000
     17626       571  BMANNA    C             -29.1886099225       13.4106502605      108.7868858964  LPSA16    31             23.0000000000
     17627       571  BMANNA    O             -28.8449203934       13.3477328866      109.9536662434  LPSA16    31             23.0000000000
     17628       571  BMANNA    CT            -30.3596374077       14.2908271000      108.3237946568  LPSA16    31             23.0000000000
     17629       571  BMANNA    HT1           -30.8906104876       13.7617963705      107.5739831696  LPSA16    31             23.0000000000
     17630       571  BMANNA    HT2           -29.9388560962       15.2243429573      107.9347099034  LPSA16    31             23.0000000000
     17631       571  BMANNA    HT3           -30.9769369542       14.6137546925      109.1768357935  LPSA16    31             23.0000000000
     17632       571  BMANNA    C3            -27.8703660683       10.4236437058      108.4884560283  LPSA16    31             23.0000000000
     17633       571  BMANNA    H3            -26.9389976666        9.7760895719      108.6988550870  LPSA16    31             23.0000000000
     17634       571  BMANNA    O3            -28.5565561671       10.3991698261      109.7404994872  LPSA16    31             23.0000000000
     17635       571  BMANNA    HO3           -28.2862965561       11.2571292870      110.0111610137  LPSA16    31             23.0000000000
     17636       571  BMANNA    C4            -28.6406651452        9.7582772750      107.4199857710  LPSA16    31             23.0000000000
     17637       571  BMANNA    H4            -29.6346606864       10.3032498266      107.0572414185  LPSA16    31             23.0000000000
     17638       571  BMANNA    O4            -29.0488202885        8.4687614817      107.8525671122  LPSA16    31             23.0000000000
     17639       571  BMANNA    HO4           -28.2969967152        7.9348189214      108.1943429300  LPSA16    31             23.0000000000
     17640       571  BMANNA    C6            -28.3462584906        8.9375408003      105.0512686782  LPSA16    31             23.0000000000
     17641       571  BMANNA    H61           -28.3739654716        7.8113195032      105.3397811046  LPSA16    31             23.0000000000
     17642       571  BMANNA    H62           -29.3749135049        9.2355401162      104.8698551944  LPSA16    31             23.0000000000
     17643       571  BMANNA    O6            -27.6077845814        9.0974819646      103.8241467834  LPSA16    31             23.0000000000
     17644       571  BMANNA    HO6           -26.7268792841        8.6260524292      103.8134147631  LPSA16    31             23.0000000000
     17645       572  BGLCNA    C1            -24.8122585962       14.6853272685      108.6103969990  LPSA16    32             23.0000000000
     17646       572  BGLCNA    H1            -25.8021043857       14.1560592838      108.4325564695  LPSA16    32             23.0000000000
     17647       572  BGLCNA    C5            -26.1371696434       16.2191821872      109.9277617404  LPSA16    32             23.0000000000
     17648       572  BGLCNA    H5            -27.0466366869       15.6337092241      109.5374749077  LPSA16    32             23.0000000000
     17649       572  BGLCNA    O5            -25.1164024530       16.0407453789      108.9423333575  LPSA16    32             23.0000000000
     17650       572  BGLCNA    C2            -24.2721069062       14.0562253694      109.8194522937  LPSA16    32             23.0000000000
     17651       572  BGLCNA    H2            -23.4621736722       14.6850084309      110.1044894257  LPSA16    32             23.0000000000
     17652       572  BGLCNA    N             -23.8168705623       12.7261637712      109.5956973249  LPSA16    32             23.0000000000
     17653       572  BGLCNA    HN            -24.4019080579       12.2923206294      108.8809076996  LPSA16    32             23.0000000000
     17654       572  BGLCNA    C             -22.7283368825       12.0914682718      110.0864625708  LPSA16    32             23.0000000000
     17655       572  BGLCNA    O             -21.9926430526       12.6034551500      110.9304085025  LPSA16    32             23.0000000000
     17656       572  BGLCNA    CT            -22.4616292595       10.6552174277      109.5841031968  LPSA16    32             23.0000000000
     17657       572  BGLCNA    HT1           -23.1392300359       10.6513732378      108.6281101354  LPSA16    32             23.0000000000
     17658       572  BGLCNA    HT2           -22.8224194224        9.8624338814      110.1898124037  LPSA16    32             23.0000000000
     17659       572  BGLCNA    HT3           -21.3914859526       10.4842009260      109.3122359934  LPSA16    32             23.0000000000
     17660       572  BGLCNA    C3            -25.3179008670       14.1151507509      110.8930231790  LPSA16    32             23.0000000000
     17661       572  BGLCNA    H3            -26.1848604201       13.7043389045      110.4606187373  LPSA16    32             23.0000000000
     17662       572  BGLCNA    O3            -25.0089199894       13.3443398677      112.0657798240  LPSA16    32             23.0000000000
     17663       572  BGLCNA    C4            -25.5889283568       15.5685258456      111.1707572500  LPSA16    32             23.0000000000
     17664       572  BGLCNA    H4            -24.6256375104       16.0213296452      111.5318289610  LPSA16    32             23.0000000000
     17665       572  BGLCNA    O4            -26.5208977985       15.7326390501      112.2070236435  LPSA16    32             23.0000000000
     17666       572  BGLCNA    HO4           -26.0963548302       15.7976045886      113.0745323218  LPSA16    32             23.0000000000
     17667       572  BGLCNA    C6            -26.5126457049       17.6832426897      110.0229508171  LPSA16    32             23.0000000000
     17668       572  BGLCNA    H61           -27.4166137972       17.8417092222      110.7194343748  LPSA16    32             23.0000000000
     17669       572  BGLCNA    H62           -25.6640380852       18.2565205036      110.5717638480  LPSA16    32             23.0000000000
     17670       572  BGLCNA    O6            -26.8730609720       18.2299069718      108.7709294272  LPSA16    32             23.0000000000
     17671       572  BGLCNA    HO6           -27.3604757324       17.5526581774      108.2360311317  LPSA16    32             23.0000000000
     17672       573  AGAL      C1            -26.1489104375       12.6898588779      112.6842874521  LPSA16    33             24.0000000000
     17673       573  AGAL      H1            -26.9870622931       13.3856941927      112.5979959475  LPSA16    33             24.0000000000
     17674       573  AGAL      C5            -25.4010461643       10.4868670724      112.2149219831  LPSA16    33             24.0000000000
     17675       573  AGAL      H5            -24.5030561636       11.0355614883      111.8792915250  LPSA16    33             24.0000000000
     17676       573  AGAL      O5            -26.4689231716       11.4005377418      112.0726784748  LPSA16    33             24.0000000000
     17677       573  AGAL      C2            -25.7877836131       12.4482313334      114.1482787662  LPSA16    33             24.0000000000
     17678       573  AGAL      H2            -26.6735627321       11.8363938574      114.5751854976  LPSA16    33             24.0000000000
     17679       573  AGAL      O2            -25.8463130440       13.6766408358      114.8486222260  LPSA16    33             24.0000000000
     17680       573  AGAL      C3            -24.6667446285       11.4494647767      114.2945545625  LPSA16    33             24.0000000000
     17681       573  AGAL      H3            -23.7355078512       11.8146956497      113.7405815065  LPSA16    33             24.0000000000
     17682       573  AGAL      O3            -24.1803307855       11.3307524390      115.5672660328  LPSA16    33             24.0000000000
     17683       573  AGAL      HO3           -24.8041067010       11.1561994300      116.2400186851  LPSA16    33             24.0000000000
     17684       573  AGAL      C4            -25.0437548066       10.1255246861      113.6708488317  LPSA16    33             24.0000000000
     17685       573  AGAL      H4            -24.1970547260        9.4284251102      113.6729875792  LPSA16    33             24.0000000000
     17686       573  AGAL      O4            -26.1479034712        9.3876795339      114.2435538900  LPSA16    33             24.0000000000
     17687       573  AGAL      HO4           -26.6179068780        9.8768319762      114.9085525172  LPSA16    33             24.0000000000
     17688       573  AGAL      C6            -25.5487123594        9.2948798946      111.2992528405  LPSA16    33             24.0000000000
     17689       573  AGAL      H61           -25.5297933160        9.7273150324      110.2783408757  LPSA16    33             24.0000000000
     17690       573  AGAL      H62           -24.7521792659        8.5283888641      111.3458027743  LPSA16    33             24.0000000000
     17691       573  AGAL      O6            -26.7016703279        8.5212179099      111.4129476537  LPSA16    33             24.0000000000
     17692       573  AGAL      HO6           -27.4478800463        8.8401022897      110.8444757795  LPSA16    33             24.0000000000
     17693       574  ARHM      C1            -26.6100344512       13.6515876687      116.0109133884  LPSA16    34             25.0000000000
     17694       574  ARHM      H1            -26.3944899669       12.7702961059      116.6389743656  LPSA16    34             25.0000000000
     17695       574  ARHM      C5            -28.5763927121       14.7012311355      115.0727799907  LPSA16    34             25.0000000000
     17696       574  ARHM      H5            -28.0983730058       14.6480204394      114.0209633333  LPSA16    34             25.0000000000
     17697       574  ARHM      O5            -28.0465097094       13.5993953891      115.8926868953  LPSA16    34             25.0000000000
     17698       574  ARHM      C2            -26.1930982773       14.8861357556      116.7601555753  LPSA16    34             25.0000000000
     17699       574  ARHM      H2            -25.0857347225       15.0425933046      116.8710959342  LPSA16    34             25.0000000000
     17700       574  ARHM      O2            -26.7279936003       14.9832761081      118.1592972339  LPSA16    34             25.0000000000
     17701       574  ARHM      C3            -26.7074767713       16.0992651642      115.9988665506  LPSA16    34             25.0000000000
     17702       574  ARHM      H3            -26.3112846753       16.1233959924      114.9724172480  LPSA16    34             25.0000000000
     17703       574  ARHM      O3            -26.4052657080       17.3874952474      116.5878695042  LPSA16    34             25.0000000000
     17704       574  ARHM      HO3           -26.1869457064       18.0652083157      115.9559434517  LPSA16    34             25.0000000000
     17705       574  ARHM      C4            -28.2469694046       16.0550988165      115.7987835878  LPSA16    34             25.0000000000
     17706       574  ARHM      H4            -28.7901481448       15.9264907746      116.7495315617  LPSA16    34             25.0000000000
     17707       574  ARHM      O4            -28.7412608555       17.1602854816      115.1362621200  LPSA16    34             25.0000000000
     17708       574  ARHM      HO4           -28.7906561744       17.9323054413      115.6953140327  LPSA16    34             25.0000000000
     17709       574  ARHM      C6            -30.1236414685       14.5603349491      114.8413279703  LPSA16    34             25.0000000000
     17710       574  ARHM      H61           -30.7348214499       14.6277760374      115.7172490283  LPSA16    34             25.0000000000
     17711       574  ARHM      H62           -30.4704713467       15.5110945535      114.3996926230  LPSA16    34             25.0000000000
     17712       574  ARHM      H63           -30.4517088122       13.7544118395      114.1590834060  LPSA16    34             25.0000000000
     17713       575  ARHM      C1            -26.3907817020       13.9249789154      119.0795908573  LPSA16    35             26.0000000000
     17714       575  ARHM      H1            -25.2842477988       13.6075530258      118.8787348947  LPSA16    35             26.0000000000
     17715       575  ARHM      C5            -28.6560953534       13.0624978548      119.2408916176  LPSA16    35             26.0000000000
     17716       575  ARHM      H5            -29.0512260723       13.8916741795      118.5254732223  LPSA16    35             26.0000000000
     17717       575  ARHM      O5            -27.2520079130       12.7185607278      118.9290334222  LPSA16    35             26.0000000000
     17718       575  ARHM      C2            -26.4812643330       14.4363105544      120.5365485050  LPSA16    35             26.0000000000
     17719       575  ARHM      H2            -25.7484505824       15.2741604522      120.7134209997  LPSA16    35             26.0000000000
     17720       575  ARHM      O2            -26.1308932936       13.4301547006      121.4126203716  LPSA16    35             26.0000000000
     17721       575  ARHM      C3            -27.9288054396       14.8602721816      120.8720061906  LPSA16    35             26.0000000000
     17722       575  ARHM      H3            -28.1844692145       15.6898073732      120.1344793452  LPSA16    35             26.0000000000
     17723       575  ARHM      O3            -28.0129652012       15.4471046481      122.1540075829  LPSA16    35             26.0000000000
     17724       575  ARHM      HO3           -27.3759551023       15.0172484290      122.7288731339  LPSA16    35             26.0000000000
     17725       575  ARHM      C4            -28.8032977348       13.6519203871      120.6788917534  LPSA16    35             26.0000000000
     17726       575  ARHM      H4            -28.5266358373       12.7778628339      121.3307119103  LPSA16    35             26.0000000000
     17727       575  ARHM      O4            -30.1531342637       14.0759402787      120.9693790153  LPSA16    35             26.0000000000
     17728       575  ARHM      HO4           -30.3971541178       14.9378049238      120.5581709812  LPSA16    35             26.0000000000
     17729       575  ARHM      C6            -29.5829074766       11.8557546604      118.8642347863  LPSA16    35             26.0000000000
     17730       575  ARHM      H61           -29.5794632869       11.6732144773      117.7433556958  LPSA16    35             26.0000000000
     17731       575  ARHM      H62           -29.1330188139       11.0460668521      119.4176110492  LPSA16    35             26.0000000000
     17732       575  ARHM      H63           -30.6431689033       12.1850618770      119.0633705917  LPSA16    35             26.0000000000
     17733       576  BMANNA    C1            -24.7814425697       13.0750143550      121.4471464502  LPSA16    36             27.0000000000
     17734       576  BMANNA    H1            -24.1312166615       13.9117866920      121.0972061898  LPSA16    36             27.0000000000
     17735       576  BMANNA    C5            -22.8764364833       11.7669343792      120.7299884793  LPSA16    36             27.0000000000
     17736       576  BMANNA    H5            -22.4079397309       12.7121073559      120.4610684421  LPSA16    36             27.0000000000
     17737       576  BMANNA    O5            -24.3285192939       11.9353647967      120.6641532654  LPSA16    36             27.0000000000
     17738       576  BMANNA    C2            -24.3952684887       12.7987676974      122.8920138725  LPSA16    36             27.0000000000
     17739       576  BMANNA    H2            -24.6558814955       13.7038585267      123.4719477421  LPSA16    36             27.0000000000
     17740       576  BMANNA    N             -25.1745220754       11.6887439728      123.4395449790  LPSA16    36             27.0000000000
     17741       576  BMANNA    HN            -25.3328846145       10.8731797289      122.8746519580  LPSA16    36             27.0000000000
     17742       576  BMANNA    C             -25.4267729431       11.6050698928      124.7737151700  LPSA16    36             27.0000000000
     17743       576  BMANNA    O             -25.1949388142       12.4753624005      125.6190347561  LPSA16    36             27.0000000000
     17744       576  BMANNA    CT            -25.9963148222       10.3419178276      125.3570716528  LPSA16    36             27.0000000000
     17745       576  BMANNA    HT1           -25.5469842971        9.4653160476      124.8802869227  LPSA16    36             27.0000000000
     17746       576  BMANNA    HT2           -27.1008549687       10.2190669611      125.1731404614  LPSA16    36             27.0000000000
     17747       576  BMANNA    HT3           -25.9335234405       10.2426338358      126.4547536948  LPSA16    36             27.0000000000
     17748       576  BMANNA    C3            -22.9078231887       12.5709163135      122.9763638711  LPSA16    36             27.0000000000
     17749       576  BMANNA    H3            -22.3627782063       13.4622349363      122.6403873786  LPSA16    36             27.0000000000
     17750       576  BMANNA    O3            -22.4637484152       12.3566311654      124.3414054450  LPSA16    36             27.0000000000
     17751       576  BMANNA    HO3           -21.8768649175       13.0043754560      124.7171830083  LPSA16    36             27.0000000000
     17752       576  BMANNA    C4            -22.4753405918       11.4441733835      122.1146940524  LPSA16    36             27.0000000000
     17753       576  BMANNA    H4            -22.8939373840       10.5133273326      122.4263894750  LPSA16    36             27.0000000000
     17754       576  BMANNA    O4            -21.0707668082       11.2192272190      122.2172873890  LPSA16    36             27.0000000000
     17755       576  BMANNA    HO4           -21.0379344067       11.0918311664      123.1985163392  LPSA16    36             27.0000000000
     17756       576  BMANNA    C6            -22.4679430154       10.7499261281      119.7412642597  LPSA16    36             27.0000000000
     17757       576  BMANNA    H61           -22.7129331507       11.0643075495      118.6946701192  LPSA16    36             27.0000000000
     17758       576  BMANNA    H62           -21.3754642739       10.8036881987      119.7045442506  LPSA16    36             27.0000000000
     17759       576  BMANNA    O6            -22.9464457969        9.4015152165      120.0914698020  LPSA16    36             27.0000000000
     17760       576  BMANNA    HO6           -22.2584628683        9.0181590891      120.6476247167  LPSA16    36             27.0000000000
     17761       577  ECLIPA    HB6S           12.3330013620      -29.8544326548       20.4612168218  LPSA17    1               0.0000000000
     17762       577  ECLIPA    OB6            11.7450499357      -31.3196215430       21.7140249152  LPSA17    1               0.0000000000
     17763       577  ECLIPA    CB6            12.6933830263      -30.8175239102       20.7042159014  LPSA17    1               0.0000000000
     17764       577  ECLIPA    HB6R           13.7065143291      -30.8953094132       21.0541931349  LPSA17    1               0.0000000000
     17765       577  ECLIPA    CB5            12.7166354047      -31.7187798591       19.3988764877  LPSA17    1               0.0000000000
     17766       577  ECLIPA    OB5            11.2965444443      -31.7787784532       18.9716901872  LPSA17    1               0.0000000000
     17767       577  ECLIPA    HB5            13.0042969773      -32.7176378930       19.7771798410  LPSA17    1               0.0000000000
     17768       577  ECLIPA    CB1            11.1777227356      -32.5779434981       17.7717324898  LPSA17    1               0.0000000000
     17769       577  ECLIPA    HB1            11.5242485377      -33.6268836780       17.9003641080  LPSA17    1               0.0000000000
     17770       577  ECLIPA    OA6             9.8563543386      -32.5875570422       17.3217246577  LPSA17    1               0.0000000000
     17771       577  ECLIPA    CA6             9.0097293345      -31.4460042285       17.5745106853  LPSA17    1               0.0000000000
     17772       577  ECLIPA    HA6R            9.6579248506      -30.5585408106       17.7226451425  LPSA17    1               0.0000000000
     17773       577  ECLIPA    HA6S            8.3077495343      -31.7196953608       18.4598965841  LPSA17    1               0.0000000000
     17774       577  ECLIPA    CB4            13.6562156293      -31.1443212126       18.3206521937  LPSA17    1               0.0000000000
     17775       577  ECLIPA    HB4            13.3411087403      -30.1264227604       18.0085584641  LPSA17    1               0.0000000000
     17776       577  ECLIPA    OB4            14.9639869072      -31.3403601355       18.9017319965  LPSA17    1               0.0000000000
     17777       577  ECLIPA    PB             15.8435318281      -30.0595918636       19.3234616795  LPSA17    1               0.0000000000
     17778       577  ECLIPA    OPB4           16.6703808595      -30.4646185471       20.5579515876  LPSA17    1               0.0000000000
     17779       577  ECLIPA    OPB3           14.7319283072      -29.0365033772       19.6614545037  LPSA17    1               0.0000000000
     17780       577  ECLIPA    OPB2           16.6381439291      -29.6250662280       18.0829495795  LPSA17    1               0.0000000000
     17781       577  ECLIPA    CB3            13.4733887530      -32.0193460867       17.0955893951  LPSA17    1               0.0000000000
     17782       577  ECLIPA    OB3            14.1893737584      -31.6051476830       15.9186528231  LPSA17    1               0.0000000000
     17783       577  ECLIPA    HB3            13.6054415460      -33.1197444605       17.3284540628  LPSA17    1               0.0000000000
     17784       577  ECLIPA    C71            15.3558066637      -32.1106489688       15.6929469039  LPSA17    1               0.0000000000
     17785       577  ECLIPA    O71            15.8700019627      -33.0210626837       16.3832172580  LPSA17    1               0.0000000000
     17786       577  ECLIPA    C72            15.8733577875      -31.5207211582       14.3548430386  LPSA17    1               0.0000000000
     17787       577  ECLIPA    H72R           15.1454012001      -31.7464740773       13.5774555414  LPSA17    1               0.0000000000
     17788       577  ECLIPA    H72S           16.9488805972      -31.9334019277       14.1464415926  LPSA17    1               0.0000000000
     17789       577  ECLIPA    CB2            11.9914177150      -31.9882422651       16.6720734084  LPSA17    1               0.0000000000
     17790       577  ECLIPA    HB2            11.7210093136      -30.8463829389       16.5298168153  LPSA17    1               0.0000000000
     17791       577  ECLIPA    NB2            11.7221622205      -32.7876113691       15.4577284722  LPSA17    1               0.0000000000
     17792       577  ECLIPA    HNB2           11.5587623263      -33.7633640754       15.5965609326  LPSA17    1               0.0000000000
     17793       577  ECLIPA    CA4             7.5772027724      -32.4643471803       15.7929312798  LPSA17    1               0.0000000000
     17794       577  ECLIPA    HA4             8.4056874823      -33.1543483656       15.4903430209  LPSA17    1               0.0000000000
     17795       577  ECLIPA    OA4             6.8146242368      -33.0557516351       16.8012065728  LPSA17    1               0.0000000000
     17796       577  ECLIPA    HOA4            7.2675428010      -33.1133102664       17.5928838569  LPSA17    1               0.0000000000
     17797       577  ECLIPA    CA5             8.1538112600      -31.2326782216       16.3547806008  LPSA17    1               0.0000000000
     17798       577  ECLIPA    HA5             7.4216013628      -30.3535565491       16.5880746347  LPSA17    1               0.0000000000
     17799       577  ECLIPA    OA5             9.0356885654      -30.6779679350       15.3689671688  LPSA17    1               0.0000000000
     17800       577  ECLIPA    CA1             8.3303528166      -30.3980672275       14.1076640156  LPSA17    1               0.0000000000
     17801       577  ECLIPA    HA1             9.2097235820      -30.3088282088       13.4118188108  LPSA17    1               0.0000000000
     17802       577  ECLIPA    OA1             7.6136845929      -29.1792788921       14.1359876212  LPSA17    1               0.0000000000
     17803       577  ECLIPA    OPA2            7.4904877012      -27.6218581299       15.9734101064  LPSA17    1               0.0000000000
     17804       577  ECLIPA    OPA3            9.7436477818      -27.9624524035       14.8300177673  LPSA17    1               0.0000000000
     17805       577  ECLIPA    OPA4            7.9484218509      -26.7684962434       13.6615320840  LPSA17    1               0.0000000000
     17806       577  ECLIPA    PA              8.2554121783      -27.8466555408       14.6765383084  LPSA17    1               0.0000000000
     17807       577  ECLIPA    CA3             6.7716063680      -32.2363656308       14.5219348229  LPSA17    1               0.0000000000
     17808       577  ECLIPA    HA3             5.8461154269      -31.5712998696       14.7377032538  LPSA17    1               0.0000000000
     17809       577  ECLIPA    OA3             6.1885647727      -33.4979036237       14.2498111976  LPSA17    1               0.0000000000
     17810       577  ECLIPA    C31             6.9425486745      -34.3642829471       13.5006246295  LPSA17    1               0.0000000000
     17811       577  ECLIPA    O31             7.1046739410      -34.3261014340       12.2941239937  LPSA17    1               0.0000000000
     17812       577  ECLIPA    C32             7.1100733178      -35.6778557023       14.2780289507  LPSA17    1               0.0000000000
     17813       577  ECLIPA    H32R            6.5987543457      -36.4813582112       13.7149713840  LPSA17    1               0.0000000000
     17814       577  ECLIPA    H32S            6.6836844798      -35.5773558936       15.2729523512  LPSA17    1               0.0000000000
     17815       577  ECLIPA    CA2             7.7171497273      -31.6373697916       13.4984733916  LPSA17    1               0.0000000000
     17816       577  ECLIPA    HA2             8.5629831007      -32.3224916292       13.3982259915  LPSA17    1               0.0000000000
     17817       577  ECLIPA    NA2             7.0721256829      -31.3334828706       12.2035087571  LPSA17    1               0.0000000000
     17818       577  ECLIPA    HNA2            6.1725212106      -31.6790150399       12.0865030408  LPSA17    1               0.0000000000
     17819       577  ECLIPA    C73            16.0463034104      -30.0240514297       14.3319064372  LPSA17    1               0.0000000000
     17820       577  ECLIPA    H73R           16.5296401929      -29.6403837168       15.2227416964  LPSA17    1               0.0000000000
     17821       577  ECLIPA    O73            14.7138849418      -29.4579351750       14.2644256719  LPSA17    1               0.0000000000
     17822       577  ECLIPA    C81            14.3456031756      -28.3090735619       14.8555734565  LPSA17    1               0.0000000000
     17823       577  ECLIPA    O81            15.1496502387      -27.7547133761       15.6690894779  LPSA17    1               0.0000000000
     17824       577  ECLIPA    C82            12.9729717812      -27.8195340858       14.3536111794  LPSA17    1               0.0000000000
     17825       577  ECLIPA    H82R           12.6675175457      -26.9056776346       14.8531840528  LPSA17    1               0.0000000000
     17826       577  ECLIPA    H82S           12.1780178058      -28.5796495785       14.5323473422  LPSA17    1               0.0000000000
     17827       577  ECLIPA    C83            13.0269038876      -27.5761315148       12.8301722806  LPSA17    1               0.0000000000
     17828       577  ECLIPA    H83R           12.8969646551      -28.5567813526       12.2351841548  LPSA17    1               0.0000000000
     17829       577  ECLIPA    H83S           14.0497200257      -27.2795824583       12.5911296392  LPSA17    1               0.0000000000
     17830       577  ECLIPA    C84            11.9053509439      -26.6565966308       12.3050927261  LPSA17    1               0.0000000000
     17831       577  ECLIPA    H84R           12.1516905956      -25.6227962426       12.5767117503  LPSA17    1               0.0000000000
     17832       577  ECLIPA    H84S           11.0151329429      -27.0616354193       12.7369555497  LPSA17    1               0.0000000000
     17833       577  ECLIPA    C85            11.7625532584      -26.7703349905       10.7695484051  LPSA17    1               0.0000000000
     17834       577  ECLIPA    H85R           11.8275970486      -27.8439225343       10.5503608829  LPSA17    1               0.0000000000
     17835       577  ECLIPA    H85S           12.6458645751      -26.3027470042       10.2367999955  LPSA17    1               0.0000000000
     17836       577  ECLIPA    C86            10.3603178659      -26.2894431327       10.3034592726  LPSA17    1               0.0000000000
     17837       577  ECLIPA    H86R           10.3361892455      -25.1922589706        9.9932223571  LPSA17    1               0.0000000000
     17838       577  ECLIPA    H86S            9.6262550054      -26.3914133853       11.0807540114  LPSA17    1               0.0000000000
     17839       577  ECLIPA    C87             9.7735697964      -27.1867673432        9.1601018854  LPSA17    1               0.0000000000
     17840       577  ECLIPA    H87R            8.8227856262      -26.8026125979        8.8049419625  LPSA17    1               0.0000000000
     17841       577  ECLIPA    H87S            9.5454657472      -28.2189990649        9.5406723883  LPSA17    1               0.0000000000
     17842       577  ECLIPA    C88            10.7565701710      -27.3795079841        8.0318999685  LPSA17    1               0.0000000000
     17843       577  ECLIPA    H88R           11.5778999034      -28.1025735262        8.3479828359  LPSA17    1               0.0000000000
     17844       577  ECLIPA    H88S           11.3894776200      -26.4509049585        7.9254521495  LPSA17    1               0.0000000000
     17845       577  ECLIPA    C89            10.1369732428      -27.9408893085        6.7101000712  LPSA17    1               0.0000000000
     17846       577  ECLIPA    H89R            9.1408730516      -28.4054178626        6.8746682686  LPSA17    1               0.0000000000
     17847       577  ECLIPA    H89S           10.7189232976      -28.7050994569        6.2317001698  LPSA17    1               0.0000000000
     17848       577  ECLIPA    C810           10.0289873402      -26.7806455236        5.7047246593  LPSA17    1               0.0000000000
     17849       577  ECLIPA    H810R          10.8793838642      -26.1443999346        6.0108430704  LPSA17    1               0.0000000000
     17850       577  ECLIPA    H810S           9.0987193435      -26.2675312408        5.8554647029  LPSA17    1               0.0000000000
     17851       577  ECLIPA    C811           10.1244218801      -27.1649078260        4.2179945741  LPSA17    1               0.0000000000
     17852       577  ECLIPA    H811R           9.7505634043      -26.4799149378        3.5081125689  LPSA17    1               0.0000000000
     17853       577  ECLIPA    H811S           9.6142047914      -28.1985878373        4.1819101877  LPSA17    1               0.0000000000
     17854       577  ECLIPA    C812           11.5251309412      -27.5793151887        3.7413673409  LPSA17    1               0.0000000000
     17855       577  ECLIPA    H812R          11.4036747691      -27.9937802582        2.6403157337  LPSA17    1               0.0000000000
     17856       577  ECLIPA    H812S          12.0407141412      -28.2528956330        4.4144737196  LPSA17    1               0.0000000000
     17857       577  ECLIPA    C813           12.5423347383      -26.4250179528        3.6785234959  LPSA17    1               0.0000000000
     17858       577  ECLIPA    H813R          12.1406118746      -25.6915951392        2.9398073555  LPSA17    1               0.0000000000
     17859       577  ECLIPA    H813S          12.7077989676      -25.8451667614        4.6616087352  LPSA17    1               0.0000000000
     17860       577  ECLIPA    C814           13.8960397556      -26.8368988282        3.1377409857  LPSA17    1               0.0000000000
     17861       577  ECLIPA    H814R          13.8887258644      -27.4997218013        2.1719074593  LPSA17    1               0.0000000000
     17862       577  ECLIPA    H814S          14.4426207853      -27.3857006451        3.9166242729  LPSA17    1               0.0000000000
     17863       577  ECLIPA    H814T          14.5144261484      -25.9424978508        2.8964685373  LPSA17    1               0.0000000000
     17864       577  ECLIPA    C74            16.7845208086      -29.3853250781       13.1792855021  LPSA17    1               0.0000000000
     17865       577  ECLIPA    H74R           17.8253184626      -29.6446192960       12.9935747315  LPSA17    1               0.0000000000
     17866       577  ECLIPA    H74S           16.7563139598      -28.2330059714       13.3086690609  LPSA17    1               0.0000000000
     17867       577  ECLIPA    C75            15.9904489642      -29.5771828678       11.8151371119  LPSA17    1               0.0000000000
     17868       577  ECLIPA    H75R           16.1535417576      -28.6128936344       11.2107603889  LPSA17    1               0.0000000000
     17869       577  ECLIPA    H75S           14.9048752314      -29.6749890695       12.0082837783  LPSA17    1               0.0000000000
     17870       577  ECLIPA    C76            16.4406754747      -30.7682405394       10.9251453624  LPSA17    1               0.0000000000
     17871       577  ECLIPA    H76R           16.0062386866      -31.7122768520       11.3555905686  LPSA17    1               0.0000000000
     17872       577  ECLIPA    H76S           17.5930173991      -30.9548793413       10.9731137071  LPSA17    1               0.0000000000
     17873       577  ECLIPA    C77            16.0792498532      -30.7187421044        9.4191603634  LPSA17    1               0.0000000000
     17874       577  ECLIPA    H77R           16.5533436485      -29.8460103571        9.0408775908  LPSA17    1               0.0000000000
     17875       577  ECLIPA    H77S           15.0005644961      -30.4728373391        9.2852383479  LPSA17    1               0.0000000000
     17876       577  ECLIPA    C78            16.3907573453      -32.1001559427        8.8297405752  LPSA17    1               0.0000000000
     17877       577  ECLIPA    H78R           17.3936483477      -32.3731588530        9.1562620580  LPSA17    1               0.0000000000
     17878       577  ECLIPA    H78S           15.6400652200      -32.7819974051        9.3169442960  LPSA17    1               0.0000000000
     17879       577  ECLIPA    C79            16.0239630817      -32.2228050982        7.2570767761  LPSA17    1               0.0000000000
     17880       577  ECLIPA    H79R           14.9977727033      -32.6967053773        7.1763205913  LPSA17    1               0.0000000000
     17881       577  ECLIPA    H79S           16.7448695814      -32.8995039746        6.7882549413  LPSA17    1               0.0000000000
     17882       577  ECLIPA    C710           16.2341831723      -30.9854701504        6.3785096220  LPSA17    1               0.0000000000
     17883       577  ECLIPA    H710R          15.5995513985      -30.1967534546        6.8460783027  LPSA17    1               0.0000000000
     17884       577  ECLIPA    H710S          17.2122290078      -30.7003670101        6.4843026416  LPSA17    1               0.0000000000
     17885       577  ECLIPA    C711           15.8009405946      -31.1658779131        4.9384125046  LPSA17    1               0.0000000000
     17886       577  ECLIPA    H711R          16.4566902322      -31.9559930607        4.5670708729  LPSA17    1               0.0000000000
     17887       577  ECLIPA    H711S          14.7150937998      -31.4390124625        4.9306188492  LPSA17    1               0.0000000000
     17888       577  ECLIPA    C712           15.9835509676      -29.8436869419        4.2148670498  LPSA17    1               0.0000000000
     17889       577  ECLIPA    H712R          17.0441193290      -29.5870397740        4.3130666899  LPSA17    1               0.0000000000
     17890       577  ECLIPA    H712S          15.4540142853      -29.1158380121        4.8522839389  LPSA17    1               0.0000000000
     17891       577  ECLIPA    C713           15.4001495688      -29.8928878073        2.7357390519  LPSA17    1               0.0000000000
     17892       577  ECLIPA    H713R          14.3011521892      -30.0888696899        2.8800411466  LPSA17    1               0.0000000000
     17893       577  ECLIPA    H713S          15.6123971654      -28.8581216705        2.2750064041  LPSA17    1               0.0000000000
     17894       577  ECLIPA    C714           16.1756586709      -30.9180212517        1.8879763961  LPSA17    1               0.0000000000
     17895       577  ECLIPA    H714R          17.2266529677      -30.6216319794        1.7626189762  LPSA17    1               0.0000000000
     17896       577  ECLIPA    H714S          15.9904880049      -31.9506363661        2.2081901572  LPSA17    1               0.0000000000
     17897       577  ECLIPA    H714T          15.7227676673      -30.7749138877        0.9249202435  LPSA17    1               0.0000000000
     17898       577  ECLIPA    C51            11.9273474645      -32.2642482418       14.2380633031  LPSA17    1               0.0000000000
     17899       577  ECLIPA    O51            11.9663110586      -31.0198956179       14.1304636378  LPSA17    1               0.0000000000
     17900       577  ECLIPA    C52            12.1960481011      -33.2153791907       13.0157035712  LPSA17    1               0.0000000000
     17901       577  ECLIPA    H52R           13.2293596991      -33.5074147483       12.8950255930  LPSA17    1               0.0000000000
     17902       577  ECLIPA    H52S           11.5853331141      -34.0657193597       13.2222025935  LPSA17    1               0.0000000000
     17903       577  ECLIPA    C53            11.5520807261      -32.5267431962       11.7526064304  LPSA17    1               0.0000000000
     17904       577  ECLIPA    H53R           10.7393429041      -31.8548605796       12.0082431084  LPSA17    1               0.0000000000
     17905       577  ECLIPA    O53            11.2448138043      -33.5956478592       10.8431816314  LPSA17    1               0.0000000000
     17906       577  ECLIPA    C61             9.9801130262      -33.7928218723       10.5090573566  LPSA17    1               0.0000000000
     17907       577  ECLIPA    O61             9.0486355794      -33.1420028081       10.8659713306  LPSA17    1               0.0000000000
     17908       577  ECLIPA    C62             9.8906069865      -35.0077086955        9.5765835255  LPSA17    1               0.0000000000
     17909       577  ECLIPA    H62R            9.9457853010      -35.9144521680       10.2152837125  LPSA17    1               0.0000000000
     17910       577  ECLIPA    H62S           10.8661954728      -35.0580044919        9.0470049452  LPSA17    1               0.0000000000
     17911       577  ECLIPA    C63             8.6268751815      -34.9532391240        8.6803029234  LPSA17    1               0.0000000000
     17912       577  ECLIPA    H63R            8.5626204030      -33.9285777246        8.2798705976  LPSA17    1               0.0000000000
     17913       577  ECLIPA    H63S            7.6611560892      -35.1413429849        9.3252199642  LPSA17    1               0.0000000000
     17914       577  ECLIPA    C64             8.5485928459      -35.8780180254        7.5279067597  LPSA17    1               0.0000000000
     17915       577  ECLIPA    H64R            7.5509365602      -35.8250489468        6.9620099216  LPSA17    1               0.0000000000
     17916       577  ECLIPA    H64S            8.7012178882      -36.9318873764        7.9657393466  LPSA17    1               0.0000000000
     17917       577  ECLIPA    C65             9.7369941313      -35.6009486944        6.5414948800  LPSA17    1               0.0000000000
     17918       577  ECLIPA    H65R           10.5895506521      -35.7877908064        7.2423230371  LPSA17    1               0.0000000000
     17919       577  ECLIPA    H65S            9.6825738237      -34.5494677545        6.1828980290  LPSA17    1               0.0000000000
     17920       577  ECLIPA    C66             9.8222592842      -36.4956795632        5.2222643966  LPSA17    1               0.0000000000
     17921       577  ECLIPA    H66R            9.9245932382      -37.5312503800        5.5395647249  LPSA17    1               0.0000000000
     17922       577  ECLIPA    H66S           10.8009308258      -36.1074168592        4.8113963288  LPSA17    1               0.0000000000
     17923       577  ECLIPA    C67             8.7534502409      -36.3437596428        4.1696839457  LPSA17    1               0.0000000000
     17924       577  ECLIPA    H67R            7.7436082778      -36.4188996268        4.5058181646  LPSA17    1               0.0000000000
     17925       577  ECLIPA    H67S            8.9152642528      -37.0980301771        3.3478820057  LPSA17    1               0.0000000000
     17926       577  ECLIPA    C68             8.7263403538      -34.9909841467        3.5077075145  LPSA17    1               0.0000000000
     17927       577  ECLIPA    H68R            9.6537738149      -34.6180034510        3.0112508411  LPSA17    1               0.0000000000
     17928       577  ECLIPA    H68S            8.3891353491      -34.3580316156        4.3087918325  LPSA17    1               0.0000000000
     17929       577  ECLIPA    C69             7.7958892514      -35.0274415292        2.2963532923  LPSA17    1               0.0000000000
     17930       577  ECLIPA    H69R            6.9804716945      -35.7759946619        2.3203210098  LPSA17    1               0.0000000000
     17931       577  ECLIPA    H69S            8.3969668157      -35.4000788408        1.4693744207  LPSA17    1               0.0000000000
     17932       577  ECLIPA    C610            7.2146470666      -33.7081761282        1.9396251084  LPSA17    1               0.0000000000
     17933       577  ECLIPA    H610R           7.9877615352      -32.9000346533        2.0603347121  LPSA17    1               0.0000000000
     17934       577  ECLIPA    H610S           6.4079674799      -33.4285251368        2.6933643884  LPSA17    1               0.0000000000
     17935       577  ECLIPA    C611            6.5230994580      -33.6902919270        0.5312153135  LPSA17    1               0.0000000000
     17936       577  ECLIPA    H611R           5.7312466103      -34.4634107630        0.5735373188  LPSA17    1               0.0000000000
     17937       577  ECLIPA    H611S           5.8956318706      -32.8283165040        0.3609598123  LPSA17    1               0.0000000000
     17938       577  ECLIPA    C612            7.5504846076      -33.8349717011       -0.5788949292  LPSA17    1               0.0000000000
     17939       577  ECLIPA    H612R           8.1748593692      -32.8980192583       -0.6060949542  LPSA17    1               0.0000000000
     17940       577  ECLIPA    H612S           8.2582680316      -34.6299416610       -0.3132441764  LPSA17    1               0.0000000000
     17941       577  ECLIPA    H612T           7.0837183335      -33.9787343360       -1.5574606966  LPSA17    1               0.0000000000
     17942       577  ECLIPA    C54            12.7073568519      -31.6869273977       11.1776054589  LPSA17    1               0.0000000000
     17943       577  ECLIPA    H54R           13.5451768777      -32.3884491665       10.8869876633  LPSA17    1               0.0000000000
     17944       577  ECLIPA    H54S           13.1382402095      -31.0383990625       11.9574517429  LPSA17    1               0.0000000000
     17945       577  ECLIPA    C55            12.4363035464      -30.7690540544        9.9916770240  LPSA17    1               0.0000000000
     17946       577  ECLIPA    H55R           13.2356047887      -30.0215809163        9.7856946516  LPSA17    1               0.0000000000
     17947       577  ECLIPA    H55S           11.4894331697      -30.1709495034       10.2436295858  LPSA17    1               0.0000000000
     17948       577  ECLIPA    C56            12.3965205630      -31.6217493083        8.7515486822  LPSA17    1               0.0000000000
     17949       577  ECLIPA    H56R           11.5708274015      -32.3926806556        8.8382497819  LPSA17    1               0.0000000000
     17950       577  ECLIPA    H56S           13.2700210376      -32.1304060809        8.4741334449  LPSA17    1               0.0000000000
     17951       577  ECLIPA    C57            11.8663395070      -30.9292883074        7.4395707935  LPSA17    1               0.0000000000
     17952       577  ECLIPA    H57R           12.4193862213      -30.0240431952        7.1827428724  LPSA17    1               0.0000000000
     17953       577  ECLIPA    H57S           10.8128144956      -30.5869921084        7.5196553379  LPSA17    1               0.0000000000
     17954       577  ECLIPA    C58            11.8540614901      -31.9565264247        6.2350750625  LPSA17    1               0.0000000000
     17955       577  ECLIPA    H58R           12.8020041251      -32.5621503155        6.2095761879  LPSA17    1               0.0000000000
     17956       577  ECLIPA    H58S           11.1252880674      -32.7632718471        6.5224540661  LPSA17    1               0.0000000000
     17957       577  ECLIPA    C59            11.6725711146      -31.2416825668        4.8667186835  LPSA17    1               0.0000000000
     17958       577  ECLIPA    H59R           12.4636967749      -30.4990362880        4.6589989540  LPSA17    1               0.0000000000
     17959       577  ECLIPA    H59S           10.6973155466      -30.7626480227        5.0825555512  LPSA17    1               0.0000000000
     17960       577  ECLIPA    C510           11.8010816700      -32.2082422333        3.6752379292  LPSA17    1               0.0000000000
     17961       577  ECLIPA    H510R          11.2449591161      -33.2007179117        3.7937959224  LPSA17    1               0.0000000000
     17962       577  ECLIPA    H510S          12.9275694756      -32.4945311016        3.4613250382  LPSA17    1               0.0000000000
     17963       577  ECLIPA    C511           11.3658668717      -31.6584260424        2.3004848829  LPSA17    1               0.0000000000
     17964       577  ECLIPA    H511R          10.2624838109      -31.7409131161        2.2679211996  LPSA17    1               0.0000000000
     17965       577  ECLIPA    H511S          11.5827161757      -30.5558708387        2.1940961976  LPSA17    1               0.0000000000
     17966       577  ECLIPA    C512           11.8888509227      -32.4057902768        1.0189424135  LPSA17    1               0.0000000000
     17967       577  ECLIPA    H512R          11.6931627922      -31.7861168939        0.0815295424  LPSA17    1               0.0000000000
     17968       577  ECLIPA    H512S          12.9676189956      -32.5817122200        1.1129704346  LPSA17    1               0.0000000000
     17969       577  ECLIPA    C513           11.0968194739      -33.7402266357        0.6457389972  LPSA17    1               0.0000000000
     17970       577  ECLIPA    H513R           9.9907636578      -33.5353651117        0.5010832175  LPSA17    1               0.0000000000
     17971       577  ECLIPA    H513S          11.1575147597      -34.4209922303        1.4088770719  LPSA17    1               0.0000000000
     17972       577  ECLIPA    C514           11.5925948152      -34.3063155774       -0.6567184026  LPSA17    1               0.0000000000
     17973       577  ECLIPA    H514R          12.6715899193      -34.4564749152       -0.6273993866  LPSA17    1               0.0000000000
     17974       577  ECLIPA    H514S          11.1555545799      -35.3062775549       -0.7024724270  LPSA17    1               0.0000000000
     17975       577  ECLIPA    H514T          11.3117413398      -33.6280947134       -1.5427815912  LPSA17    1               0.0000000000
     17976       577  ECLIPA    C33             8.5955564726      -36.2216450504       14.4880792826  LPSA17    1               0.0000000000
     17977       577  ECLIPA    H33R            8.5086075191      -37.2879329221       14.8828993596  LPSA17    1               0.0000000000
     17978       577  ECLIPA    O33             9.2763069838      -35.4621534887       15.4699768821  LPSA17    1               0.0000000000
     17979       577  ECLIPA    HO33            8.9289379089      -35.6819316049       16.2926205744  LPSA17    1               0.0000000000
     17980       577  ECLIPA    C34             9.4950432648      -36.2853746103       13.2255459338  LPSA17    1               0.0000000000
     17981       577  ECLIPA    H34R            9.5917746102      -35.2921405199       12.8010908313  LPSA17    1               0.0000000000
     17982       577  ECLIPA    H34S            8.9623934431      -36.8669943920       12.3772221142  LPSA17    1               0.0000000000
     17983       577  ECLIPA    C35            10.9111406247      -36.8554383597       13.4256256262  LPSA17    1               0.0000000000
     17984       577  ECLIPA    H35R           10.8157271761      -37.9044941745       13.6963698038  LPSA17    1               0.0000000000
     17985       577  ECLIPA    H35S           11.3850095992      -36.3332051562       14.2668166019  LPSA17    1               0.0000000000
     17986       577  ECLIPA    C36            11.8283093838      -36.9048755479       12.1865608177  LPSA17    1               0.0000000000
     17987       577  ECLIPA    H36R           11.4428546566      -35.9637774977       11.7430812241  LPSA17    1               0.0000000000
     17988       577  ECLIPA    H36S           11.6588955889      -37.7769737065       11.4785220412  LPSA17    1               0.0000000000
     17989       577  ECLIPA    C37            13.2799735150      -36.6234376661       12.5255831563  LPSA17    1               0.0000000000
     17990       577  ECLIPA    H37R           13.7409660472      -37.7014706950       12.6765215637  LPSA17    1               0.0000000000
     17991       577  ECLIPA    H37S           13.3967330488      -36.1390888386       13.5128993321  LPSA17    1               0.0000000000
     17992       577  ECLIPA    C38            14.1175490734      -35.9043234486       11.4317274953  LPSA17    1               0.0000000000
     17993       577  ECLIPA    H38R           13.9584629168      -34.8134436204       11.4067421357  LPSA17    1               0.0000000000
     17994       577  ECLIPA    H38S           15.1793483194      -35.9984613324       11.7230999881  LPSA17    1               0.0000000000
     17995       577  ECLIPA    C39            13.7936590754      -36.4374299815       10.0213367345  LPSA17    1               0.0000000000
     17996       577  ECLIPA    H39R           12.6931000338      -36.3669106374        9.8128797222  LPSA17    1               0.0000000000
     17997       577  ECLIPA    H39S           14.2186218700      -37.4748937833        9.9697980947  LPSA17    1               0.0000000000
     17998       577  ECLIPA    C310           14.5205214226      -35.7600471332        8.8401719124  LPSA17    1               0.0000000000
     17999       577  ECLIPA    H310R          15.6262762797      -36.0008251281        9.0626900142  LPSA17    1               0.0000000000
     18000       577  ECLIPA    H310S          14.3718346830      -34.6420804556        8.8945759064  LPSA17    1               0.0000000000
     18001       577  ECLIPA    C311           13.8763842602      -36.0680598660        7.5676235846  LPSA17    1               0.0000000000
     18002       577  ECLIPA    H311R          13.5339386497      -37.1339580122        7.5507520616  LPSA17    1               0.0000000000
     18003       577  ECLIPA    H311S          12.9787795844      -35.4357502194        7.2851462164  LPSA17    1               0.0000000000
     18004       577  ECLIPA    C312           14.7606326589      -35.8081141799        6.3280121142  LPSA17    1               0.0000000000
     18005       577  ECLIPA    H312R          15.4117251791      -34.9115820169        6.4861373960  LPSA17    1               0.0000000000
     18006       577  ECLIPA    H312S          15.4090107480      -36.7082953520        6.1820758986  LPSA17    1               0.0000000000
     18007       577  ECLIPA    C313           13.9754798341      -35.6182865274        4.9895779706  LPSA17    1               0.0000000000
     18008       577  ECLIPA    H313R          13.6295085266      -36.5836038752        4.7825120466  LPSA17    1               0.0000000000
     18009       577  ECLIPA    H313S          13.0872109142      -34.9471355181        5.1572698764  LPSA17    1               0.0000000000
     18010       577  ECLIPA    C314           14.7407601917      -35.1116543977        3.8116661598  LPSA17    1               0.0000000000
     18011       577  ECLIPA    H314R          15.6026188060      -35.8034605230        3.6067793993  LPSA17    1               0.0000000000
     18012       577  ECLIPA    H314S          14.1730796544      -34.9938714646        2.8849361441  LPSA17    1               0.0000000000
     18013       577  ECLIPA    H314T          15.2179988089      -34.0959044371        4.0446347774  LPSA17    1               0.0000000000
     18014       577  ECLIPA    C11             7.5183569276      -30.5073022309       11.2900808200  LPSA17    1               0.0000000000
     18015       577  ECLIPA    O11             8.6453653055      -30.0517797359       11.1394597694  LPSA17    1               0.0000000000
     18016       577  ECLIPA    C12             6.4404105092      -30.0028682304       10.2853014675  LPSA17    1               0.0000000000
     18017       577  ECLIPA    H12R            6.1680952051      -28.9351752818       10.4852637814  LPSA17    1               0.0000000000
     18018       577  ECLIPA    H12S            5.5626183591      -30.6607645920       10.5222272274  LPSA17    1               0.0000000000
     18019       577  ECLIPA    C13             6.7930897080      -30.1487616894        8.8110583416  LPSA17    1               0.0000000000
     18020       577  ECLIPA    H13R            7.8799417544      -29.8315378368        8.5839874118  LPSA17    1               0.0000000000
     18021       577  ECLIPA    O13             5.9224142104      -29.2073310645        8.1311342176  LPSA17    1               0.0000000000
     18022       577  ECLIPA    HO13            6.2987592994      -28.9607991431        7.3064966676  LPSA17    1               0.0000000000
     18023       577  ECLIPA    C14             6.6224537907      -31.6079029003        8.4581579993  LPSA17    1               0.0000000000
     18024       577  ECLIPA    H14R            5.7061248892      -32.0791651541        8.9706443184  LPSA17    1               0.0000000000
     18025       577  ECLIPA    H14S            7.5691049019      -32.1226871780        8.7243868424  LPSA17    1               0.0000000000
     18026       577  ECLIPA    C15             6.4286792385      -31.8697297714        6.9526486677  LPSA17    1               0.0000000000
     18027       577  ECLIPA    H15R            5.6416642450      -31.2540742450        6.5500123177  LPSA17    1               0.0000000000
     18028       577  ECLIPA    H15S            6.1982859810      -32.9337381796        6.8782608049  LPSA17    1               0.0000000000
     18029       577  ECLIPA    C16             7.7146892554      -31.5208801496        6.1622847334  LPSA17    1               0.0000000000
     18030       577  ECLIPA    H16R            8.5095359628      -32.3456282898        6.2733383262  LPSA17    1               0.0000000000
     18031       577  ECLIPA    H16S            8.2354793104      -30.7224471293        6.7182496574  LPSA17    1               0.0000000000
     18032       577  ECLIPA    C17             7.4575711934      -31.2584503231        4.6801229578  LPSA17    1               0.0000000000
     18033       577  ECLIPA    H17R            6.7552596524      -32.1099914084        4.4246758429  LPSA17    1               0.0000000000
     18034       577  ECLIPA    H17S            8.3141174275      -31.3535319930        4.0046542873  LPSA17    1               0.0000000000
     18035       577  ECLIPA    C18             6.8135217142      -29.9184146783        4.4504458171  LPSA17    1               0.0000000000
     18036       577  ECLIPA    H18R            5.9702954287      -29.9681544865        5.0865821920  LPSA17    1               0.0000000000
     18037       577  ECLIPA    H18S            7.5445786276      -29.1236912743        4.7749867078  LPSA17    1               0.0000000000
     18038       577  ECLIPA    C19             6.4211389644      -29.7050124274        3.0097966450  LPSA17    1               0.0000000000
     18039       577  ECLIPA    H19R            5.8549472073      -28.7882113905        2.9245509529  LPSA17    1               0.0000000000
     18040       577  ECLIPA    H19S            5.8026975449      -30.5812347218        2.6238151240  LPSA17    1               0.0000000000
     18041       577  ECLIPA    C110            7.6625547063      -29.5125479767        2.1045801788  LPSA17    1               0.0000000000
     18042       577  ECLIPA    H110R           8.3821750126      -28.7646643833        2.4416701971  LPSA17    1               0.0000000000
     18043       577  ECLIPA    H110S           8.0922191710      -30.5370478039        2.1583327743  LPSA17    1               0.0000000000
     18044       577  ECLIPA    C111            7.2054599715      -29.2290105278        0.7563571155  LPSA17    1               0.0000000000
     18045       577  ECLIPA    H111R           6.3422282571      -29.8577354423        0.3999767799  LPSA17    1               0.0000000000
     18046       577  ECLIPA    H111S           6.8037952596      -28.2500129289        0.7977177860  LPSA17    1               0.0000000000
     18047       577  ECLIPA    C112            8.3274078230      -29.2251278924       -0.2937360943  LPSA17    1               0.0000000000
     18048       577  ECLIPA    H112R           9.0097380416      -28.4829725182        0.1973446929  LPSA17    1               0.0000000000
     18049       577  ECLIPA    H112S           8.9423692671      -30.1254168547       -0.2177998937  LPSA17    1               0.0000000000
     18050       577  ECLIPA    C113            7.8325570435      -29.1412171611       -1.7468031795  LPSA17    1               0.0000000000
     18051       577  ECLIPA    H113R           7.2862093032      -30.0841957660       -1.9802017524  LPSA17    1               0.0000000000
     18052       577  ECLIPA    H113S           7.0654730312      -28.3675668603       -1.8531093719  LPSA17    1               0.0000000000
     18053       577  ECLIPA    C114            8.8111566448      -28.7766222068       -2.8344928043  LPSA17    1               0.0000000000
     18054       577  ECLIPA    H114R           9.4505625390      -27.8996184856       -2.7829422503  LPSA17    1               0.0000000000
     18055       577  ECLIPA    H114S           9.5264795235      -29.6311288469       -2.9951089580  LPSA17    1               0.0000000000
     18056       577  ECLIPA    H114T           8.2485954632      -28.4762814991       -3.7399523103  LPSA17    1               0.0000000000
     18057       578  AKDO      C1             13.0172572306      -33.1456375757       22.4410509549  LPSA17    2               0.0000000000
     18058       578  AKDO      O11            14.2946473157      -33.1138414247       22.4913720772  LPSA17    2               0.0000000000
     18059       578  AKDO      O12            12.2376197960      -34.0715297250       22.0800765534  LPSA17    2               0.0000000000
     18060       578  AKDO      C2             12.3217446397      -31.8571159863       22.8913181237  LPSA17    2               0.0000000000
     18061       578  AKDO      C6             12.7683596648      -29.7191818298       23.8039205188  LPSA17    2               0.0000000000
     18062       578  AKDO      H6             12.3529729837      -29.2536458408       22.9487387861  LPSA17    2               0.0000000000
     18063       578  AKDO      O6             13.3128515465      -31.0473717248       23.4267274814  LPSA17    2               0.0000000000
     18064       578  AKDO      C3             11.3215626479      -32.0755986929       23.9587385105  LPSA17    2               0.0000000000
     18065       578  AKDO      H31            11.6666827620      -32.6182565140       24.7868435866  LPSA17    2               0.0000000000
     18066       578  AKDO      H32            10.4171412751      -32.6331876864       23.4151264596  LPSA17    2               0.0000000000
     18067       578  AKDO      C4             10.7159984833      -30.7408977363       24.3842593775  LPSA17    2               0.0000000000
     18068       578  AKDO      H4             10.3188723318      -30.1799049546       23.5563617270  LPSA17    2               0.0000000000
     18069       578  AKDO      O4              9.6867215614      -30.9724546592       25.3355834555  LPSA17    2               0.0000000000
     18070       578  AKDO      C5             11.7046151014      -29.8116112292       24.9292437177  LPSA17    2               0.0000000000
     18071       578  AKDO      H5             11.2733678620      -28.7790969870       25.0107888161  LPSA17    2               0.0000000000
     18072       578  AKDO      O5             12.2138555898      -30.3824872998       26.2083878813  LPSA17    2               0.0000000000
     18073       578  AKDO      C7             13.9169872684      -28.6812489006       24.1981149098  LPSA17    2               0.0000000000
     18074       578  AKDO      H7             14.4106053895      -29.0527095742       25.0939202098  LPSA17    2               0.0000000000
     18075       578  AKDO      O7             13.3982121977      -27.3333780465       24.3482682347  LPSA17    2               0.0000000000
     18076       578  AKDO      HO7            13.2670534985      -27.0199223769       23.4945166536  LPSA17    2               0.0000000000
     18077       578  AKDO      C8             14.9103681420      -28.6627276176       22.9864433882  LPSA17    2               0.0000000000
     18078       578  AKDO      H81            15.2756985293      -29.7151988243       22.9153150275  LPSA17    2               0.0000000000
     18079       578  AKDO      H82            14.3059723752      -28.3001446326       22.0745354517  LPSA17    2               0.0000000000
     18080       578  AKDO      O8             16.0441083787      -27.7706144125       23.3537996748  LPSA17    2               0.0000000000
     18081       578  AKDO      HO8            16.8625877194      -28.1240487461       22.9179804014  LPSA17    2               0.0000000000
     18082       579  AKDO      C1              7.9494107370      -30.4674076258       23.8027969005  LPSA17    3               1.0000000000
     18083       579  AKDO      O11             7.9782853260      -30.9881905003       22.6471489042  LPSA17    3               1.0000000000
     18084       579  AKDO      O12             7.5881655254      -29.2955978908       24.0656860145  LPSA17    3               1.0000000000
     18085       579  AKDO      C2              8.3489368286      -31.2942997865       25.0166033796  LPSA17    3               1.0000000000
     18086       579  AKDO      C6              8.7246953390      -33.5464827022       25.7688829792  LPSA17    3               1.0000000000
     18087       579  AKDO      H6              9.8217631697      -33.3283019584       25.9810553331  LPSA17    3               1.0000000000
     18088       579  AKDO      O6              8.2690588861      -32.7296712835       24.7076657818  LPSA17    3               1.0000000000
     18089       579  AKDO      C3              7.5484451946      -31.0247059733       26.3187707743  LPSA17    3               1.0000000000
     18090       579  AKDO      H31             6.4230380981      -31.2838033711       26.1504935106  LPSA17    3               1.0000000000
     18091       579  AKDO      H32             7.5917451633      -29.9615894731       26.5929217108  LPSA17    3               1.0000000000
     18092       579  AKDO      C4              8.1062614171      -31.9102095143       27.4036122013  LPSA17    3               1.0000000000
     18093       579  AKDO      H4              9.1919831828      -31.7733667470       27.4051754129  LPSA17    3               1.0000000000
     18094       579  AKDO      O4              7.6417450059      -31.6628913352       28.7388570077  LPSA17    3               1.0000000000
     18095       579  AKDO      HO4             8.3200056814      -31.4608834150       29.3717785514  LPSA17    3               1.0000000000
     18096       579  AKDO      C5              7.9593862459      -33.2679342323       27.0369167275  LPSA17    3               1.0000000000
     18097       579  AKDO      H5              8.3017282850      -33.9237067609       27.9236884022  LPSA17    3               1.0000000000
     18098       579  AKDO      O5              6.5697949939      -33.5958683388       26.8495261943  LPSA17    3               1.0000000000
     18099       579  AKDO      HO5             6.1994121690      -33.0481134525       26.1887877298  LPSA17    3               1.0000000000
     18100       579  AKDO      C7              8.5811015021      -34.9809348709       25.3258859863  LPSA17    3               1.0000000000
     18101       579  AKDO      H7              7.5011584382      -35.2477795276       25.1324849511  LPSA17    3               1.0000000000
     18102       579  AKDO      O7              9.1241785671      -35.8396860653       26.3661029982  LPSA17    3               1.0000000000
     18103       579  AKDO      HO7             8.8806059496      -36.7679246845       26.1647669547  LPSA17    3               1.0000000000
     18104       579  AKDO      C8              9.4527159407      -35.1641361101       24.1539635864  LPSA17    3               1.0000000000
     18105       579  AKDO      H81             9.1494374973      -34.4902290784       23.3419478721  LPSA17    3               1.0000000000
     18106       579  AKDO      H82            10.5352981113      -35.0168791904       24.2853144505  LPSA17    3               1.0000000000
     18107       579  AKDO      O8              9.3137723606      -36.4751256113       23.6541307456  LPSA17    3               1.0000000000
     18108       579  AKDO      HO8             8.4377935494      -36.3371632213       23.2473452835  LPSA17    3               1.0000000000
     18109       580  AHEP      C1             12.5344868909      -29.5095653370       27.2793229502  LPSA17    4               2.0000000000
     18110       580  AHEP      H1             13.5524442897      -29.2300568562       26.8517192453  LPSA17    4               2.0000000000
     18111       580  AHEP      C5             10.5044090799      -28.4120391989       28.0185271385  LPSA17    4               2.0000000000
     18112       580  AHEP      H5             10.0103223678      -29.3554453587       27.5619054335  LPSA17    4               2.0000000000
     18113       580  AHEP      O5             11.7805161859      -28.3003991499       27.3942805697  LPSA17    4               2.0000000000
     18114       580  AHEP      C2             12.8082119299      -29.9868098295       28.6827861277  LPSA17    4               2.0000000000
     18115       580  AHEP      H2             13.3457984283      -30.9394985303       28.7442425996  LPSA17    4               2.0000000000
     18116       580  AHEP      O2             13.5916789889      -29.0580179622       29.3407203943  LPSA17    4               2.0000000000
     18117       580  AHEP      HO2            14.2419194772      -29.5027861449       29.8507927467  LPSA17    4               2.0000000000
     18118       580  AHEP      C3             11.5020583400      -30.1515367447       29.4857672188  LPSA17    4               2.0000000000
     18119       580  AHEP      H3             10.8831768146      -31.0216624635       29.2269906369  LPSA17    4               2.0000000000
     18120       580  AHEP      O3             11.7898041185      -30.4057012091       30.7882097304  LPSA17    4               2.0000000000
     18121       580  AHEP      C4             10.7331751934      -28.8556360581       29.4546205599  LPSA17    4               2.0000000000
     18122       580  AHEP      H4             11.2154966733      -27.9930236442       29.9788637739  LPSA17    4               2.0000000000
     18123       580  AHEP      O4              9.4701022588      -29.0635527864       30.0145912217  LPSA17    4               2.0000000000
     18124       580  AHEP      P4              9.0352942389      -28.4528246281       31.4978499249  LPSA17    4               2.0000000000
     18125       580  AHEP      OP42            8.1127608731      -29.4007934658       32.1560374192  LPSA17    4               2.0000000000
     18126       580  AHEP      OP43            8.3533281550      -27.1973274324       31.0397938518  LPSA17    4               2.0000000000
     18127       580  AHEP      OP44           10.3182146922      -28.0912839091       32.3098937101  LPSA17    4               2.0000000000
     18128       580  AHEP      C6              9.6352240696      -27.1220019527       27.7982482844  LPSA17    4               2.0000000000
     18129       580  AHEP      H6              8.5791449250      -27.4148447195       28.0833143566  LPSA17    4               2.0000000000
     18130       580  AHEP      O6             10.1089183356      -26.1277126049       28.7103505027  LPSA17    4               2.0000000000
     18131       580  AHEP      HO6             9.3663585038      -25.7062412234       29.2203787365  LPSA17    4               2.0000000000
     18132       580  AHEP      C7              9.6149295858      -26.6162895362       26.3054198206  LPSA17    4               2.0000000000
     18133       580  AHEP      H71             8.8454855055      -25.7873637179       26.1576126064  LPSA17    4               2.0000000000
     18134       580  AHEP      H72             9.5005467069      -27.4895620254       25.6323487339  LPSA17    4               2.0000000000
     18135       580  AHEP      O7             10.8567386695      -26.0010132671       25.9755159574  LPSA17    4               2.0000000000
     18136       580  AHEP      HO7            10.8382556886      -25.0961939775       26.3256794122  LPSA17    4               2.0000000000
     18137       581  AHEP      C1             11.3508252218      -31.6223405715       31.4342177374  LPSA17    5               3.0000000000
     18138       581  AHEP      H1             10.4004046315      -32.0068699983       30.9794447437  LPSA17    5               3.0000000000
     18139       581  AHEP      C5             13.5731341163      -32.3329012573       31.9165413065  LPSA17    5               3.0000000000
     18140       581  AHEP      H5             13.8641712394      -31.2732815975       31.6031509785  LPSA17    5               3.0000000000
     18141       581  AHEP      O5             12.3373756019      -32.6620141315       31.3013865768  LPSA17    5               3.0000000000
     18142       581  AHEP      C2             11.0934184016      -31.4778849389       32.9718957084  LPSA17    5               3.0000000000
     18143       581  AHEP      H2             10.3658202083      -30.6118761692       33.0921707216  LPSA17    5               3.0000000000
     18144       581  AHEP      O2             10.4847505499      -32.6549627808       33.4691025827  LPSA17    5               3.0000000000
     18145       581  AHEP      HO2             9.5612568220      -32.4999211337       33.6403503244  LPSA17    5               3.0000000000
     18146       581  AHEP      C3             12.3953437232      -31.0850375647       33.7004304811  LPSA17    5               3.0000000000
     18147       581  AHEP      H3             12.7667197398      -30.1202859439       33.3375632548  LPSA17    5               3.0000000000
     18148       581  AHEP      O3             12.3025350990      -30.9439927760       35.1462238331  LPSA17    5               3.0000000000
     18149       581  AHEP      C4             13.3722719636      -32.1825492327       33.4524658705  LPSA17    5               3.0000000000
     18150       581  AHEP      H4             13.0023878832      -33.1711188102       33.8188816395  LPSA17    5               3.0000000000
     18151       581  AHEP      O4             14.6363659029      -31.8139715926       34.0881196202  LPSA17    5               3.0000000000
     18152       581  AHEP      P4             15.2317725527      -32.6883698485       35.2810123301  LPSA17    5               3.0000000000
     18153       581  AHEP      OP42           16.4028046530      -31.9013186903       35.8202965042  LPSA17    5               3.0000000000
     18154       581  AHEP      OP43           15.6808737901      -34.0137346551       34.6107506294  LPSA17    5               3.0000000000
     18155       581  AHEP      OP44           14.0999690099      -32.9404850483       36.2417033353  LPSA17    5               3.0000000000
     18156       581  AHEP      C6             14.7133044007      -33.2951274968       31.5493607386  LPSA17    5               3.0000000000
     18157       581  AHEP      H6             15.6821071545      -32.9567656041       31.9533288164  LPSA17    5               3.0000000000
     18158       581  AHEP      O6             14.4325232201      -34.6005478954       32.0428602265  LPSA17    5               3.0000000000
     18159       581  AHEP      HO6            13.7574341034      -35.1257326184       31.5367188277  LPSA17    5               3.0000000000
     18160       581  AHEP      C7             14.9755284886      -33.2351230840       30.0822725317  LPSA17    5               3.0000000000
     18161       581  AHEP      H71            16.0623733407      -33.4030784906       29.9169108581  LPSA17    5               3.0000000000
     18162       581  AHEP      H72            14.7255385187      -32.2627135122       29.6179339851  LPSA17    5               3.0000000000
     18163       581  AHEP      O7             14.3079053374      -34.3723442435       29.4957736452  LPSA17    5               3.0000000000
     18164       582  AHEP      C1             13.1466785032      -34.0472773625       28.7926622005  LPSA17    6               4.0000000000
     18165       582  AHEP      H1             12.8158116211      -32.9798262474       29.0422981953  LPSA17    6               4.0000000000
     18166       582  AHEP      C5             13.7478241582      -35.4047864651       26.9237617191  LPSA17    6               4.0000000000
     18167       582  AHEP      H5             14.6449500063      -35.7068880825       27.4818042043  LPSA17    6               4.0000000000
     18168       582  AHEP      O5             13.3221346613      -34.1024581129       27.3547530115  LPSA17    6               4.0000000000
     18169       582  AHEP      C2             12.0387491278      -34.9601406448       29.2397872647  LPSA17    6               4.0000000000
     18170       582  AHEP      H2             11.9057384248      -34.7983784670       30.3523091474  LPSA17    6               4.0000000000
     18171       582  AHEP      O2             10.7878618300      -34.5805485283       28.7267108980  LPSA17    6               4.0000000000
     18172       582  AHEP      HO2            10.3296877620      -34.2333596830       29.4669064354  LPSA17    6               4.0000000000
     18173       582  AHEP      C3             12.4292593436      -36.4070309270       28.8468391403  LPSA17    6               4.0000000000
     18174       582  AHEP      H3             13.3214328588      -36.6642675116       29.4311808254  LPSA17    6               4.0000000000
     18175       582  AHEP      O3             11.3899981515      -37.4367091852       29.2225362108  LPSA17    6               4.0000000000
     18176       582  AHEP      HO3            11.5411675217      -37.9242515767       29.9865592523  LPSA17    6               4.0000000000
     18177       582  AHEP      C4             12.6446733648      -36.4049645729       27.2761740859  LPSA17    6               4.0000000000
     18178       582  AHEP      H4             11.6860983846      -36.2728119200       26.7944950683  LPSA17    6               4.0000000000
     18179       582  AHEP      O4             13.0417337035      -37.6975007770       26.7938835778  LPSA17    6               4.0000000000
     18180       582  AHEP      HO4            14.0050141125      -37.7771345215       27.1589530594  LPSA17    6               4.0000000000
     18181       582  AHEP      C6             14.1881891481      -35.4410747649       25.4906533340  LPSA17    6               4.0000000000
     18182       582  AHEP      H6             14.5734949562      -36.4441826977       25.3442628137  LPSA17    6               4.0000000000
     18183       582  AHEP      O6             13.0434630386      -35.3805655504       24.6375675438  LPSA17    6               4.0000000000
     18184       582  AHEP      HO6            13.1236786153      -34.6671024743       23.9977784313  LPSA17    6               4.0000000000
     18185       582  AHEP      C7             15.3076057616      -34.4907217554       25.1799756221  LPSA17    6               4.0000000000
     18186       582  AHEP      H71            15.6654864257      -34.7242524230       24.1408078076  LPSA17    6               4.0000000000
     18187       582  AHEP      H72            16.0962782717      -34.6976783797       25.9252229174  LPSA17    6               4.0000000000
     18188       582  AHEP      O7             14.9485004121      -33.1425582789       25.2517430265  LPSA17    6               4.0000000000
     18189       582  AHEP      HO7            15.0388652594      -32.9211076532       26.2011285002  LPSA17    6               4.0000000000
     18190       583  AGLC      C1             11.9215321202      -29.6727380170       35.6520976122  LPSA17    7               4.0000000000
     18191       583  AGLC      H1             12.6095104069      -28.8752841927       35.2047739589  LPSA17    7               4.0000000000
     18192       583  AGLC      C5              9.6637543976      -30.1896364939       36.0987679218  LPSA17    7               4.0000000000
     18193       583  AGLC      H5              9.8200875879      -31.2449511111       35.8327124756  LPSA17    7               4.0000000000
     18194       583  AGLC      O5             10.5724683106      -29.3739411266       35.4366254460  LPSA17    7               4.0000000000
     18195       583  AGLC      C2             12.1195319200      -29.5921313972       37.1582745954  LPSA17    7               4.0000000000
     18196       583  AGLC      H2             11.7230571503      -28.5656341739       37.4887389927  LPSA17    7               4.0000000000
     18197       583  AGLC      O2             13.5149019153      -29.4893426012       37.5024056006  LPSA17    7               4.0000000000
     18198       583  AGLC      HO2            13.8049299510      -30.3878126989       37.6430208865  LPSA17    7               4.0000000000
     18199       583  AGLC      C3             11.2709794133      -30.4215107245       37.9903802326  LPSA17    7               4.0000000000
     18200       583  AGLC      H3             11.5054399356      -31.4382861427       37.6727250444  LPSA17    7               4.0000000000
     18201       583  AGLC      O3             11.5477997656      -30.4407718305       39.4204481292  LPSA17    7               4.0000000000
     18202       583  AGLC      C4              9.8825958780      -30.0128024197       37.5928595998  LPSA17    7               4.0000000000
     18203       583  AGLC      H4              9.6619421275      -28.9422662912       37.9560286200  LPSA17    7               4.0000000000
     18204       583  AGLC      O4              9.0158933733      -30.9796883151       38.2243117391  LPSA17    7               4.0000000000
     18205       583  AGLC      HO4             8.2545619987      -30.6055822264       38.6132003238  LPSA17    7               4.0000000000
     18206       583  AGLC      C6              8.2424620312      -29.9651377118       35.5245160098  LPSA17    7               4.0000000000
     18207       583  AGLC      H61             8.3293129882      -30.0765704572       34.4135318240  LPSA17    7               4.0000000000
     18208       583  AGLC      H62             7.4279412557      -30.6359512677       35.8722646349  LPSA17    7               4.0000000000
     18209       583  AGLC      O6              7.9186970984      -28.5509669535       35.6892983147  LPSA17    7               4.0000000000
     18210       583  AGLC      HO6             7.3887237715      -28.6091707461       36.4386090630  LPSA17    7               4.0000000000
     18211       584  AGLC      C1             12.0058876126      -31.6414000516       39.9328324507  LPSA17    8               5.0000000000
     18212       584  AGLC      H1             11.3622406208      -32.4695992727       39.5884769495  LPSA17    8               5.0000000000
     18213       584  AGLC      C5             14.4065281630      -31.0747479291       40.2153373402  LPSA17    8               5.0000000000
     18214       584  AGLC      H5             14.1852455904      -30.0682610865       39.8400606936  LPSA17    8               5.0000000000
     18215       584  AGLC      O5             13.4077226088      -31.9472766629       39.6195505863  LPSA17    8               5.0000000000
     18216       584  AGLC      C2             11.9000725327      -31.6605056855       41.4170311384  LPSA17    8               5.0000000000
     18217       584  AGLC      H2             12.1313637806      -32.7238282022       41.6529594578  LPSA17    8               5.0000000000
     18218       584  AGLC      O2             10.5840061694      -31.5367205836       41.9438754185  LPSA17    8               5.0000000000
     18219       584  AGLC      C3             12.8450297182      -30.7618620321       42.1297388169  LPSA17    8               5.0000000000
     18220       584  AGLC      H3             12.5316096016      -29.7810304412       41.6567950186  LPSA17    8               5.0000000000
     18221       584  AGLC      O3             12.5780764317      -30.7790831635       43.5370978028  LPSA17    8               5.0000000000
     18222       584  AGLC      C4             14.1932364386      -31.1692346881       41.7603093222  LPSA17    8               5.0000000000
     18223       584  AGLC      H4             14.3746314695      -32.1904519534       42.0401368658  LPSA17    8               5.0000000000
     18224       584  AGLC      O4             15.1561478408      -30.3583933163       42.3914819843  LPSA17    8               5.0000000000
     18225       584  AGLC      HO4            14.8502273087      -29.4846241973       42.3800652601  LPSA17    8               5.0000000000
     18226       584  AGLC      C6             15.8638091983      -31.2732688767       39.7357334439  LPSA17    8               5.0000000000
     18227       584  AGLC      H61            15.9668226054      -31.3871736092       38.6468043611  LPSA17    8               5.0000000000
     18228       584  AGLC      H62            16.5458738218      -30.4965535445       40.0276014644  LPSA17    8               5.0000000000
     18229       584  AGLC      O6             16.5057777939      -32.3764733457       40.3040784562  LPSA17    8               5.0000000000
     18230       584  AGLC      HO6            16.8200659027      -32.1980920515       41.2121845210  LPSA17    8               5.0000000000
     18231       585  AGAL      C1              9.5678685903      -32.3604050891       41.4573847493  LPSA17    9               6.0000000000
     18232       585  AGAL      H1              9.6013720864      -32.3948908205       40.3420235153  LPSA17    9               6.0000000000
     18233       585  AGAL      C5              9.3750980981      -33.8833007090       43.2125447641  LPSA17    9               6.0000000000
     18234       585  AGAL      H5             10.0622890425      -33.1140112898       43.7424973645  LPSA17    9               6.0000000000
     18235       585  AGAL      O5              9.5787596456      -33.7690536266       41.8451689838  LPSA17    9               6.0000000000
     18236       585  AGAL      C2              8.2454504586      -31.7500618286       41.8393925249  LPSA17    9               6.0000000000
     18237       585  AGAL      H2              7.4469296856      -32.3391637050       41.4115621152  LPSA17    9               6.0000000000
     18238       585  AGAL      O2              8.0096048129      -30.5020058180       41.1608705954  LPSA17    9               6.0000000000
     18239       585  AGAL      C3              7.9863414566      -31.8557194109       43.3264191845  LPSA17    9               6.0000000000
     18240       585  AGAL      H3              8.7595415699      -31.2199876814       43.9424563891  LPSA17    9               6.0000000000
     18241       585  AGAL      O3              6.8178745695      -31.2197687570       43.7491515633  LPSA17    9               6.0000000000
     18242       585  AGAL      HO3             6.7023423265      -30.4609472773       43.1585960960  LPSA17    9               6.0000000000
     18243       585  AGAL      C4              8.0255260087      -33.2951771766       43.6505755014  LPSA17    9               6.0000000000
     18244       585  AGAL      H4              7.9499107878      -33.4993615062       44.7734818408  LPSA17    9               6.0000000000
     18245       585  AGAL      O4              7.0294327527      -34.0638813808       43.0499075873  LPSA17    9               6.0000000000
     18246       585  AGAL      HO4             6.8382079112      -34.7911517007       43.6622427513  LPSA17    9               6.0000000000
     18247       585  AGAL      C6              9.8300006285      -35.2041589124       43.8349081587  LPSA17    9               6.0000000000
     18248       585  AGAL      H61            10.9076235632      -35.4427921881       43.6417203355  LPSA17    9               6.0000000000
     18249       585  AGAL      H62             9.7643692822      -35.2425483079       44.9292747136  LPSA17    9               6.0000000000
     18250       585  AGAL      O6              9.0374559837      -36.2701113834       43.4062227539  LPSA17    9               6.0000000000
     18251       585  AGAL      HO6             9.5277673749      -36.7179920090       42.6923548993  LPSA17    9               6.0000000000
     18252       586  AGAL      C1              7.5789987839      -29.2533317944       41.7517281777  LPSA17    10              7.0000000000
     18253       586  AGAL      H1              6.4923530715      -29.3844700440       41.8429972083  LPSA17    10              7.0000000000
     18254       586  AGAL      C5              9.4645800038      -28.5322850090       43.0613392294  LPSA17    10              7.0000000000
     18255       586  AGAL      H5             10.0016206097      -29.4853920530       42.6233508762  LPSA17    10              7.0000000000
     18256       586  AGAL      O5              8.0466345879      -28.7856976866       43.0470213554  LPSA17    10              7.0000000000
     18257       586  AGAL      C2              7.9057578181      -28.1554848924       40.7227968417  LPSA17    10              7.0000000000
     18258       586  AGAL      H2              7.2639650512      -27.2459693081       41.0433947026  LPSA17    10              7.0000000000
     18259       586  AGAL      O2              7.2229187721      -28.2921693416       39.5532095562  LPSA17    10              7.0000000000
     18260       586  AGAL      HO2             6.7484614466      -27.4984233816       39.3379401176  LPSA17    10              7.0000000000
     18261       586  AGAL      C3              9.3570824877      -27.8333441229       40.6928251787  LPSA17    10              7.0000000000
     18262       586  AGAL      H3              9.8207271509      -28.7916760005       40.4679648945  LPSA17    10              7.0000000000
     18263       586  AGAL      O3              9.7333632216      -26.8526359496       39.7732034444  LPSA17    10              7.0000000000
     18264       586  AGAL      HO3            10.1779451219      -27.3063661208       39.0151094934  LPSA17    10              7.0000000000
     18265       586  AGAL      C4              9.7884163653      -27.4008939550       42.0524071915  LPSA17    10              7.0000000000
     18266       586  AGAL      H4             10.8840422955      -27.2524385358       42.1099272557  LPSA17    10              7.0000000000
     18267       586  AGAL      O4              9.1917065956      -26.2172709591       42.4965010455  LPSA17    10              7.0000000000
     18268       586  AGAL      HO4             8.2804720163      -26.4382487545       42.5675127347  LPSA17    10              7.0000000000
     18269       586  AGAL      C6             10.1032320038      -28.3166230124       44.3959537205  LPSA17    10              7.0000000000
     18270       586  AGAL      H61             9.8516938524      -29.0999295785       45.1044438806  LPSA17    10              7.0000000000
     18271       586  AGAL      H62            11.2845918152      -28.4300806272       44.2564473849  LPSA17    10              7.0000000000
     18272       586  AGAL      O6              9.9010146562      -27.0794309517       45.1112340130  LPSA17    10              7.0000000000
     18273       586  AGAL      HO6             9.4029950700      -27.2829235553       45.9237589285  LPSA17    10              7.0000000000
     18274       587  BGLC      C1             13.2239556538      -31.5900180586       44.5018065681  LPSA17    11              6.0000000000
     18275       587  BGLC      H1             14.1899916928      -31.1150637409       44.5883763758  LPSA17    11              6.0000000000
     18276       587  BGLC      C5             13.9059045373      -33.9192067187       45.1248117688  LPSA17    11              6.0000000000
     18277       587  BGLC      H5             14.9812056629      -33.6220511549       45.3871201921  LPSA17    11              6.0000000000
     18278       587  BGLC      O5             13.2576621749      -33.0124808069       44.0830650888  LPSA17    11              6.0000000000
     18279       587  BGLC      C2             12.4571091993      -31.5187343982       45.7977571702  LPSA17    11              6.0000000000
     18280       587  BGLC      H2             11.3788976092      -31.8110441434       45.7293388291  LPSA17    11              6.0000000000
     18281       587  BGLC      O2             12.3810267214      -30.1307608071       46.0886391483  LPSA17    11              6.0000000000
     18282       587  BGLC      HO2            11.4897382004      -29.9094238734       46.2788110113  LPSA17    11              6.0000000000
     18283       587  BGLC      C3             13.0069113075      -32.3600138579       46.8736276645  LPSA17    11              6.0000000000
     18284       587  BGLC      H3             14.0391765730      -31.9138225665       47.1984917368  LPSA17    11              6.0000000000
     18285       587  BGLC      O3             12.1555225930      -32.2239706455       48.0056213318  LPSA17    11              6.0000000000
     18286       587  BGLC      C4             13.0868094912      -33.7391003044       46.4390836423  LPSA17    11              6.0000000000
     18287       587  BGLC      H4             12.0153226007      -34.0541619225       46.2001611147  LPSA17    11              6.0000000000
     18288       587  BGLC      O4             13.5251482375      -34.6005690915       47.4766894645  LPSA17    11              6.0000000000
     18289       587  BGLC      HO4            12.8145332033      -34.6738728167       48.1247908570  LPSA17    11              6.0000000000
     18290       587  BGLC      C6             14.0745498937      -35.3276159668       44.5291127165  LPSA17    11              6.0000000000
     18291       587  BGLC      H61            14.2158230532      -36.1231104872       45.2481190913  LPSA17    11              6.0000000000
     18292       587  BGLC      H62            13.1751915327      -35.5166435951       43.8913252379  LPSA17    11              6.0000000000
     18293       587  BGLC      O6             15.1540027759      -35.4537832423       43.5637942269  LPSA17    11              6.0000000000
     18294       587  BGLC      HO6            15.7606170578      -36.0000683437       44.0054369298  LPSA17    11              6.0000000000
     18295       588  BGLCNA    C1             12.6506172806      -31.8950459763       49.3238540420  LPSA17    12              7.0000000000
     18296       588  BGLCNA    H1             12.7089943245      -30.7562846361       49.3874222992  LPSA17    12              7.0000000000
     18297       588  BGLCNA    C5             14.4727431829      -32.0224002279       50.8763077070  LPSA17    12              7.0000000000
     18298       588  BGLCNA    H5             14.5366264083      -30.8476545086       50.9814236466  LPSA17    12              7.0000000000
     18299       588  BGLCNA    O5             13.9598305734      -32.4473345153       49.5875345322  LPSA17    12              7.0000000000
     18300       588  BGLCNA    C2             11.6881226292      -32.4428013780       50.3245054808  LPSA17    12              7.0000000000
     18301       588  BGLCNA    H2             11.8500103741      -33.6033775963       50.3375086743  LPSA17    12              7.0000000000
     18302       588  BGLCNA    N              10.3191688686      -31.9734514411       50.0347611965  LPSA17    12              7.0000000000
     18303       588  BGLCNA    HN             10.3333654135      -31.0295645921       49.9972643287  LPSA17    12              7.0000000000
     18304       588  BGLCNA    C               9.3395862100      -32.8133167289       49.8903426450  LPSA17    12              7.0000000000
     18305       588  BGLCNA    O               9.5259122747      -34.0061025453       50.0855928044  LPSA17    12              7.0000000000
     18306       588  BGLCNA    CT              7.9951257058      -32.2356076839       49.5677689528  LPSA17    12              7.0000000000
     18307       588  BGLCNA    HT1             7.2722160959      -32.3738421214       50.3918503408  LPSA17    12              7.0000000000
     18308       588  BGLCNA    HT2             7.4860698357      -32.8660958123       48.7104760971  LPSA17    12              7.0000000000
     18309       588  BGLCNA    HT3             8.1725489792      -31.1840563445       49.2316245990  LPSA17    12              7.0000000000
     18310       588  BGLCNA    C3             12.0841653346      -32.0603967690       51.6995695120  LPSA17    12              7.0000000000
     18311       588  BGLCNA    H3             12.0184391584      -30.8873181212       51.8605307917  LPSA17    12              7.0000000000
     18312       588  BGLCNA    O3             11.1632911779      -32.5182231072       52.7272334264  LPSA17    12              7.0000000000
     18313       588  BGLCNA    C4             13.4647334960      -32.5734398609       51.9591692987  LPSA17    12              7.0000000000
     18314       588  BGLCNA    H4             13.5652404198      -33.7229241586       51.9037868612  LPSA17    12              7.0000000000
     18315       588  BGLCNA    O4             13.9145756763      -32.2376037253       53.2294962294  LPSA17    12              7.0000000000
     18316       588  BGLCNA    HO4            14.1805193023      -31.2734092245       53.2834945119  LPSA17    12              7.0000000000
     18317       588  BGLCNA    C6             15.9353058049      -32.5055126947       50.9528560558  LPSA17    12              7.0000000000
     18318       588  BGLCNA    H61            16.3459079403      -32.3005539453       51.9144325068  LPSA17    12              7.0000000000
     18319       588  BGLCNA    H62            15.8448906787      -33.5790138320       50.8287962869  LPSA17    12              7.0000000000
     18320       588  BGLCNA    O6             16.6717022112      -32.0178726231       49.8597561973  LPSA17    12              7.0000000000
     18321       588  BGLCNA    HO6            17.0117938707      -31.1976419094       50.1903398796  LPSA17    12              7.0000000000
     18322       589  AGAL      C1             10.8853185820      -31.5764472670       53.8132743488  LPSA17    13              8.0000000000
     18323       589  AGAL      H1             11.8467119613      -31.1669576636       54.1959401301  LPSA17    13              8.0000000000
     18324       589  AGAL      C5              8.5566869767      -31.2328225925       53.2950732168  LPSA17    13              8.0000000000
     18325       589  AGAL      H5              8.7171686881      -32.0223470526       52.5641412600  LPSA17    13              8.0000000000
     18326       589  AGAL      O5              9.8312332084      -30.6003117437       53.4918445955  LPSA17    13              8.0000000000
     18327       589  AGAL      C2             10.3338887523      -32.2484377500       55.1010141246  LPSA17    13              8.0000000000
     18328       589  AGAL      H2              9.9908523363      -31.4521775472       55.7917211299  LPSA17    13              8.0000000000
     18329       589  AGAL      O2             11.3101890913      -33.0189389744       55.7701983428  LPSA17    13              8.0000000000
     18330       589  AGAL      C3              8.9533278960      -32.9182604791       54.8979691660  LPSA17    13              8.0000000000
     18331       589  AGAL      H3              9.0226629291      -33.5893321438       54.0477453328  LPSA17    13              8.0000000000
     18332       589  AGAL      O3              8.5875264299      -33.7768358873       55.9888739531  LPSA17    13              8.0000000000
     18333       589  AGAL      HO3             8.1634539332      -34.5728251413       55.6848713412  LPSA17    13              8.0000000000
     18334       589  AGAL      C4              7.9801673255      -31.9434346837       54.5514025965  LPSA17    13              8.0000000000
     18335       589  AGAL      H4              6.9996331122      -32.4416548201       54.1954731349  LPSA17    13              8.0000000000
     18336       589  AGAL      O4              7.7176328585      -31.0077746654       55.5743212917  LPSA17    13              8.0000000000
     18337       589  AGAL      HO4             8.4821011582      -30.6505004508       56.0499681296  LPSA17    13              8.0000000000
     18338       589  AGAL      C6              7.5341469083      -30.4155345752       52.5301443486  LPSA17    13              8.0000000000
     18339       589  AGAL      H61             7.9981602356      -29.9988131285       51.6253596531  LPSA17    13              8.0000000000
     18340       589  AGAL      H62             6.6301890972      -31.0540049320       52.3684678279  LPSA17    13              8.0000000000
     18341       589  AGAL      O6              7.0737960856      -29.3230203726       53.2985910507  LPSA17    13              8.0000000000
     18342       589  AGAL      HO6             6.4128232189      -29.6474573480       53.9299633642  LPSA17    13              8.0000000000
     18343       590  ARHM      C1             11.8067473206      -32.6055866985       57.0117786358  LPSA17    14              9.0000000000
     18344       590  ARHM      H1             11.7089929488      -31.5002081137       56.9981767125  LPSA17    14              9.0000000000
     18345       590  ARHM      C5             13.4059594816      -34.2875063806       57.1930138837  LPSA17    14              9.0000000000
     18346       590  ARHM      H5             12.9988918039      -34.7060199498       56.1976867078  LPSA17    14              9.0000000000
     18347       590  ARHM      O5             13.1791564793      -32.9276968368       57.1718909996  LPSA17    14              9.0000000000
     18348       590  ARHM      C2             10.9743412524      -33.2511556098       58.1413490634  LPSA17    14              9.0000000000
     18349       590  ARHM      H2              9.9516856716      -33.0022825203       57.8875987320  LPSA17    14              9.0000000000
     18350       590  ARHM      O2             11.3011142723      -32.8374717794       59.4330148990  LPSA17    14              9.0000000000
     18351       590  ARHM      C3             11.1777508388      -34.7383138130       58.1095432995  LPSA17    14              9.0000000000
     18352       590  ARHM      H3             11.0280995206      -35.0830090090       57.0440121713  LPSA17    14              9.0000000000
     18353       590  ARHM      O3             10.2579657483      -35.4731747908       58.8567888868  LPSA17    14              9.0000000000
     18354       590  ARHM      HO3            10.5258943500      -35.3285077079       59.8104957846  LPSA17    14              9.0000000000
     18355       590  ARHM      C4             12.6242909777      -34.9783012476       58.3490442956  LPSA17    14              9.0000000000
     18356       590  ARHM      H4             13.0516549163      -34.5595500197       59.2902338481  LPSA17    14              9.0000000000
     18357       590  ARHM      O4             12.8584742426      -36.4103435582       58.4446785014  LPSA17    14              9.0000000000
     18358       590  ARHM      HO4            13.1320527958      -36.7454002217       59.2969967688  LPSA17    14              9.0000000000
     18359       590  ARHM      C6             14.9178298632      -34.5645346081       57.2492155848  LPSA17    14              9.0000000000
     18360       590  ARHM      H61            15.5485240077      -33.9250995592       56.5358243550  LPSA17    14              9.0000000000
     18361       590  ARHM      H62            15.1982722852      -34.4597217742       58.3170764683  LPSA17    14              9.0000000000
     18362       590  ARHM      H63            15.2994131611      -35.5412113821       56.9421594120  LPSA17    14              9.0000000000
     18363       591  ARHM      C1             11.3718818280      -31.5313606245       59.7267990175  LPSA17    15             10.0000000000
     18364       591  ARHM      H1             10.7326577619      -30.9288764215       59.0458905905  LPSA17    15             10.0000000000
     18365       591  ARHM      C5             13.6783612012      -31.4994575648       60.6468530148  LPSA17    15             10.0000000000
     18366       591  ARHM      H5             13.9252790390      -32.5892803910       60.4457705401  LPSA17    15             10.0000000000
     18367       591  ARHM      O5             12.7170378339      -30.9939484029       59.6688136410  LPSA17    15             10.0000000000
     18368       591  ARHM      C2             10.8443160484      -31.2973902815       61.1407671534  LPSA17    15             10.0000000000
     18369       591  ARHM      H2              9.8204244011      -31.8287702558       61.2133420761  LPSA17    15             10.0000000000
     18370       591  ARHM      O2             10.7331488434      -29.8547703410       61.3234079317  LPSA17    15             10.0000000000
     18371       591  ARHM      C3             11.7853316478      -31.9288201371       62.1677656617  LPSA17    15             10.0000000000
     18372       591  ARHM      H3             11.9088181741      -33.0052060871       61.8628392879  LPSA17    15             10.0000000000
     18373       591  ARHM      O3             11.0317477077      -31.9631523333       63.4092175029  LPSA17    15             10.0000000000
     18374       591  ARHM      C4             13.0860325248      -31.2940048036       62.0487117432  LPSA17    15             10.0000000000
     18375       591  ARHM      H4             12.9388299955      -30.1447712854       62.1496903561  LPSA17    15             10.0000000000
     18376       591  ARHM      O4             14.1110530652      -31.6910394071       62.9635513464  LPSA17    15             10.0000000000
     18377       591  ARHM      HO4            14.7826029951      -31.0256979536       62.9565205260  LPSA17    15             10.0000000000
     18378       591  ARHM      C6             15.0049183339      -30.8035256889       60.4460959132  LPSA17    15             10.0000000000
     18379       591  ARHM      H61            15.8360138569      -31.1865810710       61.0956562646  LPSA17    15             10.0000000000
     18380       591  ARHM      H62            15.2281884731      -30.7430881046       59.3910198679  LPSA17    15             10.0000000000
     18381       591  ARHM      H63            15.0011770494      -29.7552188957       60.8578185328  LPSA17    15             10.0000000000
     18382       592  BMANNA    C1             10.1623306835      -29.3366087235       62.5145562334  LPSA17    16             11.0000000000
     18383       592  BMANNA    H1             10.9457935615      -29.5078726056       63.3432051365  LPSA17    16             11.0000000000
     18384       592  BMANNA    C5              8.5089282793      -29.4051291843       64.1851548173  LPSA17    16             11.0000000000
     18385       592  BMANNA    H5              9.2580007282      -29.5161858950       64.9800677769  LPSA17    16             11.0000000000
     18386       592  BMANNA    O5              8.9466966590      -29.9573290560       62.9158851071  LPSA17    16             11.0000000000
     18387       592  BMANNA    C2              9.9558135697      -27.8222198814       62.2781089586  LPSA17    16             11.0000000000
     18388       592  BMANNA    H2             10.9724904380      -27.4452847842       61.9912908466  LPSA17    16             11.0000000000
     18389       592  BMANNA    N               9.0254519223      -27.4019243144       61.2264456342  LPSA17    16             11.0000000000
     18390       592  BMANNA    HN              8.1190940953      -27.3129733297       61.5688724990  LPSA17    16             11.0000000000
     18391       592  BMANNA    C               9.3451489625      -27.2116504095       59.9704010620  LPSA17    16             11.0000000000
     18392       592  BMANNA    O              10.5339984218      -27.3025360925       59.5582221915  LPSA17    16             11.0000000000
     18393       592  BMANNA    CT              8.2067905643      -26.8704567874       59.1331689300  LPSA17    16             11.0000000000
     18394       592  BMANNA    HT1             8.1335875495      -25.8364755912       58.8344492748  LPSA17    16             11.0000000000
     18395       592  BMANNA    HT2             7.2201870442      -27.1461093566       59.5043001239  LPSA17    16             11.0000000000
     18396       592  BMANNA    HT3             8.2738414572      -27.3899550733       58.1231520073  LPSA17    16             11.0000000000
     18397       592  BMANNA    C3              9.5404895335      -27.2538398780       63.6119771117  LPSA17    16             11.0000000000
     18398       592  BMANNA    H3             10.3256137258      -27.4658114913       64.3839812837  LPSA17    16             11.0000000000
     18399       592  BMANNA    O3              9.4138145019      -25.8610210780       63.6122488842  LPSA17    16             11.0000000000
     18400       592  BMANNA    HO3             9.9460894499      -25.4746085723       64.2950500102  LPSA17    16             11.0000000000
     18401       592  BMANNA    C4              8.2348396681      -27.8909028775       64.1045846713  LPSA17    16             11.0000000000
     18402       592  BMANNA    H4              7.3925794849      -27.7002815221       63.4124605202  LPSA17    16             11.0000000000
     18403       592  BMANNA    O4              7.7335282209      -27.4560090819       65.3816866120  LPSA17    16             11.0000000000
     18404       592  BMANNA    HO4             6.7898585934      -27.6004586658       65.4353184152  LPSA17    16             11.0000000000
     18405       592  BMANNA    C6              7.2754469194      -30.1270118107       64.7427751243  LPSA17    16             11.0000000000
     18406       592  BMANNA    H61             7.3383730593      -30.0644128573       65.8875394407  LPSA17    16             11.0000000000
     18407       592  BMANNA    H62             6.3520795587      -29.6292766056       64.4389269682  LPSA17    16             11.0000000000
     18408       592  BMANNA    O6              7.1816653695      -31.5152749459       64.3660927576  LPSA17    16             11.0000000000
     18409       592  BMANNA    HO6             6.3147140673      -31.5349887436       63.9036969990  LPSA17    16             11.0000000000
     18410       593  BGLCNA    C1             11.2169335230      -33.0579836165       64.1715778089  LPSA17    17             11.0000000000
     18411       593  BGLCNA    H1             12.2570530587      -33.5100106448       63.9082176002  LPSA17    17             11.0000000000
     18412       593  BGLCNA    C5             10.4341486771      -35.3407007342       64.5563394407  LPSA17    17             11.0000000000
     18413       593  BGLCNA    H5             11.4428590451      -35.8295898315       64.2825289487  LPSA17    17             11.0000000000
     18414       593  BGLCNA    O5             10.3162382351      -34.1356794404       63.7849982893  LPSA17    17             11.0000000000
     18415       593  BGLCNA    C2             11.0308087541      -32.6604444877       65.5899343931  LPSA17    17             11.0000000000
     18416       593  BGLCNA    H2              9.9928264766      -32.2459352711       65.8249043900  LPSA17    17             11.0000000000
     18417       593  BGLCNA    N              11.8438842497      -31.5506846034       65.8849826081  LPSA17    17             11.0000000000
     18418       593  BGLCNA    HN             12.7430603576      -31.4705052246       65.4150135415  LPSA17    17             11.0000000000
     18419       593  BGLCNA    C              11.7021747706      -30.6125387361       66.8043620798  LPSA17    17             11.0000000000
     18420       593  BGLCNA    O              10.6805366818      -30.5102108839       67.4729873017  LPSA17    17             11.0000000000
     18421       593  BGLCNA    CT             12.8461962124      -29.6865636215       66.9728872304  LPSA17    17             11.0000000000
     18422       593  BGLCNA    HT1            12.7958453877      -28.6656646481       66.5529393721  LPSA17    17             11.0000000000
     18423       593  BGLCNA    HT2            13.7649611397      -30.2429701970       66.7043805047  LPSA17    17             11.0000000000
     18424       593  BGLCNA    HT3            13.0373962784      -29.4905451634       68.1408097225  LPSA17    17             11.0000000000
     18425       593  BGLCNA    C3             11.2744903729      -33.9090582725       66.4076579941  LPSA17    17             11.0000000000
     18426       593  BGLCNA    H3             12.3115470325      -34.2177539629       66.0441361901  LPSA17    17             11.0000000000
     18427       593  BGLCNA    O3             11.3694668487      -33.5010970640       67.8205355914  LPSA17    17             11.0000000000
     18428       593  BGLCNA    C4             10.2172412033      -34.9442190677       66.0496966154  LPSA17    17             11.0000000000
     18429       593  BGLCNA    H4              9.1605412308      -34.5050075734       66.1123142204  LPSA17    17             11.0000000000
     18430       593  BGLCNA    O4             10.2361259974      -36.0585258966       66.9186044206  LPSA17    17             11.0000000000
     18431       593  BGLCNA    HO4             9.6194259877      -36.7529722700       66.7204061560  LPSA17    17             11.0000000000
     18432       593  BGLCNA    C6              9.3470073598      -36.3424021549       64.1200051697  LPSA17    17             11.0000000000
     18433       593  BGLCNA    H61             9.7419014536      -37.3396401594       64.1272946536  LPSA17    17             11.0000000000
     18434       593  BGLCNA    H62             8.4567708632      -36.3152894120       64.8212395067  LPSA17    17             11.0000000000
     18435       593  BGLCNA    O6              8.8672508486      -36.0875589180       62.7926115083  LPSA17    17             11.0000000000
     18436       593  BGLCNA    HO6             9.5969454442      -36.1407203517       62.1856770532  LPSA17    17             11.0000000000
     18437       594  AGAL      C1             12.3257455380      -34.2429269066       68.6198653987  LPSA17    18             12.0000000000
     18438       594  AGAL      H1             11.8801906413      -35.2643812924       68.8082567594  LPSA17    18             12.0000000000
     18439       594  AGAL      C5             14.3017413825      -33.1066362458       67.8636918791  LPSA17    18             12.0000000000
     18440       594  AGAL      H5             13.6236377308      -32.3802773580       67.4068928888  LPSA17    18             12.0000000000
     18441       594  AGAL      O5             13.5769878108      -34.3837095088       67.9834320655  LPSA17    18             12.0000000000
     18442       594  AGAL      C2             12.6127722755      -33.5379590762       70.0000206359  LPSA17    18             12.0000000000
     18443       594  AGAL      H2             13.3693769342      -34.2566538142       70.3908489884  LPSA17    18             12.0000000000
     18444       594  AGAL      O2             11.5067076363      -33.6374859676       70.8342757016  LPSA17    18             12.0000000000
     18445       594  AGAL      C3             13.3103331438      -32.2290069761       69.8682924558  LPSA17    18             12.0000000000
     18446       594  AGAL      H3             12.7256021800      -31.5818782325       69.0958348126  LPSA17    18             12.0000000000
     18447       594  AGAL      O3             13.3800422915      -31.5324569825       71.0758896640  LPSA17    18             12.0000000000
     18448       594  AGAL      HO3            13.1338152877      -30.6120658747       70.9682873819  LPSA17    18             12.0000000000
     18449       594  AGAL      C4             14.5890925098      -32.4373821774       69.1634745928  LPSA17    18             12.0000000000
     18450       594  AGAL      H4             15.1583608835      -31.5140136231       68.9039691178  LPSA17    18             12.0000000000
     18451       594  AGAL      O4             15.4947684115      -33.2317938303       69.9734134928  LPSA17    18             12.0000000000
     18452       594  AGAL      HO4            15.8650173744      -32.6490689407       70.7236544006  LPSA17    18             12.0000000000
     18453       594  AGAL      C6             15.2989364723      -33.2668748957       66.8042742825  LPSA17    18             12.0000000000
     18454       594  AGAL      H61            14.7485452137      -33.4852087869       65.8877991861  LPSA17    18             12.0000000000
     18455       594  AGAL      H62            15.7660035263      -32.2564132172       66.6499463921  LPSA17    18             12.0000000000
     18456       594  AGAL      O6             16.1982585078      -34.2377250956       66.9803033045  LPSA17    18             12.0000000000
     18457       594  AGAL      HO6            16.0360995510      -34.8723849233       67.6707071977  LPSA17    18             12.0000000000
     18458       595  ARHM      C1             11.9302472059      -33.9734917826       72.1803514454  LPSA17    19             13.0000000000
     18459       595  ARHM      H1             12.9662482614      -33.7374304306       72.3185909119  LPSA17    19             13.0000000000
     18460       595  ARHM      C5             10.6958090605      -35.9969508733       72.2512180912  LPSA17    19             13.0000000000
     18461       595  ARHM      H5             10.3539988702      -35.7489247929       71.2133247196  LPSA17    19             13.0000000000
     18462       595  ARHM      O5             11.9775222319      -35.3878966774       72.4162684983  LPSA17    19             13.0000000000
     18463       595  ARHM      C2             10.9978186090      -33.2891796674       73.1100514097  LPSA17    19             13.0000000000
     18464       595  ARHM      H2             10.8523421472      -32.2531546337       72.9420985559  LPSA17    19             13.0000000000
     18465       595  ARHM      O2             11.4408993839      -33.4486579222       74.4131644751  LPSA17    19             13.0000000000
     18466       595  ARHM      C3              9.6056231457      -33.9823731887       72.9859276785  LPSA17    19             13.0000000000
     18467       595  ARHM      H3              9.2984571670      -33.8922119866       71.9471750908  LPSA17    19             13.0000000000
     18468       595  ARHM      O3              8.6581340436      -33.3454294081       73.7644258584  LPSA17    19             13.0000000000
     18469       595  ARHM      HO3             9.0364863083      -33.2577648415       74.6464134549  LPSA17    19             13.0000000000
     18470       595  ARHM      C4              9.6568093407      -35.4289360480       73.2443334127  LPSA17    19             13.0000000000
     18471       595  ARHM      H4             10.0309626414      -35.5364480123       74.2703943704  LPSA17    19             13.0000000000
     18472       595  ARHM      O4              8.4346866370      -36.0929796262       73.1708570575  LPSA17    19             13.0000000000
     18473       595  ARHM      HO4             8.1470853949      -36.0224918526       72.2126258713  LPSA17    19             13.0000000000
     18474       595  ARHM      C6             10.7943969183      -37.5322162506       72.3031700958  LPSA17    19             13.0000000000
     18475       595  ARHM      H61            11.5116798082      -37.7139347225       71.5186681997  LPSA17    19             13.0000000000
     18476       595  ARHM      H62            11.1729185783      -37.9668140588       73.2001761489  LPSA17    19             13.0000000000
     18477       595  ARHM      H63             9.8484142381      -38.0369052592       72.0875448643  LPSA17    19             13.0000000000
     18478       596  ARHM      C1             12.5182211346      -32.6185529034       74.6981797177  LPSA17    20             14.0000000000
     18479       596  ARHM      H1             12.6927493496      -31.8318048069       73.8936196974  LPSA17    20             14.0000000000
     18480       596  ARHM      C5             13.8486688760      -34.1314882862       75.9960310464  LPSA17    20             14.0000000000
     18481       596  ARHM      H5             13.0079052534      -34.8469220235       75.8071112250  LPSA17    20             14.0000000000
     18482       596  ARHM      O5             13.7911616010      -33.2419766168       74.8741575474  LPSA17    20             14.0000000000
     18483       596  ARHM      C2             12.2102355508      -31.7910689890       75.9438944127  LPSA17    20             14.0000000000
     18484       596  ARHM      H2             11.1350960152      -31.3594995889       75.7904987900  LPSA17    20             14.0000000000
     18485       596  ARHM      O2             13.1769913877      -30.7505082063       76.2145535291  LPSA17    20             14.0000000000
     18486       596  ARHM      C3             12.2686874220      -32.7252748211       77.0746584307  LPSA17    20             14.0000000000
     18487       596  ARHM      H3             11.4692086534      -33.5474416998       76.9570890266  LPSA17    20             14.0000000000
     18488       596  ARHM      O3             11.8786037635      -31.9612059439       78.2431898216  LPSA17    20             14.0000000000
     18489       596  ARHM      C4             13.6011759196      -33.3817518521       77.2147849866  LPSA17    20             14.0000000000
     18490       596  ARHM      H4             14.4076459368      -32.6814986954       77.2882629629  LPSA17    20             14.0000000000
     18491       596  ARHM      O4             13.6107055492      -34.1673209930       78.4294019453  LPSA17    20             14.0000000000
     18492       596  ARHM      HO4            14.2014619106      -34.8012357667       78.0714846557  LPSA17    20             14.0000000000
     18493       596  ARHM      C6             15.1166830428      -34.8782113390       75.9818768401  LPSA17    20             14.0000000000
     18494       596  ARHM      H61            16.0949639831      -34.3142500302       76.0487105533  LPSA17    20             14.0000000000
     18495       596  ARHM      H62            15.1024187625      -35.6542945828       76.7492574554  LPSA17    20             14.0000000000
     18496       596  ARHM      H63            15.3123390409      -35.4544261781       75.0059134709  LPSA17    20             14.0000000000
     18497       597  BMANNA    C1             12.7942678105      -29.6653390169       75.4501725836  LPSA17    21             15.0000000000
     18498       597  BMANNA    H1             12.0011077588      -29.9581705146       74.6495731600  LPSA17    21             15.0000000000
     18499       597  BMANNA    C5             13.3706263927      -28.2107814966       73.6578092950  LPSA17    21             15.0000000000
     18500       597  BMANNA    H5             12.4048289363      -28.4717326308       73.0422409194  LPSA17    21             15.0000000000
     18501       597  BMANNA    O5             13.8799851933      -29.2640910898       74.5460975074  LPSA17    21             15.0000000000
     18502       597  BMANNA    C2             12.3744741888      -28.5302601630       76.3268603500  LPSA17    21             15.0000000000
     18503       597  BMANNA    H2             11.5383414025      -28.9788227061       76.8663433126  LPSA17    21             15.0000000000
     18504       597  BMANNA    N              13.4274765021      -28.1391093950       77.2602735953  LPSA17    21             15.0000000000
     18505       597  BMANNA    HN             14.2930016511      -27.9476235521       76.8630196157  LPSA17    21             15.0000000000
     18506       597  BMANNA    C              13.2275577227      -27.7549499428       78.6142451918  LPSA17    21             15.0000000000
     18507       597  BMANNA    O              12.0886642200      -27.5480993309       79.0340579138  LPSA17    21             15.0000000000
     18508       597  BMANNA    CT             14.4675190321      -27.5490716477       79.5125915666  LPSA17    21             15.0000000000
     18509       597  BMANNA    HT1            14.8851491227      -26.5366625070       79.3040814335  LPSA17    21             15.0000000000
     18510       597  BMANNA    HT2            15.1379489872      -28.4037546850       79.3224353366  LPSA17    21             15.0000000000
     18511       597  BMANNA    HT3            14.1669192108      -27.5732638649       80.6000991146  LPSA17    21             15.0000000000
     18512       597  BMANNA    C3             11.8787104047      -27.4406069708       75.4428482744  LPSA17    21             15.0000000000
     18513       597  BMANNA    H3             11.0114178068      -27.9183992301       75.0091666053  LPSA17    21             15.0000000000
     18514       597  BMANNA    O3             11.4230566445      -26.3143829158       76.1769203835  LPSA17    21             15.0000000000
     18515       597  BMANNA    HO3            12.1259736165      -26.0405094690       76.7354970047  LPSA17    21             15.0000000000
     18516       597  BMANNA    C4             12.9606052357      -27.0086667499       74.4866217523  LPSA17    21             15.0000000000
     18517       597  BMANNA    H4             13.9094268244      -26.4906986409       75.0002820064  LPSA17    21             15.0000000000
     18518       597  BMANNA    O4             12.5307121712      -26.0023192186       73.6152290754  LPSA17    21             15.0000000000
     18519       597  BMANNA    HO4            13.0232308464      -25.1661164213       73.7703874424  LPSA17    21             15.0000000000
     18520       597  BMANNA    C6             14.3236945114      -27.8658525775       72.6348027846  LPSA17    21             15.0000000000
     18521       597  BMANNA    H61            13.9088563225      -27.2003650663       71.8494922130  LPSA17    21             15.0000000000
     18522       597  BMANNA    H62            15.0820880055      -27.1511250514       73.0558617198  LPSA17    21             15.0000000000
     18523       597  BMANNA    O6             15.0652428327      -28.9021277396       72.0654385618  LPSA17    21             15.0000000000
     18524       597  BMANNA    HO6            15.4781333304      -29.3880374672       72.7784055652  LPSA17    21             15.0000000000
     18525       598  BGLCNA    C1             11.0962754487      -32.5434687628       79.2248726046  LPSA17    22             15.0000000000
     18526       598  BGLCNA    H1             11.1755078281      -33.6689101279       79.2753119810  LPSA17    22             15.0000000000
     18527       598  BGLCNA    C5              8.8959095034      -32.9422882715       80.1145289529  LPSA17    22             15.0000000000
     18528       598  BGLCNA    H5              9.1659226942      -34.0808031112       80.0727605020  LPSA17    22             15.0000000000
     18529       598  BGLCNA    O5              9.7259864744      -32.3082053739       79.0803056561  LPSA17    22             15.0000000000
     18530       598  BGLCNA    C2             11.5386910088      -32.0034433512       80.5602818744  LPSA17    22             15.0000000000
     18531       598  BGLCNA    H2             11.3065479865      -30.8841198964       80.4633107900  LPSA17    22             15.0000000000
     18532       598  BGLCNA    N              12.9594486992      -32.2409608919       80.7025670875  LPSA17    22             15.0000000000
     18533       598  BGLCNA    HN             13.2723288771      -33.1313587954       80.4501896382  LPSA17    22             15.0000000000
     18534       598  BGLCNA    C              13.7954489070      -31.4391922060       81.3295640408  LPSA17    22             15.0000000000
     18535       598  BGLCNA    O              13.4049741011      -30.3755907753       81.8448112003  LPSA17    22             15.0000000000
     18536       598  BGLCNA    CT             15.2148940595      -31.8694732406       81.4359073222  LPSA17    22             15.0000000000
     18537       598  BGLCNA    HT1            15.6443623859      -31.4461077915       80.5353412834  LPSA17    22             15.0000000000
     18538       598  BGLCNA    HT2            15.2398653261      -32.9716514413       81.2752873926  LPSA17    22             15.0000000000
     18539       598  BGLCNA    HT3            15.7004272616      -31.6699850017       82.3679651303  LPSA17    22             15.0000000000
     18540       598  BGLCNA    C3             10.7239793218      -32.5992326803       81.6855161512  LPSA17    22             15.0000000000
     18541       598  BGLCNA    H3             10.8386027591      -33.7114597487       81.6419517197  LPSA17    22             15.0000000000
     18542       598  BGLCNA    O3             11.3148701400      -32.1209693816       82.8729300216  LPSA17    22             15.0000000000
     18543       598  BGLCNA    C4              9.2316265914      -32.3282784646       81.4704242134  LPSA17    22             15.0000000000
     18544       598  BGLCNA    H4              9.1376744078      -31.2757387955       81.4144045074  LPSA17    22             15.0000000000
     18545       598  BGLCNA    O4              8.4249586299      -32.8280138856       82.5140850489  LPSA17    22             15.0000000000
     18546       598  BGLCNA    HO4             7.7298476637      -32.1772553222       82.7130071916  LPSA17    22             15.0000000000
     18547       598  BGLCNA    C6              7.4441909200      -32.6961659165       79.7284495560  LPSA17    22             15.0000000000
     18548       598  BGLCNA    H61             6.8827461549      -32.8750562109       80.6924177192  LPSA17    22             15.0000000000
     18549       598  BGLCNA    H62             7.2693588972      -31.6315045226       79.4648784538  LPSA17    22             15.0000000000
     18550       598  BGLCNA    O6              6.9266265530      -33.5983740641       78.8100863794  LPSA17    22             15.0000000000
     18551       598  BGLCNA    HO6             7.4609342401      -33.5706660241       78.0328486455  LPSA17    22             15.0000000000
     18552       599  AGAL      C1             11.1003631886      -32.7889709393       84.0628261254  LPSA17    23             16.0000000000
     18553       599  AGAL      H1             10.0897267218      -32.5790164693       84.5106287163  LPSA17    23             16.0000000000
     18554       599  AGAL      C5             12.5924252211      -34.6197202394       83.7583018441  LPSA17    23             16.0000000000
     18555       599  AGAL      H5             12.9915670777      -34.0536635090       82.8366412438  LPSA17    23             16.0000000000
     18556       599  AGAL      O5             11.2656074624      -34.2091388041       83.9976212264  LPSA17    23             16.0000000000
     18557       599  AGAL      C2             12.0290711660      -32.2658808934       85.1427633740  LPSA17    23             16.0000000000
     18558       599  AGAL      H2             11.7738175327      -32.8344063468       86.0076373284  LPSA17    23             16.0000000000
     18559       599  AGAL      O2             11.7969071500      -30.9244180220       85.5000844886  LPSA17    23             16.0000000000
     18560       599  AGAL      C3             13.4548349332      -32.6351820006       84.9194901020  LPSA17    23             16.0000000000
     18561       599  AGAL      H3             13.6884019811      -32.2945129557       83.8641570193  LPSA17    23             16.0000000000
     18562       599  AGAL      O3             14.3855305173      -31.9934674274       85.7108298168  LPSA17    23             16.0000000000
     18563       599  AGAL      HO3            14.0165585185      -32.0585061162       86.6206525111  LPSA17    23             16.0000000000
     18564       599  AGAL      C4             13.5351181677      -34.1321948561       84.8901212015  LPSA17    23             16.0000000000
     18565       599  AGAL      H4             14.5574434302      -34.5033414297       84.6506069022  LPSA17    23             16.0000000000
     18566       599  AGAL      O4             13.2649650252      -34.7998644898       86.1132943683  LPSA17    23             16.0000000000
     18567       599  AGAL      HO4            12.8573569913      -35.5540263709       85.8278371007  LPSA17    23             16.0000000000
     18568       599  AGAL      C6             12.6445892743      -36.0612284437       83.3278962909  LPSA17    23             16.0000000000
     18569       599  AGAL      H61            11.8916392175      -36.2460733087       82.6074235255  LPSA17    23             16.0000000000
     18570       599  AGAL      H62            13.5498821814      -36.2995728152       82.7620574208  LPSA17    23             16.0000000000
     18571       599  AGAL      O6             12.3829848002      -36.9008920999       84.3845202183  LPSA17    23             16.0000000000
     18572       599  AGAL      HO6            12.3585030546      -37.8225603658       84.1740981585  LPSA17    23             16.0000000000
     18573       600  ARHM      C1             10.7051196611      -30.4756433648       86.2818185944  LPSA17    24             17.0000000000
     18574       600  ARHM      H1             10.0136882237      -31.2915160463       86.3680542693  LPSA17    24             17.0000000000
     18575       600  ARHM      C5             10.6987002914      -28.1682689918       85.6157638072  LPSA17    24             17.0000000000
     18576       600  ARHM      H5             11.5525613455      -28.3780690276       85.0070975499  LPSA17    24             17.0000000000
     18577       600  ARHM      O5              9.8927859235      -29.3159881347       85.8657410059  LPSA17    24             17.0000000000
     18578       600  ARHM      C2             11.3518783901      -30.1715554647       87.5921581840  LPSA17    24             17.0000000000
     18579       600  ARHM      H2             12.0313398377      -30.9450652439       87.8984046741  LPSA17    24             17.0000000000
     18580       600  ARHM      O2             10.3925102819      -29.8205625254       88.6075763533  LPSA17    24             17.0000000000
     18581       600  ARHM      C3             12.2028917835      -28.9050934197       87.4133527752  LPSA17    24             17.0000000000
     18582       600  ARHM      H3             12.9553565940      -29.1712738359       86.6640279609  LPSA17    24             17.0000000000
     18583       600  ARHM      O3             13.0242546842      -28.5663194070       88.5620392964  LPSA17    24             17.0000000000
     18584       600  ARHM      HO3            12.4528262346      -28.0229195963       89.1463757531  LPSA17    24             17.0000000000
     18585       600  ARHM      C4             11.3632868209      -27.7259693636       86.9402325015  LPSA17    24             17.0000000000
     18586       600  ARHM      H4             10.5016927952      -27.5825544979       87.7071552895  LPSA17    24             17.0000000000
     18587       600  ARHM      O4             12.0638866017      -26.5052630849       86.8379508285  LPSA17    24             17.0000000000
     18588       600  ARHM      HO4            11.5448021854      -25.7391345115       87.0219124236  LPSA17    24             17.0000000000
     18589       600  ARHM      C6              9.9013045984      -26.9907579511       84.9175891319  LPSA17    24             17.0000000000
     18590       600  ARHM      H61            10.6115060526      -26.3599544339       84.3853494017  LPSA17    24             17.0000000000
     18591       600  ARHM      H62             9.2344167668      -27.4598442902       84.2649634992  LPSA17    24             17.0000000000
     18592       600  ARHM      H63             9.2494802938      -26.4492081126       85.6811466487  LPSA17    24             17.0000000000
     18593       601  ARHM      C1              9.7905261722      -30.9865055581       89.1588742089  LPSA17    25             18.0000000000
     18594       601  ARHM      H1              9.8774894739      -31.7918912535       88.4722246341  LPSA17    25             18.0000000000
     18595       601  ARHM      C5              7.9506952152      -29.8366088239       90.1670531641  LPSA17    25             18.0000000000
     18596       601  ARHM      H5              8.2883798946      -28.8746294595       89.8870230824  LPSA17    25             18.0000000000
     18597       601  ARHM      O5              8.3566829239      -30.8594721726       89.2315309535  LPSA17    25             18.0000000000
     18598       601  ARHM      C2             10.4110988006      -31.2772074944       90.4685713243  LPSA17    25             18.0000000000
     18599       601  ARHM      H2             11.5452658073      -31.2390255479       90.3413143991  LPSA17    25             18.0000000000
     18600       601  ARHM      O2              9.9891264204      -32.5968327382       90.9328696740  LPSA17    25             18.0000000000
     18601       601  ARHM      C3              9.9070302780      -30.1753691392       91.4562257518  LPSA17    25             18.0000000000
     18602       601  ARHM      H3             10.2902187790      -29.1983101281       91.0689171631  LPSA17    25             18.0000000000
     18603       601  ARHM      O3             10.5333181929      -30.4499667610       92.6920647463  LPSA17    25             18.0000000000
     18604       601  ARHM      C4              8.4839570824      -30.1047849282       91.5960769721  LPSA17    25             18.0000000000
     18605       601  ARHM      H4              8.0209456626      -31.1367227322       91.8876801091  LPSA17    25             18.0000000000
     18606       601  ARHM      O4              8.2120877908      -29.1128203787       92.5862492282  LPSA17    25             18.0000000000
     18607       601  ARHM      HO4             7.4447505885      -29.4463986327       93.0149361445  LPSA17    25             18.0000000000
     18608       601  ARHM      C6              6.4324256904      -29.6701431850       90.2083352735  LPSA17    25             18.0000000000
     18609       601  ARHM      H61             5.9948565987      -29.5725884592       89.1912344565  LPSA17    25             18.0000000000
     18610       601  ARHM      H62             5.8991400013      -30.5454076809       90.6686969550  LPSA17    25             18.0000000000
     18611       601  ARHM      H63             6.0883830963      -28.7542431951       90.8233913566  LPSA17    25             18.0000000000
     18612       602  BMANNA    C1             10.6655147638      -33.6651627330       90.3138108879  LPSA17    26             19.0000000000
     18613       602  BMANNA    H1             11.6350559971      -33.3325756832       89.8388342826  LPSA17    26             19.0000000000
     18614       602  BMANNA    C5             10.7394964097      -35.3562725461       88.6312665858  LPSA17    26             19.0000000000
     18615       602  BMANNA    H5             11.6034814518      -34.8703770907       88.1771240033  LPSA17    26             19.0000000000
     18616       602  BMANNA    O5              9.9485780539      -34.3243324239       89.2346891933  LPSA17    26             19.0000000000
     18617       602  BMANNA    C2             10.9745938290      -34.6330148345       91.3475147821  LPSA17    26             19.0000000000
     18618       602  BMANNA    H2             11.5912244539      -34.0505833568       92.1081287357  LPSA17    26             19.0000000000
     18619       602  BMANNA    N               9.7026301888      -35.1229657349       91.9238920796  LPSA17    26             19.0000000000
     18620       602  BMANNA    HN              9.0759635849      -35.5028184480       91.3050515894  LPSA17    26             19.0000000000
     18621       602  BMANNA    C               9.4210527355      -35.1633572616       93.1798471680  LPSA17    26             19.0000000000
     18622       602  BMANNA    O              10.1631260150      -34.5951072583       94.0003587425  LPSA17    26             19.0000000000
     18623       602  BMANNA    CT              8.1926612602      -35.9250612282       93.6758917343  LPSA17    26             19.0000000000
     18624       602  BMANNA    HT1             7.5322261557      -36.0023565151       92.8666282051  LPSA17    26             19.0000000000
     18625       602  BMANNA    HT2             7.6787164793      -35.6863405370       94.6620984389  LPSA17    26             19.0000000000
     18626       602  BMANNA    HT3             8.5495474132      -36.9476092906       93.8484898219  LPSA17    26             19.0000000000
     18627       602  BMANNA    C3             11.8517739827      -35.7142883869       90.7100883268  LPSA17    26             19.0000000000
     18628       602  BMANNA    H3             12.7844342912      -35.2210662325       90.3384445889  LPSA17    26             19.0000000000
     18629       602  BMANNA    O3             12.2685599076      -36.6244417902       91.7636866611  LPSA17    26             19.0000000000
     18630       602  BMANNA    HO3            12.9214722505      -36.1130053918       92.2265744207  LPSA17    26             19.0000000000
     18631       602  BMANNA    C4             11.1247132696      -36.3319831369       89.6481622736  LPSA17    26             19.0000000000
     18632       602  BMANNA    H4             10.1538491853      -36.8482184822       89.9013799111  LPSA17    26             19.0000000000
     18633       602  BMANNA    O4             11.8816103684      -37.3699441393       89.0416847738  LPSA17    26             19.0000000000
     18634       602  BMANNA    HO4            11.7684441111      -38.1660532397       89.5591157304  LPSA17    26             19.0000000000
     18635       602  BMANNA    C6              9.9115049584      -35.8068047897       87.3900617492  LPSA17    26             19.0000000000
     18636       602  BMANNA    H61             9.3819125768      -34.9597702887       86.9191763972  LPSA17    26             19.0000000000
     18637       602  BMANNA    H62            10.5196414851      -36.2587167940       86.6504270337  LPSA17    26             19.0000000000
     18638       602  BMANNA    O6              8.9287593799      -36.7776687213       87.7329108337  LPSA17    26             19.0000000000
     18639       602  BMANNA    HO6             9.3350534078      -37.4978017516       88.1688153196  LPSA17    26             19.0000000000
     18640       603  BGLCNA    C1             11.1368641970      -29.5179471431       93.4616184899  LPSA17    27             19.0000000000
     18641       603  BGLCNA    H1             10.5828652513      -28.5846908047       93.4392217979  LPSA17    27             19.0000000000
     18642       603  BGLCNA    C5             13.0220204489      -28.1636883770       93.9656603721  LPSA17    27             19.0000000000
     18643       603  BGLCNA    H5             12.3168266906      -27.2934002377       93.9564344452  LPSA17    27             19.0000000000
     18644       603  BGLCNA    O5             12.4654876505      -29.1271443739       93.0607755266  LPSA17    27             19.0000000000
     18645       603  BGLCNA    C2             11.1382274946      -30.0911566906       94.8806799918  LPSA17    27             19.0000000000
     18646       603  BGLCNA    H2             11.8123004567      -30.9651966829       94.8757458582  LPSA17    27             19.0000000000
     18647       603  BGLCNA    N               9.8031309261      -30.5226915231       95.2501113516  LPSA17    27             19.0000000000
     18648       603  BGLCNA    HN              9.0320759741      -29.8236796832       95.0827132934  LPSA17    27             19.0000000000
     18649       603  BGLCNA    C               9.7258481285      -31.7212095223       95.9523160909  LPSA17    27             19.0000000000
     18650       603  BGLCNA    O              10.6916798302      -32.3122930696       96.5238801166  LPSA17    27             19.0000000000
     18651       603  BGLCNA    CT              8.2844804477      -32.3133883918       96.0293745529  LPSA17    27             19.0000000000
     18652       603  BGLCNA    HT1             7.5848798299      -31.7385074007       95.3635606282  LPSA17    27             19.0000000000
     18653       603  BGLCNA    HT2             7.8909644292      -32.4098315972       97.0167906789  LPSA17    27             19.0000000000
     18654       603  BGLCNA    HT3             8.3708587559      -33.4231758958       95.7039804309  LPSA17    27             19.0000000000
     18655       603  BGLCNA    C3             11.7135869360      -29.0863801998       95.7540348103  LPSA17    27             19.0000000000
     18656       603  BGLCNA    H3             11.1316568629      -28.1313741890       95.7401190096  LPSA17    27             19.0000000000
     18657       603  BGLCNA    O3             11.6303177627      -29.7165482122       97.0775356047  LPSA17    27             19.0000000000
     18658       603  BGLCNA    C4             13.1468420745      -28.6904619539       95.3486864533  LPSA17    27             19.0000000000
     18659       603  BGLCNA    H4             13.7848502987      -29.6032204778       95.3090014479  LPSA17    27             19.0000000000
     18660       603  BGLCNA    O4             13.6847258690      -27.7608321960       96.2156872787  LPSA17    27             19.0000000000
     18661       603  BGLCNA    HO4            13.2063858715      -26.9811284108       96.0162444362  LPSA17    27             19.0000000000
     18662       603  BGLCNA    C6             14.3418559657      -27.6639040589       93.2852949846  LPSA17    27             19.0000000000
     18663       603  BGLCNA    H61            14.6366264141      -26.7782007497       93.8557506920  LPSA17    27             19.0000000000
     18664       603  BGLCNA    H62            15.1612347833      -28.3973100790       93.4725180191  LPSA17    27             19.0000000000
     18665       603  BGLCNA    O6             14.1463511026      -27.3915684926       91.9076175409  LPSA17    27             19.0000000000
     18666       603  BGLCNA    HO6            15.0067699530      -27.1086458674       91.5273290588  LPSA17    27             19.0000000000
     18667       604  AGAL      C1             11.7682341056      -28.8960341048       98.2622020222  LPSA17    28             20.0000000000
     18668       604  AGAL      H1             12.7687431928      -28.5585436625       98.3007149491  LPSA17    28             20.0000000000
     18669       604  AGAL      C5              9.5231963769      -27.9851132023       98.1710438288  LPSA17    28             20.0000000000
     18670       604  AGAL      H5              9.2307276193      -28.9008973587       97.4646141937  LPSA17    28             20.0000000000
     18671       604  AGAL      O5             10.9834046493      -27.7146850137       98.1147365872  LPSA17    28             20.0000000000
     18672       604  AGAL      C2             11.3878284163      -29.5123152420       99.6197190629  LPSA17    28             20.0000000000
     18673       604  AGAL      H2             11.5869677943      -28.6840865704      100.2965066153  LPSA17    28             20.0000000000
     18674       604  AGAL      O2             12.1833844627      -30.5945443533      100.0788731798  LPSA17    28             20.0000000000
     18675       604  AGAL      C3              9.9245047875      -29.8014028072       99.7396972452  LPSA17    28             20.0000000000
     18676       604  AGAL      H3              9.6352595166      -30.4591924321       98.8607737785  LPSA17    28             20.0000000000
     18677       604  AGAL      O3              9.4401076466      -30.4980580774      100.9043404272  LPSA17    28             20.0000000000
     18678       604  AGAL      HO3             9.0768305709      -31.3373325146      100.5606486229  LPSA17    28             20.0000000000
     18679       604  AGAL      C4              9.1689614942      -28.5540758175       99.5102226768  LPSA17    28             20.0000000000
     18680       604  AGAL      H4              8.1343206008      -28.8000302257       99.4798298294  LPSA17    28             20.0000000000
     18681       604  AGAL      O4              9.3892847804      -27.5760368157      100.4757933835  LPSA17    28             20.0000000000
     18682       604  AGAL      HO4             8.6486685918      -27.6020515690      101.0376442747  LPSA17    28             20.0000000000
     18683       604  AGAL      C6              8.6421490197      -26.8526789160       97.6362902244  LPSA17    28             20.0000000000
     18684       604  AGAL      H61             8.8594539525      -26.7012187131       96.5809275898  LPSA17    28             20.0000000000
     18685       604  AGAL      H62             7.5046423955      -26.9738074197       97.7651048223  LPSA17    28             20.0000000000
     18686       604  AGAL      O6              8.9186416559      -25.6628224382       98.3456070822  LPSA17    28             20.0000000000
     18687       604  AGAL      HO6             9.6536269107      -25.1996524013       97.9416813930  LPSA17    28             20.0000000000
     18688       605  ARHM      C1             12.4816545300      -30.3958190222      101.4808913342  LPSA17    29             21.0000000000
     18689       605  ARHM      H1             11.6644270677      -29.7947974485      101.9964955809  LPSA17    29             21.0000000000
     18690       605  ARHM      C5             14.8057707591      -30.4344472775      101.1486206043  LPSA17    29             21.0000000000
     18691       605  ARHM      H5             14.5401760948      -30.6454128642      100.0935446791  LPSA17    29             21.0000000000
     18692       605  ARHM      O5             13.7075638178      -29.7515733593      101.6833506475  LPSA17    29             21.0000000000
     18693       605  ARHM      C2             12.4535919758      -31.7008631919      102.1437305515  LPSA17    29             21.0000000000
     18694       605  ARHM      H2             11.5638680663      -32.2473949244      101.9067628034  LPSA17    29             21.0000000000
     18695       605  ARHM      O2             12.5382095239      -31.5850967763      103.5748524404  LPSA17    29             21.0000000000
     18696       605  ARHM      C3             13.6206286685      -32.4946716397      101.6289418068  LPSA17    29             21.0000000000
     18697       605  ARHM      H3             13.4610137013      -32.7060939640      100.4952263366  LPSA17    29             21.0000000000
     18698       605  ARHM      O3             13.5672309403      -33.7739833964      102.1995749427  LPSA17    29             21.0000000000
     18699       605  ARHM      HO3            14.4141868270      -34.0677585366      102.2092645043  LPSA17    29             21.0000000000
     18700       605  ARHM      C4             14.9164212554      -31.8388294324      101.8247918557  LPSA17    29             21.0000000000
     18701       605  ARHM      H4             15.1628333078      -31.7117366024      102.9338171738  LPSA17    29             21.0000000000
     18702       605  ARHM      O4             16.0929766265      -32.5284587400      101.3452167393  LPSA17    29             21.0000000000
     18703       605  ARHM      HO4            15.9838067409      -32.9416108598      100.4362974805  LPSA17    29             21.0000000000
     18704       605  ARHM      C6             16.0048017698      -29.4720741299      101.2162231226  LPSA17    29             21.0000000000
     18705       605  ARHM      H61            15.5755384645      -28.5038040991      100.7685423143  LPSA17    29             21.0000000000
     18706       605  ARHM      H62            16.2564520869      -29.2854433087      102.3013153741  LPSA17    29             21.0000000000
     18707       605  ARHM      H63            16.8186813697      -29.8802212335      100.6072571094  LPSA17    29             21.0000000000
     18708       606  ARHM      C1             11.4134524754      -31.6218912965      104.3945976075  LPSA17    30             22.0000000000
     18709       606  ARHM      H1             10.8724190517      -32.5757944822      104.2094096401  LPSA17    30             22.0000000000
     18710       606  ARHM      C5             11.1496280396      -29.2053080158      104.5143062533  LPSA17    30             22.0000000000
     18711       606  ARHM      H5             12.1074650613      -29.2591026127      103.8668162917  LPSA17    30             22.0000000000
     18712       606  ARHM      O5             10.5387456152      -30.4895642594      104.2052433351  LPSA17    30             22.0000000000
     18713       606  ARHM      C2             11.8544337925      -31.6243837249      105.8471183130  LPSA17    30             22.0000000000
     18714       606  ARHM      H2             12.5041818420      -32.4174049453      106.0289718167  LPSA17    30             22.0000000000
     18715       606  ARHM      O2             10.6784461807      -31.6713298643      106.5813641610  LPSA17    30             22.0000000000
     18716       606  ARHM      C3             12.4644534287      -30.3525401054      106.2079894766  LPSA17    30             22.0000000000
     18717       606  ARHM      H3             13.2452951638      -30.1469868168      105.5270001340  LPSA17    30             22.0000000000
     18718       606  ARHM      O3             13.0567210338      -30.3424593610      107.5373891676  LPSA17    30             22.0000000000
     18719       606  ARHM      C4             11.5250833409      -29.1654263370      105.9708288384  LPSA17    30             22.0000000000
     18720       606  ARHM      H4             10.5958329645      -29.2348666515      106.5400372406  LPSA17    30             22.0000000000
     18721       606  ARHM      O4             12.0173274508      -27.9428439475      106.2997755749  LPSA17    30             22.0000000000
     18722       606  ARHM      HO4            12.6200250712      -27.4892232072      105.6964454668  LPSA17    30             22.0000000000
     18723       606  ARHM      C6             10.2397387213      -28.0828831968      104.0930490251  LPSA17    30             22.0000000000
     18724       606  ARHM      H61            10.8217263610      -27.1272072848      104.2143179997  LPSA17    30             22.0000000000
     18725       606  ARHM      H62            10.0944272271      -28.1352548356      103.0019050467  LPSA17    30             22.0000000000
     18726       606  ARHM      H63             9.2495556245      -28.0593471392      104.6493652223  LPSA17    30             22.0000000000
     18727       607  BMANNA    C1             10.2298746358      -32.9565321351      106.9502319096  LPSA17    31             23.0000000000
     18728       607  BMANNA    H1             11.1276288591      -33.5818645598      107.1550799008  LPSA17    31             23.0000000000
     18729       607  BMANNA    C5              9.0556677173      -34.9539447132      106.2136717625  LPSA17    31             23.0000000000
     18730       607  BMANNA    H5              9.9733352130      -35.4591535841      106.5467054000  LPSA17    31             23.0000000000
     18731       607  BMANNA    O5              9.4643492579      -33.5966357025      105.8742289322  LPSA17    31             23.0000000000
     18732       607  BMANNA    C2              9.3621317024      -32.8622532257      108.0830629221  LPSA17    31             23.0000000000
     18733       607  BMANNA    H2             10.0011635515      -32.4827009672      108.9031915743  LPSA17    31             23.0000000000
     18734       607  BMANNA    N               8.3550246273      -31.8918716200      107.8252935315  LPSA17    31             23.0000000000
     18735       607  BMANNA    HN              8.1114795361      -31.7176296161      106.8111160773  LPSA17    31             23.0000000000
     18736       607  BMANNA    C               7.7625349537      -31.1791563874      108.7868858964  LPSA17    31             23.0000000000
     18737       607  BMANNA    O               8.1024611532      -31.2599726436      109.9536662434  LPSA17    31             23.0000000000
     18738       607  BMANNA    CT              6.6391710997      -30.2389062657      108.3237946568  LPSA17    31             23.0000000000
     18739       607  BMANNA    HT1             6.0812416275      -30.7394266233      107.5739831696  LPSA17    31             23.0000000000
     18740       607  BMANNA    HT2             7.1082262677      -29.3286886998      107.9347099034  LPSA17    31             23.0000000000
     18741       607  BMANNA    HT3             6.0396159567      -29.8841181732      109.1768357935  LPSA17    31             23.0000000000
     18742       607  BMANNA    C3              8.9226642137      -34.2310533576      108.4884560283  LPSA17    31             23.0000000000
     18743       607  BMANNA    H3              9.8188703672      -34.9264582658      108.6988550870  LPSA17    31             23.0000000000
     18744       607  BMANNA    O3              8.2361335760      -34.2195857488      109.7404994872  LPSA17    31             23.0000000000
     18745       607  BMANNA    HO3             8.5509194517      -33.3769443384      110.0111610137  LPSA17    31             23.0000000000
     18746       607  BMANNA    C4              8.1186022775      -34.8551988199      107.4199857710  LPSA17    31             23.0000000000
     18747       607  BMANNA    H4              7.1544867527      -34.2589577001      107.0572414185  LPSA17    31             23.0000000000
     18748       607  BMANNA    O4              7.6435266944      -36.1215892780      107.8525671122  LPSA17    31             23.0000000000
     18749       607  BMANNA    HO4             8.3663792505      -36.6941427909      108.1943429300  LPSA17    31             23.0000000000
     18750       607  BMANNA    C6              8.3696568629      -35.6902169240      105.0512686782  LPSA17    31             23.0000000000
     18751       607  BMANNA    H61             8.2830532932      -36.8134452662      105.3397811046  LPSA17    31             23.0000000000
     18752       607  BMANNA    H62             7.3580053771      -35.3387969444      104.8698551944  LPSA17    31             23.0000000000
     18753       607  BMANNA    O6              9.1154886052      -35.5691388390      103.8241467834  LPSA17    31             23.0000000000
     18754       607  BMANNA    HO6             9.9705173000      -36.0860197543      103.8134147631  LPSA17    31             23.0000000000
     18755       608  BGLCNA    C1             12.1995932905      -30.1352379413      108.6103969990  LPSA17    32             23.0000000000
     18756       608  BGLCNA    H1             11.1834074061      -30.6119826686      108.4325564695  LPSA17    32             23.0000000000
     18757       608  BGLCNA    C5             10.9567633341      -28.5341527174      109.9277617404  LPSA17    32             23.0000000000
     18758       608  BGLCNA    H5             10.0179048907      -29.0712315916      109.5374749077  LPSA17    32             23.0000000000
     18759       608  BGLCNA    O5             11.9667944445      -28.7657612394      108.9423333575  LPSA17    32             23.0000000000
     18760       608  BGLCNA    C2             12.7060843435      -30.7917437379      109.8194522937  LPSA17    32             23.0000000000
     18761       608  BGLCNA    H2             13.5478117451      -30.2062055552      110.1044894257  LPSA17    32             23.0000000000
     18762       608  BGLCNA    N              13.0910955535      -32.1438052572      109.5956973249  LPSA17    32             23.0000000000
     18763       608  BGLCNA    HN             12.4841568556      -32.5464392843      108.8809076996  LPSA17    32             23.0000000000
     18764       608  BGLCNA    C              14.1449245346      -32.8345935227      110.0864625708  LPSA17    32             23.0000000000
     18765       608  BGLCNA    O              14.9064023683      -32.3618065901      110.9304085025  LPSA17    32             23.0000000000
     18766       608  BGLCNA    CT             14.3361085059      -34.2828331894      109.5841031968  LPSA17    32             23.0000000000
     18767       608  BGLCNA    HT1            13.6592349627      -34.2512136305      108.6281101354  LPSA17    32             23.0000000000
     18768       608  BGLCNA    HT2            13.9343267367      -35.0556505695      110.1898124037  LPSA17    32             23.0000000000
     18769       608  BGLCNA    HT3            15.3958363820      -34.5096153970      109.3122359934  LPSA17    32             23.0000000000
     18770       608  BGLCNA    C3             11.6648067842      -30.6781732597      110.8930231790  LPSA17    32             23.0000000000
     18771       608  BGLCNA    H3             10.7775375123      -31.0430547186      110.4606187373  LPSA17    32             23.0000000000
     18772       608  BGLCNA    O3             11.9330282033      -31.4640968379      112.0657798240  LPSA17    32             23.0000000000
     18773       608  BGLCNA    C4             11.4702049677      -29.2126067484      111.1707572500  LPSA17    32             23.0000000000
     18774       608  BGLCNA    H4             12.4558709631      -28.8108318349      111.5318289610  LPSA17    32             23.0000000000
     18775       608  BGLCNA    O4             10.5481003955      -28.9999489431      112.2070236435  LPSA17    32             23.0000000000
     18776       608  BGLCNA    HO4            10.9754612984      -28.9572885192      113.0745323218  LPSA17    32             23.0000000000
     18777       608  BGLCNA    C6             10.6584152150      -27.0524497014      110.0229508171  LPSA17    32             23.0000000000
     18778       608  BGLCNA    H61             9.7639781397      -26.8468961270      110.7194343748  LPSA17    32             23.0000000000
     18779       608  BGLCNA    H62            11.5358594541      -26.5243645269      110.5717638480  LPSA17    32             23.0000000000
     18780       608  BGLCNA    O6             10.3271004077      -26.4876740818      108.7709294272  LPSA17    32             23.0000000000
     18781       608  BGLCNA    HO6             9.8049134037      -27.1384888104      108.2360311317  LPSA17    32             23.0000000000
     18782       609  AGAL      C1             10.7603510485      -32.0580260241      112.6842874521  LPSA17    33             24.0000000000
     18783       609  AGAL      H1              9.9597602507      -31.3192840578      112.5979959475  LPSA17    33             24.0000000000
     18784       609  AGAL      C5             11.3919092859      -34.2971347886      112.2149219831  LPSA17    33             24.0000000000
     18785       609  AGAL      H5             12.3173818100      -33.7961834831      111.8792915250  LPSA17    33             24.0000000000
     18786       609  AGAL      O5             10.3733072948      -33.3288345364      112.0726784748  LPSA17    33             24.0000000000
     18787       609  AGAL      C2             11.1083388454      -32.3182200800      114.1482787662  LPSA17    33             24.0000000000
     18788       609  AGAL      H2             10.1917562305      -32.8828669206      114.5751854976  LPSA17    33             24.0000000000
     18789       609  AGAL      O2             11.1141716113      -31.0884308384      114.8486222260  LPSA17    33             24.0000000000
     18790       609  AGAL      C3             12.1755769537      -33.3742815650      114.2945545625  LPSA17    33             24.0000000000
     18791       609  AGAL      H3             13.1246501542      -33.0582822202      113.7405815065  LPSA17    33             24.0000000000
     18792       609  AGAL      O3             12.6551121967      -33.5182850251      115.5672660328  LPSA17    33             24.0000000000
     18793       609  AGAL      HO3            12.0230566675      -33.6599570187      116.2400186851  LPSA17    33             24.0000000000
     18794       609  AGAL      C4             11.7298022584      -34.6766789540      113.6708488317  LPSA17    33             24.0000000000
     18795       609  AGAL      H4             12.5388634109      -35.4171307733      113.6729875792  LPSA17    33             24.0000000000
     18796       609  AGAL      O4             10.5885553779      -35.3557336646      114.2435538900  LPSA17    33             24.0000000000
     18797       609  AGAL      HO4            10.1447930169      -34.8426563983      114.9085525172  LPSA17    33             24.0000000000
     18798       609  AGAL      C6             11.1820693683      -35.4797615032      111.2992528405  LPSA17    33             24.0000000000
     18799       609  AGAL      H61            11.2235915868      -35.0489088788      110.2783408757  LPSA17    33             24.0000000000
     18800       609  AGAL      H62            11.9374010515      -36.2868844909      111.3458027743  LPSA17    33             24.0000000000
     18801       609  AGAL      O6              9.9902057832      -36.1920298083      111.4129476537  LPSA17    33             24.0000000000
     18802       609  AGAL      HO6             9.2617055122      -35.8345335893      110.8444757795  LPSA17    33             24.0000000000
     18803       610  ARHM      C1             10.3501855791      -31.0734845518      116.0109133884  LPSA17    34             25.0000000000
     18804       610  ARHM      H1             10.5193172303      -31.9648479614      116.6389743656  LPSA17    34             25.0000000000
     18805       610  ARHM      C5              8.4414487486      -29.9223807643      115.0727799907  LPSA17    34             25.0000000000
     18806       610  ARHM      H5              8.9160290214      -30.0005330676      114.0209633333  LPSA17    34             25.0000000000
     18807       610  ARHM      O5              8.9129472775      -31.0504353489      115.8926868953  LPSA17    34             25.0000000000
     18808       610  ARHM      C2             10.8311537314      -29.8624459941      116.7601555753  LPSA17    34             25.0000000000
     18809       610  ARHM      H2             11.9451873988      -29.7641505466      116.8710959342  LPSA17    34             25.0000000000
     18810       610  ARHM      O2             10.3020745838      -29.7374479533      118.1592972339  LPSA17    34             25.0000000000
     18811       610  ARHM      C3             10.3809624052      -28.6240615759      115.9988665506  LPSA17    34             25.0000000000
     18812       610  ARHM      H3             10.7778744218      -28.6206963278      114.9724172480  LPSA17    34             25.0000000000
     18813       610  ARHM      O3             10.7501717844      -27.3534110700      116.5878695042  LPSA17    34             25.0000000000
     18814       610  ARHM      HO3            11.0036570183      -26.6880511206      115.9559434517  LPSA17    34             25.0000000000
     18815       610  ARHM      C4              8.8412678677      -28.5876065942      115.7987835878  LPSA17    34             25.0000000000
     18816       610  ARHM      H4              8.2921033611      -28.6876141777      116.7495315617  LPSA17    34             25.0000000000
     18817       610  ARHM      O4              8.4054874776      -27.4580681688      115.1362621200  LPSA17    34             25.0000000000
     18818       610  ARHM      HO4             8.3965592230      -26.6845211424      115.6953140327  LPSA17    34             25.0000000000
     18819       610  ARHM      C6              6.8889468948      -29.9821172156      114.8413279703  LPSA17    34             25.0000000000
     18820       610  ARHM      H61             6.2821334619      -29.8827858125      115.7172490283  LPSA17    34             25.0000000000
     18821       610  ARHM      H62             6.5923449521      -29.0145108507      114.3996926230  LPSA17    34             25.0000000000
     18822       610  ARHM      H63             6.5191555244      -30.7697685236      114.1590834060  LPSA17    34             25.0000000000
     18823       611  ARHM      C1             10.5834443406      -30.8119412629      119.0795908573  LPSA17    35             26.0000000000
     18824       611  ARHM      H1             11.6718514294      -31.1868365595      118.8787348947  LPSA17    35             26.0000000000
     18825       611  ARHM      C5              8.2761012845      -31.5546979799      119.2408916176  LPSA17    35             26.0000000000
     18826       611  ARHM      H5              7.9249022922      -30.7059807537      118.5254732223  LPSA17    35             26.0000000000
     18827       611  ARHM      O5              9.6602669064      -31.9716390057      118.9290334222  LPSA17    35             26.0000000000
     18828       611  ARHM      C2             10.5198433899      -30.2965753049      120.5365485050  LPSA17    35             26.0000000000
     18829       611  ARHM      H2             11.2954973258      -29.4982211128      120.7134209997  LPSA17    35             26.0000000000
     18830       611  ARHM      O2             10.8170827862      -31.3196873265      121.4126203716  LPSA17    35             26.0000000000
     18831       611  ARHM      C3              9.0964712776      -29.7974455157      120.8720061906  LPSA17    35             26.0000000000
     18832       611  ARHM      H3              8.8845669214      -28.9556681438      120.1344793452  LPSA17    35             26.0000000000
     18833       611  ARHM      O3              9.0431354506      -29.2070130480      122.1540075829  LPSA17    35             26.0000000000
     18834       611  ARHM      HO3             9.6567786230      -29.6696147041      122.7288731339  LPSA17    35             26.0000000000
     18835       611  ARHM      C4              8.1599447507      -30.9583800091      120.6788917534  LPSA17    35             26.0000000000
     18836       611  ARHM      H4              8.3904886284      -31.8457175617      121.3307119103  LPSA17    35             26.0000000000
     18837       611  ARHM      O4              6.8341463977      -30.4643048630      120.9693790153  LPSA17    35             26.0000000000
     18838       611  ARHM      HO4             6.6355617914      -29.5908516531      120.5581709812  LPSA17    35             26.0000000000
     18839       611  ARHM      C6              7.2874107916      -32.7112882090      118.8642347863  LPSA17    35             26.0000000000
     18840       611  ARHM      H61             7.2812980333      -32.8937585219      117.7433556958  LPSA17    35             26.0000000000
     18841       611  ARHM      H62             7.6943125260      -33.5434090742      119.4176110492  LPSA17    35             26.0000000000
     18842       611  ARHM      H63             6.2458345236      -32.3269492780      119.0633705917  LPSA17    35             26.0000000000
     18843       612  BMANNA    C1             12.1461002923      -31.7449571113      121.4471464502  LPSA17    36             27.0000000000
     18844       612  BMANNA    H1             12.8392231533      -30.9433572264      121.0972061898  LPSA17    36             27.0000000000
     18845       612  BMANNA    C5             13.9800451658      -33.1509327914      120.7299884793  LPSA17    36             27.0000000000
     18846       612  BMANNA    H5             14.4973604093      -32.2315710010      120.4610684421  LPSA17    36             27.0000000000
     18847       612  BMANNA    O5             12.5387657623      -32.9067464373      120.6641532654  LPSA17    36             27.0000000000
     18848       612  BMANNA    C2             12.5172894286      -32.0410335571      122.8920138725  LPSA17    36             27.0000000000
     18849       612  BMANNA    H2             12.3043964072      -31.1235450776      123.4719477421  LPSA17    36             27.0000000000
     18850       612  BMANNA    N              11.6810165760      -33.1087584924      123.4395449790  LPSA17    36             27.0000000000
     18851       612  BMANNA    HN             11.4801929781      -33.9149182856      122.8746519580  LPSA17    36             27.0000000000
     18852       612  BMANNA    C              11.4247327041      -33.1791177771      124.7737151700  LPSA17    36             27.0000000000
     18853       612  BMANNA    O              11.7017911271      -32.3221494331      125.6190347561  LPSA17    36             27.0000000000
     18854       612  BMANNA    CT             10.7898711049      -34.4107353483      125.3570716528  LPSA17    36             27.0000000000
     18855       612  BMANNA    HT1            11.1927138945      -35.3096492975      124.8802869227  LPSA17    36             27.0000000000
     18856       612  BMANNA    HT2             9.6804155968      -34.4756179060      125.1731404614  LPSA17    36             27.0000000000
     18857       612  BMANNA    HT3            10.8473809769      -34.5131691476      126.4547536948  LPSA17    36             27.0000000000
     18858       612  BMANNA    C3             13.9907734034      -32.3464099633      122.9763638711  LPSA17    36             27.0000000000
     18859       612  BMANNA    H3             14.5817138271      -31.4848344670      122.6403873786  LPSA17    36             27.0000000000
     18860       612  BMANNA    O3             14.4230263134      -32.5836397065      124.3414054450  LPSA17    36             27.0000000000
     18861       612  BMANNA    HO3            15.0430018154      -31.9674942021      124.7171830083  LPSA17    36             27.0000000000
     18862       612  BMANNA    C4             14.3637015978      -33.4942406951      122.1146940524  LPSA17    36             27.0000000000
     18863       612  BMANNA    H4             13.8969676655      -34.4019064273      122.4263894750  LPSA17    36             27.0000000000
     18864       612  BMANNA    O4             15.7545796291      -33.7923792409      122.2172873890  LPSA17    36             27.0000000000
     18865       612  BMANNA    HO4            15.7807004796      -33.9213188469      123.1985163392  LPSA17    36             27.0000000000
     18866       612  BMANNA    C6             14.3347594556      -34.1879238563      119.7412642597  LPSA17    36             27.0000000000
     18867       612  BMANNA    H61            14.1065563969      -33.8611529756      118.6946701192  LPSA17    36             27.0000000000
     18868       612  BMANNA    H62            15.4285547050      -34.1914042675      119.7045442506  LPSA17    36             27.0000000000
     18869       612  BMANNA    O6             13.7863506697      -35.5094474853      120.0914698020  LPSA17    36             27.0000000000
     18870       612  BMANNA    HO6            14.4533301572      -35.9282801411      120.6476247167  LPSA17    36             27.0000000000
     18871       613  ECLIPA    HB6S           -6.0510273695       32.4672849097       20.4612168218  LPSA18    1               0.0000000000
     18872       613  ECLIPA    OB6            -4.5667121934       33.0051267228       21.7140249152  LPSA18    1               0.0000000000
     18873       613  ECLIPA    CB6            -5.5729956843       33.3777273397       20.7042159014  LPSA18    1               0.0000000000
     18874       613  ECLIPA    HB6R           -6.1900483743       34.1850262923       21.0541931349  LPSA18    1               0.0000000000
     18875       613  ECLIPA    CB5            -4.9164419162       33.9955785420       19.3988764877  LPSA18    1               0.0000000000
     18876       613  ECLIPA    OB5            -3.9254868847       32.9766250138       18.9716901872  LPSA18    1               0.0000000000
     18877       613  ECLIPA    HB5            -4.3632858751       34.8756268057       19.7771798410  LPSA18    1               0.0000000000
     18878       613  ECLIPA    CB1            -3.2503952423       33.4205108571       17.7717324898  LPSA18    1               0.0000000000
     18879       613  ECLIPA    HB1            -2.6991156335       34.3778229407       17.9003641080  LPSA18    1               0.0000000000
     18880       613  ECLIPA    OA6            -2.3627907015       32.4416007284       17.3217246577  LPSA18    1               0.0000000000
     18881       613  ECLIPA    CA6            -2.6499103491       31.0496671696       17.5745106853  LPSA18    1               0.0000000000
     18882       613  ECLIPA    HA6R           -3.7435692088       30.9416901164       17.7226451425  LPSA18    1               0.0000000000
     18883       613  ECLIPA    HA6S           -1.9780913411       30.7085781839       18.4598965841  LPSA18    1               0.0000000000
     18884       613  ECLIPA    CB4            -5.9708513535       34.3134377461       18.3206521937  LPSA18    1               0.0000000000
     18885       613  ECLIPA    HB4            -6.5199184366       33.4002373581       18.0085584641  LPSA18    1               0.0000000000
     18886       613  ECLIPA    OB4            -6.6960454751       35.4192363085       18.9017319965  LPSA18    1               0.0000000000
     18887       613  ECLIPA    PB             -8.2371327538       35.2217100228       19.3234616795  LPSA18    1               0.0000000000
     18888       613  ECLIPA    OPB4           -8.4860477796       36.1081451557       20.5579515876  LPSA18    1               0.0000000000
     18889       613  ECLIPA    OPB3           -8.2593593040       33.7111212570       19.6614545037  LPSA18    1               0.0000000000
     18890       613  ECLIPA    OPB2           -9.0906040296       35.5247078781       18.0829495795  LPSA18    1               0.0000000000
     18891       613  ECLIPA    CB3            -5.1965456466       34.7601422002       17.0955893951  LPSA18    1               0.0000000000
     18892       613  ECLIPA    OB3            -5.9824696276       35.0180536998       15.9186528231  LPSA18    1               0.0000000000
     18893       613  ECLIPA    HB3            -4.4639900895       35.5918133353       17.3284540628  LPSA18    1               0.0000000000
     18894       613  ECLIPA    C71            -6.3827297604       36.2246559950       15.6929469039  LPSA18    1               0.0000000000
     18895       613  ECLIPA    O71            -6.0464655477       37.2146945381       16.3832172580  LPSA18    1               0.0000000000
     18896       613  ECLIPA    C72            -7.1674736188       36.2175100722       14.3548430386  LPSA18    1               0.0000000000
     18897       613  ECLIPA    H72R           -6.5140926006       35.8251092330       13.5774555414  LPSA18    1               0.0000000000
     18898       613  ECLIPA    H72S           -7.5763740345       37.2944758012       14.1464415926  LPSA18    1               0.0000000000
     18899       613  ECLIPA    CB2            -4.2322926280       33.6343439405       16.6720734084  LPSA18    1               0.0000000000
     18900       613  ECLIPA    HB2            -4.9035775191       32.6718783466       16.5298168153  LPSA18    1               0.0000000000
     18901       613  ECLIPA    NB2            -3.4568138620       33.9661905455       15.4577284722  LPSA18    1               0.0000000000
     18902       613  ECLIPA    HNB2           -2.6203419183       34.4944968551       15.5965609326  LPSA18    1               0.0000000000
     18903       613  ECLIPA    CA4            -0.9360528422       30.6599914523       15.7929312798  LPSA18    1               0.0000000000
     18904       613  ECLIPA    HA4            -0.9735584390       31.7375265471       15.4903430209  LPSA18    1               0.0000000000
     18905       613  ECLIPA    OA4             0.0130553965       30.4854096572       16.8012065728  LPSA18    1               0.0000000000
     18906       613  ECLIPA    HOA4           -0.2458068219       30.8614928577       17.5928838569  LPSA18    1               0.0000000000
     18907       613  ECLIPA    CA5            -2.2386794125       30.2692872287       16.3547806008  LPSA18    1               0.0000000000
     18908       613  ECLIPA    HA5            -2.4063453551       29.1375300197       16.5880746347  LPSA18    1               0.0000000000
     18909       613  ECLIPA    OA5            -3.2399151153       30.5572770745       15.3689671688  LPSA18    1               0.0000000000
     18910       613  ECLIPA    CA1            -2.9786614201       29.8448239663       14.1076640156  LPSA18    1               0.0000000000
     18911       613  ECLIPA    HA1            -3.6311351927       30.4410911225       13.4118188108  LPSA18    1               0.0000000000
     18912       613  ECLIPA    OA1            -3.4099649234       28.4983338485       14.1359876212  LPSA18    1               0.0000000000
     18913       613  ECLIPA    OPA2           -4.4892128835       27.3687495245       15.9734101064  LPSA18    1               0.0000000000
     18914       613  ECLIPA    OPA3           -5.7365336246       29.2758220917       14.8300177673  LPSA18    1               0.0000000000
     18915       613  ECLIPA    OPA4           -5.4306706480       27.1416207669       13.6615320840  LPSA18    1               0.0000000000
     18916       613  ECLIPA    PA             -4.8312602472       28.0889209850       14.6765383084  LPSA18    1               0.0000000000
     18917       613  ECLIPA    CA3            -0.5692798649       29.9073702084       14.5219348229  LPSA18    1               0.0000000000
     18918       613  ECLIPA    HA3            -0.4485446131       28.7741143028       14.7377032538  LPSA18    1               0.0000000000
     18919       613  ECLIPA    OA3             0.7599058143       30.3131793255       14.2498111976  LPSA18    1               0.0000000000
     18920       613  ECLIPA    C31             0.9035619103       31.4526826306       13.5006246295  LPSA18    1               0.0000000000
     18921       613  ECLIPA    O31             0.7670657188       31.5481353398       12.2941239937  LPSA18    1               0.0000000000
     18922       613  ECLIPA    C32             1.7714418570       32.4528437614       14.2780289507  LPSA18    1               0.0000000000
     18923       613  ECLIPA    H32R            2.7112912044       32.6069430057       13.7149713840  LPSA18    1               0.0000000000
     18924       613  ECLIPA    H32S            1.9806068522       32.0679312292       15.2729523512  LPSA18    1               0.0000000000
     18925       613  ECLIPA    CA2            -1.6459594270       30.2133267093       13.4984733916  LPSA18    1               0.0000000000
     18926       613  ECLIPA    HA2            -1.6986629689       31.3005471859       13.3982259915  LPSA18    1               0.0000000000
     18927       613  ECLIPA    NA2            -1.4427777912       29.5298645659       12.2035087571  LPSA18    1               0.0000000000
     18928       613  ECLIPA    HNA2           -0.5857099429       29.0892792847       12.0865030408  LPSA18    1               0.0000000000
     18929       613  ECLIPA    C73            -8.3987424414       35.3492315734       14.3319064372  LPSA18    1               0.0000000000
     18930       613  ECLIPA    H73R           -9.0068854011       35.4540051380       15.2227416964  LPSA18    1               0.0000000000
     18931       613  ECLIPA    O73            -7.9330843666       33.9784693233       14.2644256719  LPSA18    1               0.0000000000
     18932       613  ECLIPA    C81            -8.5443770829       32.9383560215       14.8555734565  LPSA18    1               0.0000000000
     18933       613  ECLIPA    O81            -9.4934929517       33.1685428217       15.6690894779  LPSA18    1               0.0000000000
     18934       613  ECLIPA    C82            -7.9948232478       31.5886314475       14.3536111794  LPSA18    1               0.0000000000
     18935       613  ECLIPA    H82R           -8.4727400950       30.7519526616       14.8531840528  LPSA18    1               0.0000000000
     18936       613  ECLIPA    H82S           -6.8983388996       31.5023211978       14.5323473422  LPSA18    1               0.0000000000
     18937       613  ECLIPA    C83            -8.2122585502       31.4666668095       12.8301722806  LPSA18    1               0.0000000000
     18938       613  ECLIPA    H83R           -7.3944299678       32.0231869961       12.2351841548  LPSA18    1               0.0000000000
     18939       613  ECLIPA    H83S           -9.1148974504       32.0317661027       12.5911296392  LPSA18    1               0.0000000000
     18940       613  ECLIPA    C84            -8.1506380681       30.0176573807       12.3050927261  LPSA18    1               0.0000000000
     18941       613  ECLIPA    H84R           -9.0856581794       29.5125199164       12.5767117503  LPSA18    1               0.0000000000
     18942       613  ECLIPA    H84S           -7.2554516911       29.6237210153       12.7369555497  LPSA18    1               0.0000000000
     18943       613  ECLIPA    C85            -7.9706788650       29.9869608225       10.7695484051  LPSA18    1               0.0000000000
     18944       613  ECLIPA    H85R           -7.2134670484       30.7508005790       10.5503608829  LPSA18    1               0.0000000000
     18945       613  ECLIPA    H85S           -8.9079048527       30.3340701066       10.2367999955  LPSA18    1               0.0000000000
     18946       613  ECLIPA    C86            -7.3949513619       28.6209231520       10.3034592726  LPSA18    1               0.0000000000
     18947       613  ECLIPA    H86R           -8.1970206944       27.8718703758        9.9932223571  LPSA18    1               0.0000000000
     18948       613  ECLIPA    H86S           -6.8298037400       28.1414918421       11.0807540114  LPSA18    1               0.0000000000
     18949       613  ECLIPA    C87            -6.3348823371       28.7812905377        9.1601018854  LPSA18    1               0.0000000000
     18950       613  ECLIPA    H87R           -5.9878248117       27.8163467670        8.8049419625  LPSA18    1               0.0000000000
     18951       613  ECLIPA    H87S           -5.4131824408       29.2989806823        9.5406723883  LPSA18    1               0.0000000000
     18952       613  ECLIPA    C88            -6.8461390558       29.6427168309        8.0318999685  LPSA18    1               0.0000000000
     18953       613  ECLIPA    H88R           -6.8542218745       30.7369475998        8.3479828359  LPSA18    1               0.0000000000
     18954       613  ECLIPA    H88S           -7.9602882930       29.4959282235        7.9254521495  LPSA18    1               0.0000000000
     18955       613  ECLIPA    C89            -6.0146879414       29.5547487152        6.7101000712  LPSA18    1               0.0000000000
     18956       613  ECLIPA    H89R           -5.0045913816       29.1214967004        6.8746682686  LPSA18    1               0.0000000000
     18957       613  ECLIPA    H89S           -5.8325899630       30.4978941672        6.2317001698  LPSA18    1               0.0000000000
     18958       613  ECLIPA    C810           -6.8079048386       28.7011483699        5.7047246593  LPSA18    1               0.0000000000
     18959       613  ECLIPA    H810R          -7.8489638050       28.9113362053        6.0108430704  LPSA18    1               0.0000000000
     18960       613  ECLIPA    H810S          -6.5706796904       27.6655765269        5.8554647029  LPSA18    1               0.0000000000
     18961       613  ECLIPA    C811           -6.5849574158       29.0283481790        4.2179945741  LPSA18    1               0.0000000000
     18962       613  ECLIPA    H811R          -6.8466375105       28.2931550446        3.5081125689  LPSA18    1               0.0000000000
     18963       613  ECLIPA    H811S          -5.4742038996       29.3366377663        4.1819101877  LPSA18    1               0.0000000000
     18964       613  ECLIPA    C812           -7.2092439577       30.3489486673        3.7413673409  LPSA18    1               0.0000000000
     18965       613  ECLIPA    H812R          -6.8192593660       30.5345420773        2.6403157337  LPSA18    1               0.0000000000
     18966       613  ECLIPA    H812S          -7.0505059340       31.1822186661        4.4144737196  LPSA18    1               0.0000000000
     18967       613  ECLIPA    C813           -8.7477474939       30.3383400464        3.6785234959  LPSA18    1               0.0000000000
     18968       613  ECLIPA    H813R          -9.0269745173       29.5500998850        2.9398073555  LPSA18    1               0.0000000000
     18969       613  ECLIPA    H813S          -9.2903797624       30.0753646930        4.6616087352  LPSA18    1               0.0000000000
     18970       613  ECLIPA    C814           -9.3425988975       31.6222072267        3.1377409857  LPSA18    1               0.0000000000
     18971       613  ECLIPA    H814R          -8.8434729226       32.0583964608        2.1719074593  LPSA18    1               0.0000000000
     18972       613  ECLIPA    H814S          -9.2975596297       32.3954508628        3.9166242729  LPSA18    1               0.0000000000
     18973       613  ECLIPA    H814T         -10.4215689414       31.4873796195        2.8964685373  LPSA18    1               0.0000000000
     18974       613  ECLIPA    C74            -9.3669056137       35.4741169257       13.1792855021  LPSA18    1               0.0000000000
     18975       613  ECLIPA    H74R           -9.8670454609       36.4229864536       12.9935747315  LPSA18    1               0.0000000000
     18976       613  ECLIPA    H74S          -10.2073705271       34.6852863488       13.3086690609  LPSA18    1               0.0000000000
     18977       613  ECLIPA    C75            -8.6947464522       35.0098308422       11.8151371119  LPSA18    1               0.0000000000
     18978       613  ECLIPA    H75R           -9.5224657102       34.4889337171       11.2107603889  LPSA18    1               0.0000000000
     18979       613  ECLIPA    H75S           -7.8984900058       34.2655109823       12.0082837783  LPSA18    1               0.0000000000
     18980       613  ECLIPA    C76            -8.1065893419       36.1391640531       10.9251453624  LPSA18    1               0.0000000000
     18981       613  ECLIPA    H76R           -7.1131740660       36.4442312131       11.3555905686  LPSA18    1               0.0000000000
     18982       613  ECLIPA    H76S           -8.7352293905       37.1227989663       10.9731137071  LPSA18    1               0.0000000000
     18983       613  ECLIPA    C77            -7.9026791234       35.8366757100        9.4191603634  LPSA18    1               0.0000000000
     18984       613  ECLIPA    H77R           -8.8693478439       35.6086905910        9.0408775908  LPSA18    1               0.0000000000
     18985       613  ECLIPA    H77S           -7.3673102415       34.8684756204        9.2852383479  LPSA18    1               0.0000000000
     18986       613  ECLIPA    C78            -7.0801482178       36.9894046545        8.8297405752  LPSA18    1               0.0000000000
     18987       613  ECLIPA    H78R           -7.5448083550       37.9191422027        9.1562620580  LPSA18    1               0.0000000000
     18988       613  ECLIPA    H78S           -6.0715230568       36.8839450342        9.3169442960  LPSA18    1               0.0000000000
     18989       613  ECLIPA    C79            -6.7442941235       36.7976160351        7.2570767761  LPSA18    1               0.0000000000
     18990       613  ECLIPA    H79R           -5.7071599943       36.3481708600        7.1763205913  LPSA18    1               0.0000000000
     18991       613  ECLIPA    H79S           -6.7200389365       37.7860689861        6.7882549413  LPSA18    1               0.0000000000
     18992       613  ECLIPA    C710           -7.8070188453       36.1299286640        6.3785096220  LPSA18    1               0.0000000000
     18993       613  ECLIPA    H710R          -7.9722886686       35.1311707353        6.8460783027  LPSA18    1               0.0000000000
     18994       613  ECLIPA    H710S          -8.6712920452       36.6692702003        6.4843026416  LPSA18    1               0.0000000000
     18995       613  ECLIPA    C711           -7.3838204906       35.9270758980        4.9384125046  LPSA18    1               0.0000000000
     18996       613  ECLIPA    H711R          -7.2315788354       36.9425127559        4.5670708729  LPSA18    1               0.0000000000
     18997       613  ECLIPA    H711S          -6.4566435633       35.2993747834        4.9306188492  LPSA18    1               0.0000000000
     18998       613  ECLIPA    C712           -8.4914239791       35.1822604679        4.2148670498  LPSA18    1               0.0000000000
     18999       613  ECLIPA    H712R          -9.3894634480       35.8020976484        4.3130666899  LPSA18    1               0.0000000000
     19000       613  ECLIPA    H712S          -8.6813315413       34.3024262333        4.8522839389  LPSA18    1               0.0000000000
     19001       613  ECLIPA    C713           -8.0660120053       34.7800135662        2.7357390519  LPSA18    1               0.0000000000
     19002       613  ECLIPA    H713R          -7.1876038288       34.0910990476        2.8800411466  LPSA18    1               0.0000000000
     19003       613  ECLIPA    H713S          -8.9790365075       34.2488109132        2.2750064041  LPSA18    1               0.0000000000
     19004       613  ECLIPA    C714           -7.8183187859       36.0413465974        1.8879763961  LPSA18    1               0.0000000000
     19005       613  ECLIPA    H714R          -8.7396138199       36.6275641962        1.7626189762  LPSA18    1               0.0000000000
     19006       613  ECLIPA    H714S          -6.9249397807       36.5913066895        2.2081901572  LPSA18    1               0.0000000000
     19007       613  ECLIPA    H714T          -7.6232667618       35.6082822988        0.9249202435  LPSA18    1               0.0000000000
     19008       613  ECLIPA    C51            -3.9837905666       33.7704726355       14.2380633031  LPSA18    1               0.0000000000
     19009       613  ECLIPA    O51            -4.9376389547       32.9704070965       14.1304636378  LPSA18    1               0.0000000000
     19010       613  ECLIPA    C52            -3.4535897865       34.6045812897       13.0157035712  LPSA18    1               0.0000000000
     19011       613  ECLIPA    H52R           -3.9243271232       35.5696843855       12.8950255930  LPSA18    1               0.0000000000
     19012       613  ECLIPA    H52S           -2.4125864350       34.7157713086       13.2222025935  LPSA18    1               0.0000000000
     19013       613  ECLIPA    C53            -3.5380112374       33.6655463960       11.7526064304  LPSA18    1               0.0000000000
     19014       613  ECLIPA    H53R           -3.4974872666       32.6118259275       12.0082431084  LPSA18    1               0.0000000000
     19015       613  ECLIPA    O53            -2.5362184146       34.1486419147       10.8431816314  LPSA18    1               0.0000000000
     19016       613  ECLIPA    C61            -1.5465120936       33.3369602974       10.5090573566  LPSA18    1               0.0000000000
     19017       613  ECLIPA    O61            -1.4111645438       32.2087330468       10.8659713306  LPSA18    1               0.0000000000
     19018       613  ECLIPA    C62            -0.5809589688       34.0797041882        9.5765835255  LPSA18    1               0.0000000000
     19019       613  ECLIPA    H62R            0.0584142778       34.7250182380       10.2152837125  LPSA18    1               0.0000000000
     19020       613  ECLIPA    H62S           -1.1934951249       34.8406917171        9.0470049452  LPSA18    1               0.0000000000
     19021       613  ECLIPA    C63             0.2204565681       33.1010734374        8.6803029234  LPSA18    1               0.0000000000
     19022       613  ECLIPA    H63R           -0.5007978095       32.3704218221        8.2798705976  LPSA18    1               0.0000000000
     19023       613  ECLIPA    H63S            1.0041861286       32.5062924662        9.3252199642  LPSA18    1               0.0000000000
     19024       613  ECLIPA    C64             0.9622040980       33.6588858990        7.5279067597  LPSA18    1               0.0000000000
     19025       613  ECLIPA    H64R            1.5874507567       32.8796616672        6.9620099216  LPSA18    1               0.0000000000
     19026       613  ECLIPA    H64S            1.6463565573       34.4748947379        7.9657393466  LPSA18    1               0.0000000000
     19027       613  ECLIPA    C65            -0.0362396013       34.3604378989        6.5414948800  LPSA18    1               0.0000000000
     19028       613  ECLIPA    H65R           -0.4649791788       35.1206648195        7.2423230371  LPSA18    1               0.0000000000
     19029       613  ECLIPA    H65S           -0.7840454960       33.6192496093        6.1828980290  LPSA18    1               0.0000000000
     19030       613  ECLIPA    C66             0.5741290614       35.0201829780        5.2222643966  LPSA18    1               0.0000000000
     19031       613  ECLIPA    H66R            1.2781459644       35.7864984189        5.5395647249  LPSA18    1               0.0000000000
     19032       613  ECLIPA    H66S           -0.3674848948       35.4912552349        4.8113963288  LPSA18    1               0.0000000000
     19033       613  ECLIPA    C67             1.1729997503       34.1219701240        4.1696839457  LPSA18    1               0.0000000000
     19034       613  ECLIPA    H67R            1.9018939447       33.4190191577        4.5058181646  LPSA18    1               0.0000000000
     19035       613  ECLIPA    H67S            1.6276252168       34.7452064344        3.3478820057  LPSA18    1               0.0000000000
     19036       613  ECLIPA    C68             0.1823279520       33.2003921963        3.5077075145  LPSA18    1               0.0000000000
     19037       613  ECLIPA    H68R           -0.7137502931       33.6434398269        3.0112508411  LPSA18    1               0.0000000000
     19038       613  ECLIPA    H68S           -0.0649692139       32.5272055702        4.3087918325  LPSA18    1               0.0000000000
     19039       613  ECLIPA    C69             0.8294787500       32.5308668127        2.2963532923  LPSA18    1               0.0000000000
     19040       613  ECLIPA    H69R            1.9309763086       32.4215932432        2.3203210098  LPSA18    1               0.0000000000
     19041       613  ECLIPA    H69S            0.7068445975       33.2273678314        1.4693744207  LPSA18    1               0.0000000000
     19042       613  ECLIPA    C610            0.2330164762       31.2184124587        1.9396251084  LPSA18    1               0.0000000000
     19043       613  ECLIPA    H610R          -0.8847280048       31.2564374540        2.0603347121  LPSA18    1               0.0000000000
     19044       613  ECLIPA    H610S           0.5619824047       30.4305558408        2.6933643884  LPSA18    1               0.0000000000
     19045       613  ECLIPA    C611            0.6804630619       30.6908240846        0.5312153135  LPSA18    1               0.0000000000
     19046       613  ECLIPA    H611R           1.7845774200       30.6154904865        0.5735373188  LPSA18    1               0.0000000000
     19047       613  ECLIPA    H611S           0.4557922564       29.6485955912        0.3609598123  LPSA18    1               0.0000000000
     19048       613  ECLIPA    C612            0.1037945495       31.5533238872       -0.5788949292  LPSA18    1               0.0000000000
     19049       613  ECLIPA    H612R          -1.0108952843       31.3946093719       -0.6060949542  LPSA18    1               0.0000000000
     19050       613  ECLIPA    H612S           0.2249858993       32.6107959998       -0.3132441764  LPSA18    1               0.0000000000
     19051       613  ECLIPA    H612T           0.5220044749       31.3010563543       -1.5574606966  LPSA18    1               0.0000000000
     19052       613  ECLIPA    C54            -4.9340112473       33.9674362349       11.1776054589  LPSA18    1               0.0000000000
     19053       613  ECLIPA    H54R           -4.9691463739       35.0596087078       10.8869876633  LPSA18    1               0.0000000000
     19054       613  ECLIPA    H54S           -5.7047049748       33.8566181509       11.9574517429  LPSA18    1               0.0000000000
     19055       613  ECLIPA    C55            -5.4378449558       33.1537329948        9.9916770240  LPSA18    1               0.0000000000
     19056       613  ECLIPA    H55R           -6.5277987859       33.2517085859        9.7856946516  LPSA18    1               0.0000000000
     19057       613  ECLIPA    H55S           -5.2529329349       32.0491515770       10.2436295858  LPSA18    1               0.0000000000
     19058       613  ECLIPA    C56            -4.7755009913       33.6922238067        8.7515486822  LPSA18    1               0.0000000000
     19059       613  ECLIPA    H56R           -3.6504697857       33.5901986850        8.8382497819  LPSA18    1               0.0000000000
     19060       613  ECLIPA    H56S           -4.9782254572       34.6824952758        8.4741334449  LPSA18    1               0.0000000000
     19061       613  ECLIPA    C57            -4.9385911940       32.8354882724        7.4395707935  LPSA18    1               0.0000000000
     19062       613  ECLIPA    H57R           -5.9821112418       32.6447127731        7.1827428724  LPSA18    1               0.0000000000
     19063       613  ECLIPA    H57S           -4.4918638029       31.8218234977        7.5196553379  LPSA18    1               0.0000000000
     19064       613  ECLIPA    C58            -4.1644211393       33.5107879287        6.2350750625  LPSA18    1               0.0000000000
     19065       613  ECLIPA    H58R           -4.3444406043       34.6211790888        6.2095761879  LPSA18    1               0.0000000000
     19066       613  ECLIPA    H58S           -3.0772623773       33.5048968891        6.5224540661  LPSA18    1               0.0000000000
     19067       613  ECLIPA    C59            -4.5765365074       32.8991496198        4.8667186835  LPSA18    1               0.0000000000
     19068       613  ECLIPA    H59R           -5.6574436127       32.9942450233        4.6589989540  LPSA18    1               0.0000000000
     19069       613  ECLIPA    H59S           -4.2839233420       31.8527390634        5.0825555512  LPSA18    1               0.0000000000
     19070       613  ECLIPA    C510           -3.9414213504       33.6390018275        3.6752379292  LPSA18    1               0.0000000000
     19071       613  ECLIPA    H510R          -2.8308059145       33.8856060055        3.7937959224  LPSA18    1               0.0000000000
     19072       613  ECLIPA    H510S          -4.4785277514       34.6697553413        3.4613250382  LPSA18    1               0.0000000000
     19073       613  ECLIPA    C511           -4.0614210232       32.9481256859        2.3004848829  LPSA18    1               0.0000000000
     19074       613  ECLIPA    H511R          -3.2647212523       32.1803185676        2.2679211996  LPSA18    1               0.0000000000
     19075       613  ECLIPA    H511S          -5.0280605052       32.3751861518        2.1940961976  LPSA18    1               0.0000000000
     19076       613  ECLIPA    C512           -3.8525952639       33.8360769339        1.0189424135  LPSA18    1               0.0000000000
     19077       613  ECLIPA    H512R          -4.1842840255       33.2772643434        0.0815295424  LPSA18    1               0.0000000000
     19078       613  ECLIPA    H512S          -4.4402039291       34.7577087159        1.1129704346  LPSA18    1               0.0000000000
     19079       613  ECLIPA    C513           -2.3297996265       34.1346194916        0.6457389972  LPSA18    1               0.0000000000
     19080       613  ECLIPA    H513R          -1.7455885857       33.1733572110        0.5010832175  LPSA18    1               0.0000000000
     19081       613  ECLIPA    H513S          -1.8626091637       34.6334769703        1.4088770719  LPSA18    1               0.0000000000
     19082       613  ECLIPA    C514           -2.2380175813       34.8814969482       -0.6567184026  LPSA18    1               0.0000000000
     19083       613  ECLIPA    H514R          -2.8449881337       35.7861322393       -0.6273993866  LPSA18    1               0.0000000000
     19084       613  ECLIPA    H514S          -1.2011650597       35.2218863902       -0.7024724270  LPSA18    1               0.0000000000
     19085       613  ECLIPA    H514T          -2.5566177313       34.2201678626       -1.5427815912  LPSA18    1               0.0000000000
     19086       613  ECLIPA    C33             1.1871471468       33.9228664653       14.4880792826  LPSA18    1               0.0000000000
     19087       613  ECLIPA    H33R            2.0401894612       34.5685047198       14.8828993596  LPSA18    1               0.0000000000
     19088       613  ECLIPA    O33             0.1672225244       33.9244334030       15.4699768821  LPSA18    1               0.0000000000
     19089       613  ECLIPA    HO33            0.5625604500       33.8118473515       16.2926205744  LPSA18    1               0.0000000000
     19090       613  ECLIPA    C34             0.6353352853       34.6360576147       13.2255459338  LPSA18    1               0.0000000000
     19091       613  ECLIPA    H34R           -0.1697504804       34.0463900631       12.8010908313  LPSA18    1               0.0000000000
     19092       613  ECLIPA    H34S            1.4239443828       34.6264090757       12.3772221142  LPSA18    1               0.0000000000
     19093       613  ECLIPA    C35             0.1168650090       36.0718476355       13.4256256262  LPSA18    1               0.0000000000
     19094       613  ECLIPA    H35R            0.9626976986       36.6996922741       13.6963698038  LPSA18    1               0.0000000000
     19095       613  ECLIPA    H35S           -0.5882947661       36.0772342186       14.2668166019  LPSA18    1               0.0000000000
     19096       613  ECLIPA    C36            -0.4573859672       36.7887007478       12.1865608177  LPSA18    1               0.0000000000
     19097       613  ECLIPA    H36R           -0.9023114605       35.8742160884       11.7430812241  LPSA18    1               0.0000000000
     19098       613  ECLIPA    H36S            0.3058001325       37.2434569565       11.4785220412  LPSA18    1               0.0000000000
     19099       613  ECLIPA    C37            -1.6345008612       37.6836513370       12.5255831563  LPSA18    1               0.0000000000
     19100       613  ECLIPA    H37R           -1.1377972370       38.7457035184       12.6765215637  LPSA18    1               0.0000000000
     19101       613  ECLIPA    H37S           -2.0734668532       37.4479917662       13.5128993321  LPSA18    1               0.0000000000
     19102       613  ECLIPA    C38            -2.7288104740       37.8290629778       11.4317274953  LPSA18    1               0.0000000000
     19103       613  ECLIPA    H38R           -3.4362557613       36.9835759168       11.4067421357  LPSA18    1               0.0000000000
     19104       613  ECLIPA    H38S           -3.3660973005       38.6835482503       11.7230999881  LPSA18    1               0.0000000000
     19105       613  ECLIPA    C39            -2.1154746124       37.9427574242       10.0213367345  LPSA18    1               0.0000000000
     19106       613  ECLIPA    H39R           -1.4347500629       37.0751069936        9.8128797222  LPSA18    1               0.0000000000
     19107       613  ECLIPA    H39S           -1.6250157422       38.9509114865        9.9697980947  LPSA18    1               0.0000000000
     19108       613  ECLIPA    C310           -3.1048971533       38.0334184990        8.8401719124  LPSA18    1               0.0000000000
     19109       613  ECLIPA    H310R          -3.6621255317       39.0183877275        9.0626900142  LPSA18    1               0.0000000000
     19110       613  ECLIPA    H310S          -3.8394697113       37.1776379220        8.8945759064  LPSA18    1               0.0000000000
     19111       613  ECLIPA    C311           -2.4460261809       37.7583302054        7.5676235846  LPSA18    1               0.0000000000
     19112       613  ECLIPA    H311R          -1.4230354747       38.2131904798        7.5507520616  LPSA18    1               0.0000000000
     19113       613  ECLIPA    H311S          -2.3194461973       36.6676940833        7.2851462164  LPSA18    1               0.0000000000
     19114       613  ECLIPA    C312           -3.2290422022       38.2444915991        6.3280121142  LPSA18    1               0.0000000000
     19115       613  ECLIPA    H312R          -4.3313937196       38.1326322180        6.4861373960  LPSA18    1               0.0000000000
     19116       613  ECLIPA    H312S          -2.9898149966       39.3277693258        6.1820758986  LPSA18    1               0.0000000000
     19117       613  ECLIPA    C313           -2.8474403767       37.5325368656        4.9895779706  LPSA18    1               0.0000000000
     19118       613  ECLIPA    H313R          -1.8971013919       37.9177504966        4.7825120466  LPSA18    1               0.0000000000
     19119       613  ECLIPA    H313S          -2.7560440248       36.4229819736        5.1572698764  LPSA18    1               0.0000000000
     19120       613  ECLIPA    C314           -3.7351359759       37.7656176749        3.8116661598  LPSA18    1               0.0000000000
     19121       613  ECLIPA    H314R          -3.7935329069       38.8692416074        3.6067793993  LPSA18    1               0.0000000000
     19122       613  ECLIPA    H314S          -3.4447150983       37.2638311409        2.8849361441  LPSA18    1               0.0000000000
     19123       613  ECLIPA    H314T          -4.8105456836       37.4446836617        4.0446347774  LPSA18    1               0.0000000000
     19124       613  ECLIPA    C11            -2.3561693728       29.3121202393       11.2900808200  LPSA18    1               0.0000000000
     19125       613  ECLIPA    O11            -3.4467752440       29.8489884363       11.1394597694  LPSA18    1               0.0000000000
     19126       613  ECLIPA    C12            -2.0140724816       28.1722115329       10.2853014675  LPSA18    1               0.0000000000
     19127       613  ECLIPA    H12R           -2.6287825360       27.2577415190       10.4852637814  LPSA18    1               0.0000000000
     19128       613  ECLIPA    H12S           -0.9386151299       27.9560214181       10.5222272274  LPSA18    1               0.0000000000
     19129       613  ECLIPA    C13            -2.1402752304       28.5324064592        8.8110583416  LPSA18    1               0.0000000000
     19130       613  ECLIPA    H13R           -3.1009983981       29.1314801927        8.5839874118  LPSA18    1               0.0000000000
     19131       613  ECLIPA    O13            -2.2621431191       27.2558816213        8.1311342176  LPSA18    1               0.0000000000
     19132       613  ECLIPA    HO13           -2.6967376732       27.3722482311        7.3064966676  LPSA18    1               0.0000000000
     19133       613  ECLIPA    C14            -0.9385295787       29.3774017718        8.4581579993  LPSA18    1               0.0000000000
     19134       613  ECLIPA    H14R            0.0234360512       29.0081201796        8.9706443184  LPSA18    1               0.0000000000
     19135       613  ECLIPA    H14S           -1.1854256185       30.4263028751        8.7243868424  LPSA18    1               0.0000000000
     19136       613  ECLIPA    C15            -0.6141777903       29.4073651625        6.9526486677  LPSA18    1               0.0000000000
     19137       613  ECLIPA    H15R           -0.5488657800       28.4102901060        6.5500123177  LPSA18    1               0.0000000000
     19138       613  ECLIPA    H15S            0.3327426040       29.9445212969        6.8782608049  LPSA18    1               0.0000000000
     19139       613  ECLIPA    C16            -1.7311837934       30.1338742205        6.1622847334  LPSA18    1               0.0000000000
     19140       613  ECLIPA    H16R           -1.6457983056       31.2761089168        6.2733383262  LPSA18    1               0.0000000000
     19141       613  ECLIPA    H16S           -2.6735635744       29.9902151884        6.7182496574  LPSA18    1               0.0000000000
     19142       613  ECLIPA    C17            -1.7555526569       29.7672882550        4.6801229578  LPSA18    1               0.0000000000
     19143       613  ECLIPA    H17R           -0.6526224581       29.8109768924        4.4246758429  LPSA18    1               0.0000000000
     19144       613  ECLIPA    H17S           -2.2553743722       30.4693496682        4.0046542873  LPSA18    1               0.0000000000
     19145       613  ECLIPA    C18            -2.3256539618       28.3941605248        4.4504458171  LPSA18    1               0.0000000000
     19146       613  ECLIPA    H18R           -1.7267171822       27.7985269536        5.0865821920  LPSA18    1               0.0000000000
     19147       613  ECLIPA    H18S           -3.4053696699       28.4097646590        4.7749867078  LPSA18    1               0.0000000000
     19148       613  ECLIPA    C19            -2.2233363304       27.9593779984        3.0097966450  LPSA18    1               0.0000000000
     19149       613  ECLIPA    H19R           -2.5297178689       26.9263109144        2.9245509529  LPSA18    1               0.0000000000
     19150       613  ECLIPA    H19S           -1.1578850707       28.0820520046        2.6238151240  LPSA18    1               0.0000000000
     19151       613  ECLIPA    C110           -3.1940158695       28.7568344808        2.1045801788  LPSA18    1               0.0000000000
     19152       613  ECLIPA    H110R          -4.2311838671       28.7951202409        2.4416701971  LPSA18    1               0.0000000000
     19153       613  ECLIPA    H110S          -2.7163567052       29.7598565000        2.1583327743  LPSA18    1               0.0000000000
     19154       613  ECLIPA    C111           -3.1008785353       28.2270661177        0.7563571155  LPSA18    1               0.0000000000
     19155       613  ECLIPA    H111R          -2.0568754057       28.0022962879        0.3999767799  LPSA18    1               0.0000000000
     19156       613  ECLIPA    H111S          -3.5632640853       27.2752413216        0.7977177860  LPSA18    1               0.0000000000
     19157       613  ECLIPA    C112           -3.8513345200       29.0610912202       -0.2937360943  LPSA18    1               0.0000000000
     19158       613  ECLIPA    H112R          -4.8593844930       29.0753873202        0.1973446929  LPSA18    1               0.0000000000
     19159       613  ECLIPA    H112S          -3.5897612204       30.1195227022       -0.2177998937  LPSA18    1               0.0000000000
     19160       613  ECLIPA    C113           -3.5841827955       28.6361815109       -1.7468031795  LPSA18    1               0.0000000000
     19161       613  ECLIPA    H113R          -2.5169892701       28.8570943490       -1.9802017524  LPSA18    1               0.0000000000
     19162       613  ECLIPA    H113S          -3.6499641903       27.5486956592       -1.8531093719  LPSA18    1               0.0000000000
     19163       613  ECLIPA    C114           -4.5081002909       29.1229700914       -2.8344928043  LPSA18    1               0.0000000000
     19164       613  ECLIPA    H114R          -5.5881030026       29.0154081688       -2.7829422503  LPSA18    1               0.0000000000
     19165       613  ECLIPA    H114S          -4.3475373181       30.2257338696       -2.9951089580  LPSA18    1               0.0000000000
     19166       613  ECLIPA    H114T          -4.3572198362       28.5033615762       -3.7399523103  LPSA18    1               0.0000000000
     19167       614  AKDO      C1             -4.0527713116       35.1704698187       22.4410509549  LPSA18    2               0.0000000000
     19168       614  AKDO      O11            -4.9276139191       36.1018058681       22.4913720772  LPSA18    2               0.0000000000
     19169       614  AKDO      O12            -2.8428764195       35.2060387916       22.0800765534  LPSA18    2               0.0000000000
     19170       614  AKDO      C2             -4.5501695155       33.7932912983       22.8913181237  LPSA18    2               0.0000000000
     19171       614  AKDO      C6             -6.4419628978       32.7018036727       23.8039205188  LPSA18    2               0.0000000000
     19172       614  AKDO      H6             -6.5123282530       32.0818693465       22.9487387861  LPSA18    2               0.0000000000
     19173       614  AKDO      O6             -5.8143588686       33.9928005699       23.4267274814  LPSA18    2               0.0000000000
     19174       614  AKDO      C3             -3.7208242672       33.1930537047       23.9587385105  LPSA18    2               0.0000000000
     19175       614  AKDO      H31            -3.5461317903       33.8119785325       24.7868435866  LPSA18    2               0.0000000000
     19176       614  AKDO      H32            -2.7024207238       32.8901713380       23.4151264596  LPSA18    2               0.0000000000
     19177       614  AKDO      C4             -4.3125906140       31.8521781729       24.3842593775  LPSA18    2               0.0000000000
     19178       614  AKDO      H4             -4.4663031285       31.1822568758       23.5563617270  LPSA18    2               0.0000000000
     19179       614  AKDO      O4             -3.4541100750       31.2389565534       25.3355834555  LPSA18    2               0.0000000000
     19180       614  AKDO      C5             -5.6642607265       31.9701787532       24.9292437177  LPSA18    2               0.0000000000
     19181       614  AKDO      H5             -6.1468414532       30.9606364391       25.0107888161  LPSA18    2               0.0000000000
     19182       614  AKDO      O5             -5.5778809340       32.7302865709       26.2083878813  LPSA18    2               0.0000000000
     19183       614  AKDO      C7             -7.9812645943       32.8667291844       24.1981149098  LPSA18    2               0.0000000000
     19184       614  AKDO      H7             -8.0331752490       33.4823160307       25.0939202098  LPSA18    2               0.0000000000
     19185       614  AKDO      O7             -8.6406795571       31.5817952093       24.3482682347  LPSA18    2               0.0000000000
     19186       614  AKDO      HO7            -8.7870247847       31.2751355681       23.4945166536  LPSA18    2               0.0000000000
     19187       614  AKDO      C8             -8.6569713283       33.5951308645       22.9864433882  LPSA18    2               0.0000000000
     19188       614  AKDO      H81            -8.1155883209       34.5688178635       22.9153150275  LPSA18    2               0.0000000000
     19189       614  AKDO      H82            -8.5246289442       32.9028547943       22.0745354517  LPSA18    2               0.0000000000
     19190       614  AKDO      O8            -10.0776188816       33.8461157737       23.3537996748  LPSA18    2               0.0000000000
     19191       614  AKDO      HO8           -10.3594284247       34.6919335086       22.9179804014  LPSA18    2               0.0000000000
     19192       615  AKDO      C1             -2.6731317301       29.6069656737       23.8027969005  LPSA18    3               1.0000000000
     19193       615  AKDO      O11            -2.3040345774       29.9754976751       22.6471489042  LPSA18    3               1.0000000000
     19194       615  AKDO      O12            -3.3062248620       28.5568089024       24.0656860145  LPSA18    3               1.0000000000
     19195       615  AKDO      C2             -2.3227429233       30.4558469536       25.0166033796  LPSA18    3               1.0000000000
     19196       615  AKDO      C6             -0.8937092942       32.2366853041       25.7688829792  LPSA18    3               1.0000000000
     19197       615  AKDO      H6             -1.7873850087       32.9093697616       25.9810553331  LPSA18    3               1.0000000000
     19198       615  AKDO      O6             -1.1991944303       31.3526806081       24.7076657818  LPSA18    3               1.0000000000
     19199       615  AKDO      C3             -1.9904006466       29.6793057174       26.3187707743  LPSA18    3               1.0000000000
     19200       615  AKDO      H31            -1.0473316446       29.0127523049       26.1504935106  LPSA18    3               1.0000000000
     19201       615  AKDO      H32            -2.8119945498       29.0032324680       26.5929217108  LPSA18    3               1.0000000000
     19202       615  AKDO      C4             -1.7017763001       30.6852736323       27.4036122013  LPSA18    3               1.0000000000
     19203       615  AKDO      H4             -2.5272401002       31.4036935723       27.4051754129  LPSA18    3               1.0000000000
     19204       615  AKDO      O4             -1.5766859347       30.1741042098       28.7388570077  LPSA18    3               1.0000000000
     19205       615  AKDO      HO4            -2.1792481301       30.5452693272       29.3717785514  LPSA18    3               1.0000000000
     19206       615  AKDO      C5             -0.5914866548       31.4804123809       27.0369167275  LPSA18    3               1.0000000000
     19207       615  AKDO      H5             -0.3305959506       32.1726346873       27.9236884022  LPSA18    3               1.0000000000
     19208       615  AKDO      O5              0.5789399203       30.6627289103       26.8495261943  LPSA18    3               1.0000000000
     19209       615  AKDO      HO5             0.4172793730       30.0215700221       26.1887877298  LPSA18    3               1.0000000000
     19210       615  AKDO      C7              0.2716079700       33.0853948469       25.3258859863  LPSA18    3               1.0000000000
     19211       615  AKDO      H7              1.1901609687       32.4579050217       25.1324849511  LPSA18    3               1.0000000000
     19212       615  AKDO      O7              0.5501044650       34.0625468385       26.3661029982  LPSA18    3               1.0000000000
     19213       615  AKDO      HO7             1.4045657677       34.4994111610       26.1647669547  LPSA18    3               1.0000000000
     19214       615  AKDO      C8             -0.1725449356       33.8574069065       24.1539635864  LPSA18    3               1.0000000000
     19215       615  AKDO      H81            -0.4729864598       33.1822303428       23.3419478721  LPSA18    3               1.0000000000
     19216       615  AKDO      H82            -1.0036824112       34.5665467045       24.2853144505  LPSA18    3               1.0000000000
     19217       615  AKDO      O8              0.8976104061       34.6273201063       23.6541307456  LPSA18    3               1.0000000000
     19218       615  AKDO      HO8             1.3784049467       33.8821965538       23.2473452835  LPSA18    3               1.0000000000
     19219       616  AHEP      C1             -6.4424384856       32.3877410639       27.2793229502  LPSA18    4               2.0000000000
     19220       616  AHEP      H1             -7.3291331908       32.9605715417       26.8517192453  LPSA18    4               2.0000000000
     19221       616  AHEP      C5             -5.9081864783       30.1426677164       28.0185271385  LPSA18    4               2.0000000000
     19222       616  AHEP      H5             -4.8754959807       30.4028353498       27.5619054335  LPSA18    4               2.0000000000
     19223       616  AHEP      O5             -6.8417120882       31.0198465934       27.3942805697  LPSA18    4               2.0000000000
     19224       616  AHEP      C2             -6.2689523261       32.9098428308       28.6827861277  LPSA18    4               2.0000000000
     19225       616  AHEP      H2             -5.9167502760       33.9454917674       28.7442425996  LPSA18    4               2.0000000000
     19226       616  AHEP      O2             -7.4835611772       32.8751974256       29.3407203943  LPSA18    4               2.0000000000
     19227       616  AHEP      HO2            -7.5851664671       33.6564194134       29.8507927467  LPSA18    4               2.0000000000
     19228       616  AHEP      C3             -5.2758208360       32.0456310510       29.4857672188  LPSA18    4               2.0000000000
     19229       616  AHEP      H3             -4.2146224150       32.1639146937       29.2269906369  LPSA18    4               2.0000000000
     19230       616  AHEP      O3             -5.2780227102       32.4295481771       30.7882097304  LPSA18    4               2.0000000000
     19231       616  AHEP      C4             -5.7298342178       30.6088249639       29.4546205599  LPSA18    4               2.0000000000
     19232       616  AHEP      H4             -6.6944393282       30.3937176248       29.9788637739  LPSA18    4               2.0000000000
     19233       616  AHEP      O4             -4.7332019297       29.8055151316       30.0145912217  LPSA18    4               2.0000000000
     19234       616  AHEP      P4             -4.8988933716       29.0743562955       31.4978499249  LPSA18    4               2.0000000000
     19235       616  AHEP      OP42           -3.5773239307       29.0180807124       32.1560374192  LPSA18    4               2.0000000000
     19236       616  AHEP      OP43           -5.3806921244       27.7292834686       31.0397938518  LPSA18    4               2.0000000000
     19237       616  AHEP      OP44           -6.0233042547       29.7901053766       32.3098937101  LPSA18    4               2.0000000000
     19238       616  AHEP      C6             -6.2909958682       28.6349755563       27.7982482844  LPSA18    4               2.0000000000
     19239       616  AHEP      H6             -5.3689573209       28.0426032385       28.0833143566  LPSA18    4               2.0000000000
     19240       616  AHEP      O6             -7.3480412404       28.3256979365       28.7103505027  LPSA18    4               2.0000000000
     19241       616  AHEP      HO6            -7.1675510830       27.4911582236       29.2203787365  LPSA18    4               2.0000000000
     19242       616  AHEP      C7             -6.6545722851       28.2828830921       26.3054198206  LPSA18    4               2.0000000000
     19243       616  AHEP      H71            -6.7599989040       27.1568069698       26.1576126064  LPSA18    4               2.0000000000
     19244       616  AHEP      H72            -5.9271779521       28.7794571225       25.6323487339  LPSA18    4               2.0000000000
     19245       616  AHEP      O7             -7.9407954932       28.7989107531       25.9755159574  LPSA18    4               2.0000000000
     19246       616  AHEP      HO7            -8.6031842459       28.1822417109       26.3256794122  LPSA18    4               2.0000000000
     19247       617  AHEP      C1             -4.0783068302       32.9128654822       31.4342177374  LPSA18    5               3.0000000000
     19248       617  AHEP      H1             -3.1583004812       32.4603718400       30.9794447437  LPSA18    5               3.0000000000
     19249       617  AHEP      C5             -5.0291953233       35.0434438977       31.9165413065  LPSA18    5               3.0000000000
     19250       617  AHEP      H5             -6.0132505058       34.5544328260       31.6031509785  LPSA18    5               3.0000000000
     19251       617  AHEP      O5             -3.9603894706       34.3412555761       31.3013865768  LPSA18    5               3.0000000000
     19252       617  AHEP      C2             -4.0145125004       32.6246711305       32.9718957084  LPSA18    5               3.0000000000
     19253       617  AHEP      H2             -4.1754732432       31.5050899771       33.0921707216  LPSA18    5               3.0000000000
     19254       617  AHEP      O2             -2.7312319870       32.9550949847       33.4691025827  LPSA18    5               3.0000000000
     19255       617  AHEP      HO2            -2.2315135945       32.1631605770       33.6403503244  LPSA18    5               3.0000000000
     19256       617  AHEP      C3             -5.1749311369       33.3337319109       33.7004304811  LPSA18    5               3.0000000000
     19257       617  AHEP      H3             -6.1417755862       32.9678389665       33.3375632548  LPSA18    5               3.0000000000
     19258       617  AHEP      O3             -5.2182662103       33.1705475226       35.1462238331  LPSA18    5               3.0000000000
     19259       617  AHEP      C4             -5.0074738662       34.7934848731       33.4524658705  LPSA18    5               3.0000000000
     19260       617  AHEP      H4             -4.0238629708       35.1763603736       33.8188816395  LPSA18    5               3.0000000000
     19261       617  AHEP      O4             -6.1245878058       35.4905066878       34.0881196202  LPSA18    5               3.0000000000
     19262       617  AHEP      P4             -5.8692911629       36.5171054472       35.2810123301  LPSA18    5               3.0000000000
     19263       617  AHEP      OP42           -7.2364440306       36.8659015798       35.8202965042  LPSA18    5               3.0000000000
     19264       617  AHEP      OP43           -5.1802343649       37.7350892405       34.6107506294  LPSA18    5               3.0000000000
     19265       617  AHEP      OP44           -4.9271666426       35.8411300619       36.2417033353  LPSA18    5               3.0000000000
     19266       617  AHEP      C6             -5.0713866389       36.5347813868       31.5493607386  LPSA18    5               3.0000000000
     19267       617  AHEP      H6             -5.9692150103       37.0317439221       31.9533288164  LPSA18    5               3.0000000000
     19268       617  AHEP      O6             -3.9108767860       37.1952186434       32.0428602265  LPSA18    5               3.0000000000
     19269       617  AHEP      HO6            -3.0694419025       37.0417531897       31.5367188277  LPSA18    5               3.0000000000
     19270       617  AHEP      C7             -5.2908521557       36.6903348784       30.0822725317  LPSA18    5               3.0000000000
     19271       617  AHEP      H71            -5.8897829021       37.6126811866       29.9169108581  LPSA18    5               3.0000000000
     19272       617  AHEP      H72            -5.8493869752       35.8560002837       29.6179339851  LPSA18    5               3.0000000000
     19273       617  AHEP      O7             -3.9980096235       36.9502402933       29.4957736452  LPSA18    5               3.0000000000
     19274       618  AHEP      C1             -3.4666723143       35.8677446114       28.7926622005  LPSA18    6               4.0000000000
     19275       618  AHEP      H1             -4.0421887604       34.9097750935       29.0422981953  LPSA18    6               4.0000000000
     19276       618  AHEP      C5             -2.8549543485       37.2205225652       26.9237617191  LPSA18    6               4.0000000000
     19277       618  AHEP      H5             -3.2274442363       38.0907819852       27.4818042043  LPSA18    6               4.0000000000
     19278       618  AHEP      O5             -3.5424327508       36.0353457298       27.3547530115  LPSA18    6               4.0000000000
     19279       618  AHEP      C2             -2.0477498160       35.6498322050       29.2397872647  LPSA18    6               4.0000000000
     19280       618  AHEP      H2             -2.0797465025       35.4428658760       30.3523091474  LPSA18    6               4.0000000000
     19281       618  AHEP      O2             -1.4973294687       34.4641481629       28.7267108980  LPSA18    6               4.0000000000
     19282       618  AHEP      HO2            -1.4509364308       33.8911636456       29.4669064354  LPSA18    6               4.0000000000
     19283       618  AHEP      C3             -1.2290345524       36.9050991227       28.8468391403  LPSA18    6               4.0000000000
     19284       618  AHEP      H3             -1.6316795499       37.7417718471       29.4311808254  LPSA18    6               4.0000000000
     19285       618  AHEP      O3              0.2312402993       36.8162256285       29.2225362108  LPSA18    6               4.0000000000
     19286       618  AHEP      HO3             0.4940649778       37.2538018509       29.9865592523  LPSA18    6               4.0000000000
     19287       618  AHEP      C4             -1.3741070814       37.0643518516       27.2761740859  LPSA18    6               4.0000000000
     19288       618  AHEP      H4             -0.8339460083       36.2615091949       26.7944950683  LPSA18    6               4.0000000000
     19289       618  AHEP      O4             -0.6748546863       38.2216559773       26.7938835778  LPSA18    6               4.0000000000
     19290       618  AHEP      HO4            -1.2573132242       38.9930136966       27.1589530594  LPSA18    6               4.0000000000
     19291       618  AHEP      C6             -3.1213128667       37.5730722849       25.4906533340  LPSA18    6               4.0000000000
     19292       618  AHEP      H6             -2.6300487260       38.5287634666       25.3442628137  LPSA18    6               4.0000000000
     19293       618  AHEP      O6             -2.4036951908       36.6791572431       24.6375675438  LPSA18    6               4.0000000000
     19294       618  AHEP      HO6            -2.9891572334       36.2635873978       23.9977784313  LPSA18    6               4.0000000000
     19295       618  AHEP      C7             -4.5758446575       37.7745708380       25.1799756221  LPSA18    6               4.0000000000
     19296       618  AHEP      H71            -4.6401640130       38.1970375977       24.1408078076  LPSA18    6               4.0000000000
     19297       618  AHEP      H72            -4.9470189691       38.5005632643       25.9252229174  LPSA18    6               4.0000000000
     19298       618  AHEP      O7             -5.3418667445       36.6085041274       25.2517430265  LPSA18    6               4.0000000000
     19299       618  AHEP      HO7            -5.5672083190       36.5283333093       26.2011285002  LPSA18    6               4.0000000000
     19300       619  AGLC      C1             -5.9123486126       32.0393969796       35.6520976122  LPSA18    7               4.0000000000
     19301       619  AGLC      H1             -6.9653967806       32.0210590223       35.2047739589  LPSA18    7               4.0000000000
     19302       619  AGLC      C5             -4.0225374024       30.7002338566       36.0987679218  LPSA18    7               4.0000000000
     19303       619  AGLC      H5             -3.3397780016       31.5199707706       35.8327124756  LPSA18    7               4.0000000000
     19304       619  AGLC      O5             -5.2362654047       30.8343392051       35.4366254460  LPSA18    7               4.0000000000
     19305       619  AGLC      C2             -6.1043837073       32.1333324377       37.1582745954  LPSA18    7               4.0000000000
     19306       619  AGLC      H2             -6.6056467854       31.1537283754       37.4887389927  LPSA18    7               4.0000000000
     19307       619  AGLC      O2             -7.1107747305       33.1053407035       37.5024056006  LPSA18    7               4.0000000000
     19308       619  AGLC      HO2            -6.6340525804       33.9202644850       37.6430208865  LPSA18    7               4.0000000000
     19309       619  AGLC      C3             -4.9205377904       32.0532058493       37.9903802326  LPSA18    7               4.0000000000
     19310       619  AGLC      H3             -4.3185729567       32.9055217101       37.6727250444  LPSA18    7               4.0000000000
     19311       619  AGLC      O3             -5.0906223140       32.2724585631       39.4204481292  LPSA18    7               4.0000000000
     19312       619  AGLC      C4             -4.3002141590       30.7455935553       37.5928595998  LPSA18    7               4.0000000000
     19313       619  AGLC      H4             -4.9514667232       29.8677520106       37.9560286200  LPSA18    7               4.0000000000
     19314       619  AGLC      O4             -3.0017391271       30.7435543841       38.2243117391  LPSA18    7               4.0000000000
     19315       619  AGLC      HO4            -2.7734221054       29.9265769272       38.6132003238  LPSA18    7               4.0000000000
     19316       619  AGLC      C6             -3.2429253762       29.4908221059       35.5245160098  LPSA18    7               4.0000000000
     19317       619  AGLC      H61            -3.2177017296       29.6298333038       34.4135318240  LPSA18    7               4.0000000000
     19318       619  AGLC      H62            -2.1999940614       29.3304188864       35.8722646349  LPSA18    7               4.0000000000
     19319       619  AGLC      O6             -4.0817151967       28.3071269161       35.6892983147  LPSA18    7               4.0000000000
     19320       619  AGLC      HO6            -3.6851893903       27.9507188724       36.4386090630  LPSA18    7               4.0000000000
     19321       620  AGLC      C1             -4.5005667099       33.4140307181       39.9328324507  LPSA18    8               5.0000000000
     19322       620  AGLC      H1             -3.4541305836       33.4859114064       39.5884769495  LPSA18    8               5.0000000000
     19323       620  AGLC      C5             -6.5226685173       34.8265723850       40.2153373402  LPSA18    8               5.0000000000
     19324       620  AGLC      H5             -7.1257419332       33.9909383764       39.8400606936  LPSA18    8               5.0000000000
     19325       620  AGLC      O5             -5.2065324917       34.6631560813       39.6195505863  LPSA18    8               5.0000000000
     19326       620  AGLC      C2             -4.4158148123       33.3478569150       41.4170311384  LPSA18    8               5.0000000000
     19327       620  AGLC      H2             -3.7770291118       34.2288241361       41.6529594578  LPSA18    8               5.0000000000
     19328       620  AGLC      O2             -3.6312155202       32.2840160552       41.9438754185  LPSA18    8               5.0000000000
     19329       620  AGLC      C3             -5.7155446650       33.4537191282       42.1297388169  LPSA18    8               5.0000000000
     19330       620  AGLC      H3             -6.2380957023       32.5664744085       41.6567950186  LPSA18    8               5.0000000000
     19331       620  AGLC      O3             -5.5248306169       33.2661324112       43.5370978028  LPSA18    8               5.0000000000
     19332       620  AGLC      C4             -6.3100942006       34.7304824937       41.7603093222  LPSA18    8               5.0000000000
     19333       620  AGLC      H4             -5.6694593131       35.5461882012       42.0401368658  LPSA18    8               5.0000000000
     19334       620  AGLC      O4             -7.5563148060       34.9082359790       42.3914819843  LPSA18    8               5.0000000000
     19335       620  AGLC      HO4            -8.0040287045       34.0979199232       42.3800652601  LPSA18    8               5.0000000000
     19336       620  AGLC      C6             -7.3456311226       36.0455109121       39.7357334439  LPSA18    8               5.0000000000
     19337       620  AGLC      H61            -7.3293333092       36.1982211980       38.6468043611  LPSA18    8               5.0000000000
     19338       620  AGLC      H62            -8.3792747375       36.0365814501       40.0276014644  LPSA18    8               5.0000000000
     19339       620  AGLC      O6             -6.9507431721       37.2592848964       40.3040784562  LPSA18    8               5.0000000000
     19340       620  AGLC      HO6            -7.2931703354       37.3747861489       41.2121845210  LPSA18    8               5.0000000000
     19341       621  AGAL      C1             -2.3399531386       32.0751304261       41.4573847493  LPSA18    9               6.0000000000
     19342       621  AGAL      H1             -2.3365614647       32.1230913108       40.3420235153  LPSA18    9               6.0000000000
     19343       621  AGAL      C5             -1.0759188059       32.9461004242       43.2125447641  LPSA18    9               6.0000000000
     19344       621  AGAL      H5             -2.1074407781       32.9459414800       43.7424973645  LPSA18    9               6.0000000000
     19345       621  AGAL      O5             -1.2968113198       33.0218428762       41.8451689838  LPSA18    9               6.0000000000
     19346       621  AGAL      C2             -1.9139374670       30.6823564824       41.8393925249  LPSA18    9               6.0000000000
     19347       621  AGAL      H2             -0.9425976759       30.4794391198       41.4115621152  LPSA18    9               6.0000000000
     19348       621  AGAL      O2             -2.6874402950       29.6749040770       41.1608705954  LPSA18    9               6.0000000000
     19349       621  AGAL      C3             -1.6625049749       30.5595448317       43.3264191845  LPSA18    9               6.0000000000
     19350       621  AGAL      H3             -2.6517443218       30.7125113694       43.9424563891  LPSA18    9               6.0000000000
     19351       621  AGAL      O3             -1.3581628458       29.2645066203       43.7491515633  LPSA18    9               6.0000000000
     19352       621  AGAL      HO3            -1.8470196819       28.6727492960       43.1585960960  LPSA18    9               6.0000000000
     19353       621  AGAL      C4             -0.6152415161       31.5478835066       43.6505755014  LPSA18    9               6.0000000000
     19354       621  AGAL      H4             -0.4126028106       31.6275481607       44.7734818408  LPSA18    9               6.0000000000
     19355       621  AGAL      O4              0.6216675935       31.3173107789       43.0499075873  LPSA18    9               6.0000000000
     19356       621  AGAL      HO4             1.2913915570       31.6593032802       43.6622427513  LPSA18    9               6.0000000000
     19357       621  AGAL      C6             -0.3940879212       34.1654073381       43.8349081587  LPSA18    9               6.0000000000
     19358       621  AGAL      H61            -0.9341710962       35.1279701639       43.6417203355  LPSA18    9               6.0000000000
     19359       621  AGAL      H62            -0.3217312117       34.1420465612       44.9292747136  LPSA18    9               6.0000000000
     19360       621  AGAL      O6              0.9288470623       34.2846747428       43.4062227539  LPSA18    9               6.0000000000
     19361       621  AGAL      HO6             0.9361243994       34.9487149190       42.6923548993  LPSA18    9               6.0000000000
     19362       622  AGAL      C1             -3.3316339149       28.5218113012       41.7517281777  LPSA18    10              7.0000000000
     19363       622  AGAL      H1             -2.5098082182       27.7989014389       41.8429972083  LPSA18    10              7.0000000000
     19364       622  AGAL      C5             -5.1256772511       29.4474103024       43.0613392294  LPSA18    10              7.0000000000
     19365       622  AGAL      H5             -4.7727995200       30.4829309235       42.6233508762  LPSA18    10              7.0000000000
     19366       622  AGAL      O5             -3.9919271311       28.5589296594       43.0470213554  LPSA18    10              7.0000000000
     19367       622  AGAL      C2             -4.3679960511       28.0339662344       40.7227968417  LPSA18    10              7.0000000000
     19368       622  AGAL      H2             -4.6185715659       26.9493794628       41.0433947026  LPSA18    10              7.0000000000
     19369       622  AGAL      O2             -3.8110935515       27.6158616932       39.5532095562  LPSA18    10              7.0000000000
     19370       622  AGAL      HO2            -4.0868388127       26.7331913392       39.3379401176  LPSA18    10              7.0000000000
     19371       622  AGAL      C3             -5.5752360184       28.9015431089       40.6928251787  LPSA18    10              7.0000000000
     19372       622  AGAL      H3             -5.1695580722       29.8858153097       40.4679648945  LPSA18    10              7.0000000000
     19373       622  AGAL      O3             -6.5572469653       28.5286755561       39.7732034444  LPSA18    10              7.0000000000
     19374       622  AGAL      HO3            -6.5151379069       29.1625138332       39.0151094934  LPSA18    10              7.0000000000
     19375       622  AGAL      C4             -6.1851051375       28.9350351863       42.0524071915  LPSA18    10              7.0000000000
     19376       622  AGAL      H4             -7.0258274458       29.6531028646       42.1099272557  LPSA18    10              7.0000000000
     19377       622  AGAL      O4             -6.6701156709       27.7014263633       42.4965010455  LPSA18    10              7.0000000000
     19378       622  AGAL      HO4            -5.8981760997       27.1691774148       42.5675127347  LPSA18    10              7.0000000000
     19379       622  AGAL      C6             -5.7120294893       29.7799422959       44.3959537205  LPSA18    10              7.0000000000
     19380       622  AGAL      H61            -4.9603333838       30.1142977702       45.1044438806  LPSA18    10              7.0000000000
     19381       622  AGAL      H62            -6.4145739559       30.7364541393       44.2564473849  LPSA18    10              7.0000000000
     19382       622  AGAL      O6             -6.4998380490       28.8048044985       45.1112340130  LPSA18    10              7.0000000000
     19383       622  AGAL      HO6            -6.0162645091       28.5690304974       45.9237589285  LPSA18    10              7.0000000000
     19384       623  BGLC      C1             -5.3504874097       34.2880814412       44.5018065681  LPSA18    11              6.0000000000
     19385       623  BGLC      H1             -6.3483263044       34.6919685204       44.5883763758  LPSA18    11              6.0000000000
     19386       623  BGLC      C5             -4.0680488087       36.3485487010       45.1248117688  LPSA18    11              6.0000000000
     19387       623  BGLC      H5             -5.0061110398       36.9523807889       45.3871201921  LPSA18    11              6.0000000000
     19388       623  BGLC      O5             -4.3122467200       35.2610113823       44.0830650888  LPSA18    11              6.0000000000
     19389       623  BGLC      C2             -4.8926875535       33.6687639646       45.7977571702  LPSA18    11              6.0000000000
     19390       623  BGLC      H2             -3.9562994835       33.0595328076       45.7293388291  LPSA18    11              6.0000000000
     19391       623  BGLC      O2             -5.8769750663       32.6872155322       46.0886391483  LPSA18    11              6.0000000000
     19392       623  BGLC      HO2            -5.4481501565       31.8751228881       46.2788110113  LPSA18    11              6.0000000000
     19393       623  BGLC      C3             -4.6317002892       34.6392891499       46.8736276645  LPSA18    11              6.0000000000
     19394       623  BGLC      H3             -5.6522201634       35.1117269060       47.1984917368  LPSA18    11              6.0000000000
     19395       623  BGLC      O3             -4.1658591930       33.9137806580       48.0056213318  LPSA18    11              6.0000000000
     19396       623  BGLC      C4             -3.6565821553       35.6177613119       46.4390836423  LPSA18    11              6.0000000000
     19397       623  BGLC      H4             -2.7077092172       35.0287043307       46.2001611147  LPSA18    11              6.0000000000
     19398       623  BGLC      O4             -3.3062714215       36.5186229647       47.4766894645  LPSA18    11              6.0000000000
     19399       623  BGLC      HO4            -2.7781232375       36.0375755046       48.1247908570  LPSA18    11              6.0000000000
     19400       623  BGLC      C6             -3.1301980887       37.4127356646       44.5291127165  LPSA18    11              6.0000000000
     19401       623  BGLC      H61            -2.6311462950       38.0481229045       45.2481190913  LPSA18    11              6.0000000000
     19402       623  BGLC      H62            -2.3899962604       36.8680539602       43.8913252379  LPSA18    11              6.0000000000
     19403       623  BGLC      O6             -3.7553640209       38.3017262514       43.5637942269  LPSA18    11              6.0000000000
     19404       623  BGLC      HO6            -3.7522019402       39.1180584756       44.0054369298  LPSA18    11              6.0000000000
     19405       624  BGLCNA    C1             -4.7410158197       34.0637974651       49.3238540420  LPSA18    12              7.0000000000
     19406       624  BGLCNA    H1             -5.6290623844       33.3485642386       49.3874222992  LPSA18    12              7.0000000000
     19407       624  BGLCNA    C5             -5.8601442731       35.5073740699       50.8763077070  LPSA18    12              7.0000000000
     19408       624  BGLCNA    H5             -6.7786924098       34.7722700691       50.9814236466  LPSA18    12              7.0000000000
     19409       624  BGLCNA    O5             -5.2015231696       35.4080426277       49.5875345322  LPSA18    12              7.0000000000
     19410       624  BGLCNA    C2             -3.6912503876       33.7110589338       50.3245054808  LPSA18    12              7.0000000000
     19411       624  BGLCNA    H2             -2.9337007327       34.6050742139       50.3375086743  LPSA18    12              7.0000000000
     19412       624  BGLCNA    N              -3.1290920820       32.3775291062       50.0347611965  LPSA18    12              7.0000000000
     19413       624  BGLCNA    HN             -3.8423872347       31.7591975197       49.9972643287  LPSA18    12              7.0000000000
     19414       624  BGLCNA    C              -1.8501208122       32.2066830419       49.8903426450  LPSA18    12              7.0000000000
     19415       624  BGLCNA    O              -1.0848365637       33.1403829001       50.0855928044  LPSA18    12              7.0000000000
     19416       624  BGLCNA    CT             -1.3850835464       30.8192169596       49.5677689528  LPSA18    12              7.0000000000
     19417       624  BGLCNA    HT1            -0.8003259899       30.3722654366       50.3918503408  LPSA18    12              7.0000000000
     19418       624  BGLCNA    HT2            -0.5757551807       30.8597231989       48.7104760971  LPSA18    12              7.0000000000
     19419       624  BGLCNA    HT3            -2.2874207475       30.2508624814       49.2316245990  LPSA18    12              7.0000000000
     19420       624  BGLCNA    C3             -4.2402868950       33.7515808165       51.6995695120  LPSA18    12              7.0000000000
     19421       624  BGLCNA    H3             -5.0712323874       32.9209406820       51.8605307917  LPSA18    12              7.0000000000
     19422       624  BGLCNA    O3             -3.2853116036       33.3699574926       52.7272334264  LPSA18    12              7.0000000000
     19423       624  BGLCNA    C4             -4.7776029116       35.1228842696       51.9591692987  LPSA18    12              7.0000000000
     19424       624  BGLCNA    H4             -3.9874258404       35.9637385902       51.9037868612  LPSA18    12              7.0000000000
     19425       624  BGLCNA    O4             -5.3277612433       35.2345521129       53.2294962294  LPSA18    12              7.0000000000
     19426       624  BGLCNA    HO4            -6.2239400066       34.7904117391       53.2834945119  LPSA18    12              7.0000000000
     19427       624  BGLCNA    C6             -6.4744123222       36.9198760496       50.9528560558  LPSA18    12              7.0000000000
     19428       624  BGLCNA    H61            -6.9008323474       37.0894878557       51.9144325068  LPSA18    12              7.0000000000
     19429       624  BGLCNA    H62            -5.6136817002       37.5677358980       50.8287962869  LPSA18    12              7.0000000000
     19430       624  BGLCNA    O6             -7.3287004013       37.1440732500       49.8597561973  LPSA18    12              7.0000000000
     19431       624  BGLCNA    HO6            -8.1669337908       36.8511474141       50.1903398796  LPSA18    12              7.0000000000
     19432       625  AGAL      C1             -3.8023585186       32.5351683067       53.8132743488  LPSA18    13              8.0000000000
     19433       625  AGAL      H1             -4.7482883660       32.9792129993       54.1959401301  LPSA18    13              8.0000000000
     19434       625  AGAL      C5             -2.5070103383       30.5697990891       53.2950732168  LPSA18    13              8.0000000000
     19435       625  AGAL      H5             -2.0252090656       31.2155318406       52.5641412600  LPSA18    13              8.0000000000
     19436       625  AGAL      O5             -3.8278979618       31.0987546227       53.4918445955  LPSA18    13              8.0000000000
     19437       625  AGAL      C2             -2.9338487180       32.5717304807       55.1010141246  LPSA18    13              8.0000000000
     19438       625  AGAL      H2             -3.2990353597       31.7853825869       55.7917211299  LPSA18    13              8.0000000000
     19439       625  AGAL      O2             -3.0098176525       33.8131261508       55.7701983428  LPSA18    13              8.0000000000
     19440       625  AGAL      C3             -1.5145002367       31.9885832822       54.8979691660  LPSA18    13              8.0000000000
     19441       625  AGAL      H3             -1.0602950438       32.4874241071       54.0477453328  LPSA18    13              8.0000000000
     19442       625  AGAL      O3             -0.6305434390       32.2878871809       55.9888739531  LPSA18    13              8.0000000000
     19443       625  AGAL      HO3             0.2455705718       32.5020380975       55.6848713412  LPSA18    13              8.0000000000
     19444       625  AGAL      C4             -1.5929837408       30.6133861447       54.5514025965  LPSA18    13              8.0000000000
     19445       625  AGAL      H4             -0.5681358077       30.2141902509       54.1954731349  LPSA18    13              8.0000000000
     19446       625  AGAL      O4             -2.1157567410       29.7941838459       55.5743212917  LPSA18    13              8.0000000000
     19447       625  AGAL      HO4            -2.8915383102       30.1261772232       56.0499681296  LPSA18    13              8.0000000000
     19448       625  AGAL      C6             -2.4351194807       29.2627491285       52.5301443486  LPSA18    13              8.0000000000
     19449       625  AGAL      H61            -3.0550345536       29.3310897053       51.6253596531  LPSA18    13              8.0000000000
     19450       625  AGAL      H62            -1.3567133368       29.0141041820       52.3684678279  LPSA18    13              8.0000000000
     19451       625  AGAL      O6             -2.9430489764       28.1915265604       53.2985910507  LPSA18    13              8.0000000000
     19452       625  AGAL      HO6            -2.2607130695       27.9148278226       53.9299633642  LPSA18    13              8.0000000000
     19453       626  ARHM      C1             -3.6489052774       33.9079796530       57.0117786358  LPSA18    14              9.0000000000
     19454       626  ARHM      H1             -4.4080277196       33.0985657597       56.9981767125  LPSA18    14              9.0000000000
     19455       626  ARHM      C5             -3.4602992756       36.2211508808       57.1930138837  LPSA18    14              9.0000000000
     19456       626  ARHM      H5             -2.8769910942       36.1964675394       56.1976867078  LPSA18    14              9.0000000000
     19457       626  ARHM      O5             -4.3231594534       35.1459793082       57.1718909996  LPSA18    14              9.0000000000
     19458       626  ARHM      C2             -2.6128812642       33.7174190967       58.1413490634  LPSA18    14              9.0000000000
     19459       626  ARHM      H2             -2.1170587834       32.7890213806       57.8875987320  LPSA18    14              9.0000000000
     19460       626  ARHM      O2             -3.1390871876       33.6854465419       59.4330148990  LPSA18    14              9.0000000000
     19461       626  ARHM      C3             -1.6394727814       34.8599999064       58.1095432995  LPSA18    14              9.0000000000
     19462       626  ARHM      H3             -1.2827274677       34.9780807108       57.0440121713  LPSA18    14              9.0000000000
     19463       626  ARHM      O3             -0.4786444324       34.6637785682       58.8567888868  LPSA18    14              9.0000000000
     19464       626  ARHM      HO3            -0.7650420149       34.7671745314       59.8104957846  LPSA18    14              9.0000000000
     19465       626  ARHM      C4             -2.4243580029       36.0985585571       58.3490442956  LPSA18    14              9.0000000000
     19466       626  ARHM      H4             -3.0213669253       36.1382180257       59.2902338481  LPSA18    14              9.0000000000
     19467       626  ARHM      O4             -1.5125529353       37.2273625702       58.4446785014  LPSA18    14              9.0000000000
     19468       626  ARHM      HO4            -1.4449955450       37.6546144765       59.2969967688  LPSA18    14              9.0000000000
     19469       626  ARHM      C6             -4.2610939274       37.5331053827       57.2492155848  LPSA18    14              9.0000000000
     19470       626  ARHM      H61            -5.1581421513       37.5773407724       56.5358243550  LPSA18    14              9.0000000000
     19471       626  ARHM      H62            -4.5261110986       37.6723877621       58.3170764683  LPSA18    14              9.0000000000
     19472       626  ARHM      H63            -3.7870585958       38.4684095249       56.9421594120  LPSA18    14              9.0000000000
     19473       627  ARHM      C1             -4.1601787461       32.8679464348       59.7267990175  LPSA18    15             10.0000000000
     19474       627  ARHM      H1             -4.1835191746       31.9898519946       59.0458905905  LPSA18    15             10.0000000000
     19475       627  ARHM      C5             -5.7207896263       34.5665807642       60.6468530148  LPSA18    15             10.0000000000
     19476       627  ARHM      H5             -5.0726553145       35.4768577138       60.4457705401  LPSA18    15             10.0000000000
     19477       627  ARHM      O5             -5.4572011193       33.5129189455       59.6688136410  LPSA18    15             10.0000000000
     19478       627  ARHM      C2             -3.9831250056       32.3186562144       61.1407671534  LPSA18    15             10.0000000000
     19479       627  ARHM      H2             -2.9046611758       31.9092242294       61.2133420761  LPSA18    15             10.0000000000
     19480       627  ARHM      O2             -4.9847839428       31.2745346632       61.3234079317  LPSA18    15             10.0000000000
     19481       627  ARHM      C3             -4.1392859970       33.4410767085       62.1677656617  LPSA18    15             10.0000000000
     19482       627  ARHM      H3             -3.4189282259       34.2503605384       61.8628392879  LPSA18    15             10.0000000000
     19483       627  ARHM      O3             -3.6115675876       32.9020212988       63.4092175029  LPSA18    15             10.0000000000
     19484       627  ARHM      C4             -5.4793190265       33.9879997004       62.0487117432  LPSA18    15             10.0000000000
     19485       627  ARHM      H4             -6.2381955263       33.1124925776       62.1496903561  LPSA18    15             10.0000000000
     19486       627  ARHM      O4             -5.8662364739       35.0168818478       62.9635513464  LPSA18    15             10.0000000000
     19487       627  ARHM      HO4            -6.8098250030       35.0743209112       62.9565205260  LPSA18    15             10.0000000000
     19488       627  ARHM      C6             -7.1236241159       35.0920618739       60.4460959132  LPSA18    15             10.0000000000
     19489       627  ARHM      H61            -7.3917521272       35.9670239095       61.0956562646  LPSA18    15             10.0000000000
     19490       627  ARHM      H62            -7.3174573826       35.2182796278       59.3910198679  LPSA18    15             10.0000000000
     19491       627  ARHM      H63            -7.9028308648       34.3907787839       60.8578185328  LPSA18    15             10.0000000000
     19492       628  BMANNA    C1             -4.9908261304       30.5036336803       62.5145562334  LPSA18    16             11.0000000000
     19493       628  BMANNA    H1             -5.3851445340       31.2019591023       63.3432051365  LPSA18    16             11.0000000000
     19494       628  BMANNA    C5             -3.8380596710       29.3163830522       64.1851548173  LPSA18    16             11.0000000000
     19495       628  BMANNA    H5             -4.2543586982       29.9489478684       64.9800677769  LPSA18    16             11.0000000000
     19496       628  BMANNA    O5             -3.7179840064       30.0107516051       62.9158851071  LPSA18    16             11.0000000000
     19497       628  BMANNA    C2             -5.9824693440       29.3405917119       62.2781089586  LPSA18    16             11.0000000000
     19498       628  BMANNA    H2             -6.9409597340       29.8475513693       61.9912908466  LPSA18    16             11.0000000000
     19499       628  BMANNA    N              -5.6759688969       28.3667957197       61.2264456342  LPSA18    16             11.0000000000
     19500       628  BMANNA    HN             -5.1383858907       27.6316757977       61.5688724990  LPSA18    16             11.0000000000
     19501       628  BMANNA    C              -6.0308681259       28.4784061748       59.9704010620  LPSA18    16             11.0000000000
     19502       628  BMANNA    O              -6.7552343902       29.4254630683       59.5582221915  LPSA18    16             11.0000000000
     19503       628  BMANNA    CT             -5.5267935571       27.4022176412       59.1331689300  LPSA18    16             11.0000000000
     19504       628  BMANNA    HT1            -6.2490352395       26.6586836825       58.8344492748  LPSA18    16             11.0000000000
     19505       628  BMANNA    HT2            -4.6638654045       26.8501978516       59.5043001239  LPSA18    16             11.0000000000
     19506       628  BMANNA    HT3            -5.1840914014       27.7983609535       58.1231520073  LPSA18    16             11.0000000000
     19507       628  BMANNA    C3             -6.1295649860       28.6521784963       63.6119771117  LPSA18    16             11.0000000000
     19508       628  BMANNA    H3             -6.4946354633       29.3788665373       64.3839812837  LPSA18    16             11.0000000000
     19509       628  BMANNA    O3             -7.0837553345       27.6296759037       63.6122488842  LPSA18    16             11.0000000000
     19510       628  BMANNA    HO3            -7.7265528287       27.7691127220       64.2950500102  LPSA18    16             11.0000000000
     19511       628  BMANNA    C4             -4.7845583793       28.1030627852       64.1045846713  LPSA18    16             11.0000000000
     19512       628  BMANNA    H4             -4.3654974149       27.3479954866       63.4124605202  LPSA18    16             11.0000000000
     19513       628  BMANNA    O4             -4.7748223141       27.4394733116       65.3816866120  LPSA18    16             11.0000000000
     19514       628  BMANNA    HO4            -4.0383364938       26.8320470323       65.4353184152  LPSA18    16             11.0000000000
     19515       628  BMANNA    C6             -2.4778912334       28.8775976686       64.7427751243  LPSA18    16             11.0000000000
     19516       628  BMANNA    H61            -2.5664979883       28.8828102538       65.8875394407  LPSA18    16             11.0000000000
     19517       628  BMANNA    H62            -2.2337961777       27.8574186544       64.4389269682  LPSA18    16             11.0000000000
     19518       628  BMANNA    O6             -1.3802063622       29.7326751126       64.3660927576  LPSA18    16             11.0000000000
     19519       628  BMANNA    HO6            -0.7878512008       29.0993437958       63.9036969990  LPSA18    16             11.0000000000
     19520       629  BGLCNA    C1             -2.9185661501       33.7696031868       64.1715778089  LPSA18    17             11.0000000000
     19521       629  BGLCNA    H1             -3.2745374956       34.8463861195       63.9082176002  LPSA18    17             11.0000000000
     19522       629  BGLCNA    C5             -0.6948192313       34.7068860660       64.5563394407  LPSA18    17             11.0000000000
     19523       629  BGLCNA    H5             -1.0023752106       35.7848092895       64.2825289487  LPSA18    17             11.0000000000
     19524       629  BGLCNA    O5             -1.5148129617       33.8160496764       63.7849982893  LPSA18    17             11.0000000000
     19525       629  BGLCNA    C2             -3.0909863537       33.3659312137       65.5899343931  LPSA18    17             11.0000000000
     19526       629  BGLCNA    H2             -2.7084628599       32.3157403378       65.8249043900  LPSA18    17             11.0000000000
     19527       629  BGLCNA    N              -4.4602674059       33.2327840679       65.8849826081  LPSA18    17             11.0000000000
     19528       629  BGLCNA    HN             -5.1191820241       33.8498561315       65.4150135415  LPSA18    17             11.0000000000
     19529       629  BGLCNA    C              -5.0654004860       32.5020219997       66.8043620798  LPSA18    17             11.0000000000
     19530       629  BGLCNA    O              -4.4609803681       31.6720270027       67.4729873017  LPSA18    17             11.0000000000
     19531       629  BGLCNA    CT             -6.5181485595       32.7381109806       66.9728872304  LPSA18    17             11.0000000000
     19532       629  BGLCNA    HT1            -7.2458616681       32.0203341691       66.5529393721  LPSA18    17             11.0000000000
     19533       629  BGLCNA    HT2            -6.7154270198       33.7939511569       66.7043805047  LPSA18    17             11.0000000000
     19534       629  BGLCNA    HT3            -6.7917130488       32.7500764037       68.1408097225  LPSA18    17             11.0000000000
     19535       629  BGLCNA    C3             -2.3222887628       34.3795983822       66.4076579941  LPSA18    17             11.0000000000
     19536       629  BGLCNA    H3             -2.7830983583       35.3585948385       66.0441361901  LPSA18    17             11.0000000000
     19537       629  BGLCNA    O3             -2.6897799815       34.1785932012       67.8205355914  LPSA18    17             11.0000000000
     19538       629  BGLCNA    C4             -0.8459402017       34.2809646926       66.0496966154  LPSA18    17             11.0000000000
     19539       629  BGLCNA    H4             -0.4693649436       33.2003571581       66.1123142204  LPSA18    17             11.0000000000
     19540       629  BGLCNA    O4             -0.0276088749       35.0375162004       66.9186044206  LPSA18    17             11.0000000000
     19541       629  BGLCNA    HO4             0.9011357194       35.0403703184       66.7204061560  LPSA18    17             11.0000000000
     19542       629  BGLCNA    C6              0.7764967242       34.5636682635       64.1200051697  LPSA18    17             11.0000000000
     19543       629  BGLCNA    H61             1.2569950529       35.5225980519       64.1272946536  LPSA18    17             11.0000000000
     19544       629  BGLCNA    H62             1.3494494211       33.8817728699       64.8212395067  LPSA18    17             11.0000000000
     19545       629  BGLCNA    O6              0.9061303903       34.0361206371       62.7926115083  LPSA18    17             11.0000000000
     19546       629  BGLCNA    HO6             0.4595716969       34.6156598284       62.1856770532  LPSA18    17             11.0000000000
     19547       630  AGAL      C1             -2.7737879933       35.3859552434       68.6198653987  LPSA18    18             12.0000000000
     19548       630  AGAL      H1             -1.7152356785       35.7343160120       68.8082567594  LPSA18    18             12.0000000000
     19549       630  AGAL      C5             -4.9377134850       36.1022949042       67.8636918791  LPSA18    18             12.0000000000
     19550       630  AGAL      H5             -5.0275188652       35.1126703340       67.4068928888  LPSA18    18             12.0000000000
     19551       630  AGAL      O5             -3.5025199267       36.4127837273       67.9834320655  LPSA18    18             12.0000000000
     19552       630  AGAL      C2             -3.4907148705       35.1302604202       70.0000206359  LPSA18    18             12.0000000000
     19553       630  AGAL      H2             -3.4589301862       36.1733148147       70.3908489884  LPSA18    18             12.0000000000
     19554       630  AGAL      O2             -2.6795221256       34.3718074429       70.8342757016  LPSA18    18             12.0000000000
     19555       630  AGAL      C3             -4.9315611183       34.7782535231       69.8682924558  LPSA18    18             12.0000000000
     19556       630  AGAL      H3             -5.0245011012       33.9110464714       69.0958348126  LPSA18    18             12.0000000000
     19557       630  AGAL      O3             -5.4974109444       34.3661185535       71.0758896640  LPSA18    18             12.0000000000
     19558       630  AGAL      HO3            -6.0196640135       33.5692501448       70.9682873819  LPSA18    18             12.0000000000
     19559       630  AGAL      C4             -5.6282255291       35.8706382719       69.1634745928  LPSA18    18             12.0000000000
     19560       630  AGAL      H4             -6.6960684257       35.6798831498       68.9039691178  LPSA18    18             12.0000000000
     19561       630  AGAL      O4             -5.6393074778       37.0753025004       69.9734134928  LPSA18    18             12.0000000000
     19562       630  AGAL      HO4            -6.3205319342       36.9631159088       70.7236544006  LPSA18    18             12.0000000000
     19563       630  AGAL      C6             -5.4826642583       36.9526496107       66.8042742825  LPSA18    18             12.0000000000
     19564       630  AGAL      H61            -4.9531283239       36.6877120335       65.8877991861  LPSA18    18             12.0000000000
     19565       630  AGAL      H62            -6.5473532336       36.6276544989       66.6499463921  LPSA18    18             12.0000000000
     19566       630  AGAL      O6             -5.3579461973       38.2701379937       66.9803033045  LPSA18    18             12.0000000000
     19567       630  AGAL      HO6            -4.7766466434       38.5720973501       67.6707071977  LPSA18    18             12.0000000000
     19568       631  ARHM      C1             -2.7111769257       34.9115144452       72.1803514454  LPSA18    19             13.0000000000
     19569       631  ARHM      H1             -3.5774966513       35.5267487761       72.3185909119  LPSA18    19             13.0000000000
     19570       631  ARHM      C5             -0.3798136975       35.3392640503       72.2512180912  LPSA18    19             13.0000000000
     19571       631  ARHM      H5             -0.3370111121       34.9191223106       71.2133247196  LPSA18    19             13.0000000000
     19572       631  ARHM      O5             -1.6879855810       35.8891931279       72.4162684983  LPSA18    19             13.0000000000
     19573       631  ARHM      C2             -2.6001706587       33.7602613158       73.1100514097  LPSA18    19             13.0000000000
     19574       631  ARHM      H2             -3.2757801418       32.9614727970       72.9420985559  LPSA18    19             13.0000000000
     19575       631  ARHM      O2             -2.7764786494       34.1969183657       74.4131644751  LPSA18    19             13.0000000000
     19576       631  ARHM      C3             -1.1556428751       33.1840105470       72.9859276785  LPSA18    19             13.0000000000
     19577       631  ARHM      H3             -1.0182075337       32.8948885871       71.9471750908  LPSA18    19             13.0000000000
     19578       631  ARHM      O3             -0.9992801630       32.0530889403       73.7644258584  LPSA18    19             13.0000000000
     19579       631  ARHM      HO3            -1.3167481772       32.2768065578       74.6464134549  LPSA18    19             13.0000000000
     19580       631  ARHM      C4             -0.1110780714       34.1860327539       73.2443334127  LPSA18    19             13.0000000000
     19581       631  ARHM      H4             -0.2802093932       34.5366666240       74.2703943704  LPSA18    19             13.0000000000
     19582       631  ARHM      O4              1.1983927023       33.7171787581       73.1708570575  LPSA18    19             13.0000000000
     19583       631  ARHM      HO4             1.3374619869       33.4557543239       72.2126258713  LPSA18    19             13.0000000000
     19584       631  ARHM      C6              0.6993106251       36.4357356828       72.3031700958  LPSA18    19             13.0000000000
     19585       631  ARHM      H61             0.3568841169       37.0916780841       71.5186681997  LPSA18    19             13.0000000000
     19586       631  ARHM      H62             0.7711694427       37.0075662629       73.2001761489  LPSA18    19             13.0000000000
     19587       631  ARHM      H63             1.7059603555       36.0666143657       72.0875448643  LPSA18    19             13.0000000000
     19588       632  ARHM      C1             -4.1132960599       34.4471496741       74.6981797177  LPSA18    20             14.0000000000
     19589       632  ARHM      H1             -4.8162462432       34.0530764512       73.8936196974  LPSA18    20             14.0000000000
     19590       632  ARHM      C5             -3.8716185831       36.4473138329       75.9960310464  LPSA18    20             14.0000000000
     19591       632  ARHM      H5             -2.7779291976       36.2970725953       75.8071112250  LPSA18    20             14.0000000000
     19592       632  ARHM      O5             -4.4965906479       35.8117447848       74.8741575474  LPSA18    20             14.0000000000
     19593       632  ARHM      C2             -4.5251201308       33.6661338720       75.9438944127  LPSA18    20             14.0000000000
     19594       632  ARHM      H2             -4.1305599342       32.5768683308       75.7904987900  LPSA18    20             14.0000000000
     19595       632  ARHM      O2             -5.9451990782       33.6936906054       76.2145535291  LPSA18    20             14.0000000000
     19596       632  ARHM      C3             -3.8674499906       34.3321872818       77.0746584307  LPSA18    20             14.0000000000
     19597       632  ARHM      H3             -2.7216803748       34.2838482142       76.9570890266  LPSA18    20             14.0000000000
     19598       632  ARHM      O3             -4.1772843919       33.5322065611       78.2431898216  LPSA18    20             14.0000000000
     19599       632  ARHM      C4             -4.2657746593       35.7632096949       77.2147849866  LPSA18    20             14.0000000000
     19600       632  ARHM      H4             -5.3252941746       35.8979938510       77.2882629629  LPSA18    20             14.0000000000
     19601       632  ARHM      O4             -3.6863424770       36.2937453065       78.4294019453  LPSA18    20             14.0000000000
     19602       632  ARHM      HO4            -3.6072706239       37.1566408163       78.0714846557  LPSA18    20             14.0000000000
     19603       632  ARHM      C6             -4.1596891099       37.8903906211       75.9818768401  LPSA18    20             14.0000000000
     19604       632  ARHM      H61            -5.2320574366       38.2441025487       76.0487105533  LPSA18    20             14.0000000000
     19605       632  ARHM      H62            -3.5714763256       38.3968631193       76.7492574554  LPSA18    20             14.0000000000
     19606       632  ARHM      H63            -3.8603850297       38.4202225548       75.0059134709  LPSA18    20             14.0000000000
     19607       633  BMANNA    C1             -6.4993750707       32.6852470147       75.4501725836  LPSA18    21             15.0000000000
     19608       633  BMANNA    H1             -5.7525295431       32.2889202411       74.6495731600  LPSA18    21             15.0000000000
     19609       633  BMANNA    C5             -7.9680382831       32.1458444159       73.6578092950  LPSA18    21             15.0000000000
     19610       633  BMANNA    H5             -7.1299358798       31.5995435987       73.0422409194  LPSA18    21             15.0000000000
     19611       633  BMANNA    O5             -7.5219971310       33.2274888942       74.5460975074  LPSA18    21             15.0000000000
     19612       633  BMANNA    C2             -7.0660676154       31.6159059796       76.3268603500  LPSA18    21             15.0000000000
     19613       633  BMANNA    H2             -6.1744638335       31.2912999299       76.8663433126  LPSA18    21             15.0000000000
     19614       633  BMANNA    N              -8.0593621907       32.1404807425       77.2602735953  LPSA18    21             15.0000000000
     19615       633  BMANNA    HN             -8.7788537779       32.6582958325       76.8630196157  LPSA18    21             15.0000000000
     19616       633  BMANNA    C              -8.2126144258       31.7354378367       78.6142451918  LPSA18    21             15.0000000000
     19617       633  BMANNA    O              -7.6080066510       30.7483638655       79.0340579138  LPSA18    21             15.0000000000
     19618       633  BMANNA    CT             -9.1923272797       32.5228720530       79.5125915666  LPSA18    21             15.0000000000
     19619       633  BMANNA    HT1           -10.2255282810       32.1597152662       79.3040814335  LPSA18    21             15.0000000000
     19620       633  BMANNA    HT2            -9.0017203390       33.5922776884       79.3224353366  LPSA18    21             15.0000000000
     19621       633  BMANNA    HT3            -8.9739961504       32.3148407239       80.6000991146  LPSA18    21             15.0000000000
     19622       633  BMANNA    C3             -7.5482678427       30.5201830450       75.4428482744  LPSA18    21             15.0000000000
     19623       633  BMANNA    H3             -6.6141061217       30.1918177416       75.0091666053  LPSA18    21             15.0000000000
     19624       633  BMANNA    O3             -8.0844637244       29.4300018914       76.1769203835  LPSA18    21             15.0000000000
     19625       633  BMANNA    HO3            -8.7570431238       29.7716682285       76.7354970047  LPSA18    21             15.0000000000
     19626       633  BMANNA    C4             -8.5912294896       31.0391240657       74.4866217523  LPSA18    21             15.0000000000
     19627       633  BMANNA    H4             -9.6096727389       31.4015143485       75.0002820064  LPSA18    21             15.0000000000
     19628       633  BMANNA    O4             -9.0552005640       30.0480265716       73.6152290754  LPSA18    21             15.0000000000
     19629       633  BMANNA    HO4           -10.0069070517       29.8581199502       73.7703874424  LPSA18    21             15.0000000000
     19630       633  BMANNA    C6             -8.8602794588       32.6266983255       72.6348027846  LPSA18    21             15.0000000000
     19631       633  BMANNA    H61            -9.0801097817       31.8739440630       71.8494922130  LPSA18    21             15.0000000000
     19632       633  BMANNA    H62            -9.8985585123       32.7159885017       73.0558617198  LPSA18    21             15.0000000000
     19633       633  BMANNA    O6             -8.5816498246       33.8701313359       72.0654385618  LPSA18    21             15.0000000000
     19634       633  BMANNA    HO6            -8.4944289930       34.5017794602       72.7784055652  LPSA18    21             15.0000000000
     19635       634  BGLCNA    C1             -3.2218334724       33.3368066564       79.2248726046  LPSA18    22             15.0000000000
     19636       634  BGLCNA    H1             -2.4354093330       34.1457770570       79.2753119810  LPSA18    22             15.0000000000
     19637       634  BGLCNA    C5             -1.4583250044       31.9617775015       80.1145289529  LPSA18    22             15.0000000000
     19638       634  BGLCNA    H5             -0.7892706929       32.9217199434       80.0727605020  LPSA18    22             15.0000000000
     19639       634  BGLCNA    O5             -2.4842322550       32.1582545026       79.0803056561  LPSA18    22             15.0000000000
     19640       634  BGLCNA    C2             -3.9193029061       33.3068840538       80.5602818744  LPSA18    22             15.0000000000
     19641       634  BGLCNA    H2             -4.5992797463       32.3879679118       80.4633107900  LPSA18    22             15.0000000000
     19642       634  BGLCNA    N              -4.6888508690       34.5245715875       80.7025670875  LPSA18    22             15.0000000000
     19643       634  BGLCNA    HN             -4.2333745023       35.3511571618       80.4501896382  LPSA18    22             15.0000000000
     19644       634  BGLCNA    C              -5.8437444564       34.6137353403       81.3295640408  LPSA18    22             15.0000000000
     19645       634  BGLCNA    O              -6.3766731484       33.6138825579       81.8448112003  LPSA18    22             15.0000000000
     19646       634  BGLCNA    CT             -6.4686783196       35.9588836505       81.4359073222  LPSA18    22             15.0000000000
     19647       634  BGLCNA    HT1            -7.0705301331       35.9970378311       80.5353412834  LPSA18    22             15.0000000000
     19648       634  BGLCNA    HT2            -5.6634465015       36.7118923285       81.2752873926  LPSA18    22             15.0000000000
     19649       634  BGLCNA    HT3            -6.9409461369       36.1880149593       82.3679651303  LPSA18    22             15.0000000000
     19650       634  BGLCNA    C3             -2.9321883208       33.0963493696       81.6855161512  LPSA18    22             15.0000000000
     19651       634  BGLCNA    H3             -2.1791990759       33.9229053454       81.6419517197  LPSA18    22             15.0000000000
     19652       634  BGLCNA    O3             -3.6825330715       33.2182940173       82.8729300216  LPSA18    22             15.0000000000
     19653       634  BGLCNA    C4             -2.1398691420       31.8029959076       81.4704242134  LPSA18    22             15.0000000000
     19654       634  BGLCNA    H4             -2.8621241748       31.0316241194       81.4144045074  LPSA18    22             15.0000000000
     19655       634  BGLCNA    O4             -1.2297394523       31.5344579420       82.5140850489  LPSA18    22             15.0000000000
     19656       634  BGLCNA    HO4            -1.2518392352       30.5825243504       82.7130071916  LPSA18    22             15.0000000000
     19657       634  BGLCNA    C6             -0.6745640301       30.7152696618       79.7284495560  LPSA18    22             15.0000000000
     19658       634  BGLCNA    H61            -0.1670753088       30.4158082128       80.6924177192  LPSA18    22             15.0000000000
     19659       634  BGLCNA    H62            -1.3519672328       29.8755107556       79.4648784538  LPSA18    22             15.0000000000
     19660       634  BGLCNA    O6              0.3430493120       30.9304800281       78.8100863794  LPSA18    22             15.0000000000
     19661       634  BGLCNA    HO6            -0.0336244856       31.3104396185       78.0328486455  LPSA18    22             15.0000000000
     19662       635  AGAL      C1             -3.0414915220       33.5034344127       84.0628261254  LPSA18    23             16.0000000000
     19663       635  AGAL      H1             -2.5246566825       32.6099308055       84.5106287163  LPSA18    23             16.0000000000
     19664       635  AGAL      C5             -2.6705117160       35.8358722131       83.7583018441  LPSA18    23             16.0000000000
     19665       635  AGAL      H5             -3.3585586023       35.7563365217       82.8366412438  LPSA18    23             16.0000000000
     19666       635  AGAL      O5             -2.0926064948       34.5729201019       83.9976212264  LPSA18    23             16.0000000000
     19667       635  AGAL      C2             -4.0503522648       33.8474136346       85.1427633740  LPSA18    23             16.0000000000
     19668       635  AGAL      H2             -3.4563381181       34.0358885718       86.0076373284  LPSA18    23             16.0000000000
     19669       635  AGAL      O2             -4.8959596513       32.7804689718       85.5000844886  LPSA18    23             16.0000000000
     19670       635  AGAL      C3             -4.7249676665       35.1566422958       84.9194901020  LPSA18    23             16.0000000000
     19671       635  AGAL      H3             -5.1346243361       35.1038182764       83.8641570193  LPSA18    23             16.0000000000
     19672       635  AGAL      O3             -5.8236084955       35.4230633771       85.7108298168  LPSA18    23             16.0000000000
     19673       635  AGAL      HO3            -5.5292622356       35.1912646578       86.6206525111  LPSA18    23             16.0000000000
     19674       635  AGAL      C4             -3.6621709344       36.2139766769       84.8901212015  LPSA18    23             16.0000000000
     19675       635  AGAL      H4             -4.0665966427       37.2235996600       84.6506069022  LPSA18    23             16.0000000000
     19676       635  AGAL      O4             -2.9842994923       36.4574017541       86.1132943683  LPSA18    23             16.0000000000
     19677       635  AGAL      HO4            -2.1503456177       36.6559600257       85.8278371007  LPSA18    23             16.0000000000
     19678       635  AGAL      C6             -1.6303676116       36.8352556397       83.3278962909  LPSA18    23             16.0000000000
     19679       635  AGAL      H61            -0.9908375369       36.3969604244       82.6074235255  LPSA18    23             16.0000000000
     19680       635  AGAL      H62            -2.0558416537       37.6691232111       82.7620574208  LPSA18    23             16.0000000000
     19681       635  AGAL      O6             -0.8299399960       37.1996559533       84.3845202183  LPSA18    23             16.0000000000
     19682       635  AGAL      HO6            -0.1263596650       37.7955137099       84.1740981585  LPSA18    23             16.0000000000
     19683       636  ARHM      C1             -4.5031364068       31.6673254444       86.2818185944  LPSA18    24             17.0000000000
     19684       636  ARHM      H1             -3.4340528417       31.6953610608       86.3680542693  LPSA18    24             17.0000000000
     19685       636  ARHM      C5             -6.2194180583       30.1251208541       85.6157638072  LPSA18    24             17.0000000000
     19686       636  ARHM      H5             -6.6319076295       30.9016175433       85.0070975499  LPSA18    24             17.0000000000
     19687       636  ARHM      O5             -4.8266031157       30.2889003858       85.8657410059  LPSA18    24             17.0000000000
     19688       636  ARHM      C2             -5.1608274828       31.9469837235       87.5921581840  LPSA18    24             17.0000000000
     19689       636  ARHM      H2             -5.0367674155       32.9690377029       87.8984046741  LPSA18    24             17.0000000000
     19690       636  ARHM      O2             -4.7833223885       30.9977350130       88.6075763533  LPSA18    24             17.0000000000
     19691       636  ARHM      C3             -6.6722361861       31.7377144252       87.4133527752  LPSA18    24             17.0000000000
     19692       636  ARHM      H3             -6.9751231893       32.4761687354       86.6640279609  LPSA18    24             17.0000000000
     19693       636  ARHM      O3             -7.4721317811       32.1244596687       88.5620392964  LPSA18    24             17.0000000000
     19694       636  ARHM      HO3            -7.4965869008       31.3362872419       89.1463757531  LPSA18    24             17.0000000000
     19695       636  ARHM      C4             -6.9920493895       30.3259816078       86.9402325015  LPSA18    24             17.0000000000
     19696       636  ARHM      H4             -6.5249053130       29.5879514589       87.7071552895  LPSA18    24             17.0000000000
     19697       636  ARHM      O4             -8.3691174925       30.0350394979       86.8379508285  LPSA18    24             17.0000000000
     19698       636  ARHM      HO4            -8.5945337623       29.1374933278       87.0219124236  LPSA18    24             17.0000000000
     19699       636  ARHM      C6             -6.5661527684       28.7459373337       84.9175891319  LPSA18    24             17.0000000000
     19700       636  ARHM      H61            -7.5097408586       28.8552108389       84.3853494017  LPSA18    24             17.0000000000
     19701       636  ARHM      H62            -5.7720137973       28.5612087000       84.2649634992  LPSA18    24             17.0000000000
     19702       636  ARHM      H63            -6.5356601490       27.8990481131       85.6811466487  LPSA18    24             17.0000000000
     19703       637  ARHM      C1             -3.5127982789       31.3257235962       89.1588742089  LPSA18    25             18.0000000000
     19704       637  ARHM      H1             -2.9701838570       31.9272037067       88.4722246341  LPSA18    25             18.0000000000
     19705       637  ARHM      C5             -3.1443605415       29.1876183407       90.1670531641  LPSA18    25             18.0000000000
     19706       637  ARHM      H5             -4.0866890331       28.7984496700       89.8870230824  LPSA18    25             18.0000000000
     19707       637  ARHM      O5             -2.6521456948       30.1718947218       89.2315309535  LPSA18    25             18.0000000000
     19708       637  ARHM      C2             -3.7095195415       31.9821676133       90.4685713243  LPSA18    25             18.0000000000
     19709       637  ARHM      H2             -4.4936934756       32.8024504311       90.3413143991  LPSA18    25             18.0000000000
     19710       637  ARHM      O2             -2.4443408755       32.5467864374       90.9328696740  LPSA18    25             18.0000000000
     19711       637  ARHM      C3             -4.1952724815       30.8721329662       91.4562257518  LPSA18    25             18.0000000000
     19712       637  ARHM      H3             -5.1791650154       30.5068478444       91.0689171631  LPSA18    25             18.0000000000
     19713       637  ARHM      O3             -4.4078105121       31.5221083441       92.6920647463  LPSA18    25             18.0000000000
     19714       637  ARHM      C4             -3.2997031276       29.7639475199       91.5960769721  LPSA18    25             18.0000000000
     19715       637  ARHM      H4             -2.2217021665       30.1062765050       91.8876801091  LPSA18    25             18.0000000000
     19716       637  ARHM      O4             -3.8582413416       28.9002683882       92.5862492282  LPSA18    25             18.0000000000
     19717       637  ARHM      HO4            -3.0982177676       28.5503469675       93.0149361445  LPSA18    25             18.0000000000
     19718       637  ARHM      C6             -2.2568579818       27.9445606729       90.2083352735  LPSA18    25             18.0000000000
     19719       637  ARHM      H61            -2.0380474302       27.5532735954       89.1912344565  LPSA18    25             18.0000000000
     19720       637  ARHM      H62            -1.2488607212       28.1300952693       90.6686969550  LPSA18    25             18.0000000000
     19721       637  ARHM      H63            -2.7105869895       27.0777457644       90.8233913566  LPSA18    25             18.0000000000
     19722       638  BMANNA    C1             -2.0983921531       33.7629894017       90.3138108879  LPSA18    26             19.0000000000
     19723       638  BMANNA    H1             -2.9924064032       34.2643504187       89.8388342826  LPSA18    26             19.0000000000
     19724       638  BMANNA    C5             -0.8866627511       34.9449528278       88.6312665858  LPSA18    26             19.0000000000
     19725       638  BMANNA    H5             -1.8246630044       35.2654525491       88.1771240033  LPSA18    26             19.0000000000
     19726       638  BMANNA    O5             -1.1291642813       33.6675941196       89.2346891933  LPSA18    26             19.0000000000
     19727       638  BMANNA    C2             -1.5826271696       34.6383487798       91.3475147821  LPSA18    26             19.0000000000
     19728       638  BMANNA    H2             -2.4277984595       34.7100791404       92.1081287357  LPSA18    26             19.0000000000
     19729       638  BMANNA    N              -0.3697641976       34.0163304537       91.9238920796  LPSA18    26             19.0000000000
     19730       638  BMANNA    HN              0.3310355455       33.8021369988       91.3050515894  LPSA18    26             19.0000000000
     19731       638  BMANNA    C              -0.1520283166       33.8332773911       93.1798471680  LPSA18    26             19.0000000000
     19732       638  BMANNA    O              -1.0702080053       34.0079968166       94.0003587425  LPSA18    26             19.0000000000
     19733       638  BMANNA    CT              1.2344426072       33.4248206288       93.6758917343  LPSA18    26             19.0000000000
     19734       638  BMANNA    HT1             1.7321320147       32.9838508540       92.8666282051  LPSA18    26             19.0000000000
     19735       638  BMANNA    HT2             1.3988783607       32.8825221048       94.6620984389  LPSA18    26             19.0000000000
     19736       638  BMANNA    HT3             1.7591390219       34.3722729699       93.8484898219  LPSA18    26             19.0000000000
     19737       638  BMANNA    C3             -1.3608155420       36.0129022051       90.7100883268  LPSA18    26             19.0000000000
     19738       638  BMANNA    H3             -2.3500379099       36.3797297551       90.3384445889  LPSA18    26             19.0000000000
     19739       638  BMANNA    O3             -0.9598409698       36.9301312481       91.7636866611  LPSA18    26             19.0000000000
     19740       638  BMANNA    HO3            -1.7762475052       37.0762205573       92.2265744207  LPSA18    26             19.0000000000
     19741       638  BMANNA    C4             -0.4157689462       35.8823226643       89.6481622736  LPSA18    26             19.0000000000
     19742       638  BMANNA    H4              0.6160692700       35.5023412205       89.9013799111  LPSA18    26             19.0000000000
     19743       638  BMANNA    O4             -0.1461092027       37.1383242103       89.0416847738  LPSA18    26             19.0000000000
     19744       638  BMANNA    HO4             0.5229354260       37.5843910061       89.5591157304  LPSA18    26             19.0000000000
     19745       638  BMANNA    C6              0.0009851717       34.6277300181       87.3900617492  LPSA18    26             19.0000000000
     19746       638  BMANNA    H61            -0.2777593675       33.6684401671       86.9191763972  LPSA18    26             19.0000000000
     19747       638  BMANNA    H62            -0.0672389958       35.3823159693       86.6504270337  LPSA18    26             19.0000000000
     19748       638  BMANNA    O6              1.3797467559       34.5418106393       87.7329108337  LPSA18    26             19.0000000000
     19749       638  BMANNA    HO6             1.6460180820       35.3246043538       88.1688153196  LPSA18    26             19.0000000000
     19750       639  BGLCNA    C1             -5.5049437158       31.3511490488       93.4616184899  LPSA18    27             19.0000000000
     19751       639  BGLCNA    H1             -5.8317197605       30.3162096102       93.4392217979  LPSA18    27             19.0000000000
     19752       639  BGLCNA    C5             -7.7708763038       31.8545181042       93.9656603721  LPSA18    27             19.0000000000
     19753       639  BGLCNA    H5             -7.9499562931       30.7487920804       93.9564344452  LPSA18    27             19.0000000000
     19754       639  BGLCNA    O5             -6.6816268652       32.0814803787       93.0607755266  LPSA18    27             19.0000000000
     19755       639  BGLCNA    C2             -5.0784221890       31.7340986945       94.8806799918  LPSA18    27             19.0000000000
     19756       639  BGLCNA    H2             -4.8758085457       32.8191184998       94.8757458582  LPSA18    27             19.0000000000
     19757       639  BGLCNA    N              -3.8670529488       31.0260805289       95.2501113516  LPSA18    27             19.0000000000
     19758       639  BGLCNA    HN             -3.8745322040       29.9853657015       95.0827132934  LPSA18    27             19.0000000000
     19759       639  BGLCNA    C              -2.9218501219       31.7670323771       95.9523160909  LPSA18    27             19.0000000000
     19760       639  BGLCNA    O              -3.1246316007       32.8810747047       96.5238801166  LPSA18    27             19.0000000000
     19761       639  BGLCNA    CT             -1.5198830161       31.0868082677       96.0293745529  LPSA18    27             19.0000000000
     19762       639  BGLCNA    HT1            -1.4824110600       30.1820845359       95.3635606282  LPSA18    27             19.0000000000
     19763       639  BGLCNA    HT2            -1.1857652588       30.8576326300       97.0167906789  LPSA18    27             19.0000000000
     19764       639  BGLCNA    HT3            -0.7498929972       31.8906769677       95.7039804309  LPSA18    27             19.0000000000
     19765       639  BGLCNA    C3             -6.2110277304       31.4936429380       95.7540348103  LPSA18    27             19.0000000000
     19766       639  BGLCNA    H3             -6.5354113503       30.4233839236       95.7401190096  LPSA18    27             19.0000000000
     19767       639  BGLCNA    O3             -5.6856423760       31.8514357669       97.0775356047  LPSA18    27             19.0000000000
     19768       639  BGLCNA    C4             -7.4612421180       32.2985873674       95.3486864533  LPSA18    27             19.0000000000
     19769       639  BGLCNA    H4             -7.2057267495       33.3825128785       95.3090014479  LPSA18    27             19.0000000000
     19770       639  BGLCNA    O4             -8.5128421189       32.0802575681       96.2156872787  LPSA18    27             19.0000000000
     19771       639  BGLCNA    HO4            -8.7755293872       31.2040483780       96.0162444362  LPSA18    27             19.0000000000
     19772       639  BGLCNA    C6             -9.0229691689       32.5056813811       93.2852949846  LPSA18    27             19.0000000000
     19773       639  BGLCNA    H61            -9.8798262466       32.1353357083       93.8557506920  LPSA18    27             19.0000000000
     19774       639  BGLCNA    H62            -9.0220414114       33.6053473197       93.4725180191  LPSA18    27             19.0000000000
     19775       639  BGLCNA    O6             -9.0957777826       32.1784387832       91.9076175409  LPSA18    27             19.0000000000
     19776       639  BGLCNA    HO6            -9.8800494326       32.6315213241       91.5273290588  LPSA18    27             19.0000000000
     19777       640  AGAL      C1             -6.3893764230       31.4075633649       98.2622020222  LPSA18    28             20.0000000000
     19778       640  AGAL      H1             -7.3076810988       31.9287492767       98.3007149491  LPSA18    28             20.0000000000
     19779       640  AGAL      C5             -5.5727478258       29.1265353011       98.1710438288  LPSA18    28             20.0000000000
     19780       640  AGAL      H5             -4.6949937449       29.5186403492       97.4646141937  LPSA18    28             20.0000000000
     19781       640  AGAL      O5             -6.7473460450       30.0351928974       98.1147365872  LPSA18    28             20.0000000000
     19782       640  AGAL      C2             -5.6763623124       31.5345350416       99.6197190629  LPSA18    28             20.0000000000
     19783       640  AGAL      H2             -6.4266422289       31.1311750645      100.2965066153  LPSA18    28             20.0000000000
     19784       640  AGAL      O2             -5.3994514981       32.8488598391      100.0788731798  LPSA18    28             20.0000000000
     19785       640  AGAL      C3             -4.4857744204       30.6359872497       99.7396972452  LPSA18    28             20.0000000000
     19786       640  AGAL      H3             -3.8025490830       30.8585926309       98.8607737785  LPSA18    28             20.0000000000
     19787       640  AGAL      O3             -3.6435369190       30.7389685429      100.9043404272  LPSA18    28             20.0000000000
     19788       640  AGAL      HO3            -2.7756544527       31.0272944685      100.5606486229  LPSA18    28             20.0000000000
     19789       640  AGAL      C4             -4.9124558788       29.2414933558       99.5102226768  LPSA18    28             20.0000000000
     19790       640  AGAL      H4             -4.0396654006       28.6338650727       99.4798298294  LPSA18    28             20.0000000000
     19791       640  AGAL      O4             -5.7885610712       28.7541102094      100.4757933835  LPSA18    28             20.0000000000
     19792       640  AGAL      HO4            -5.2756852912       28.2191826065      101.0376442747  LPSA18    28             20.0000000000
     19793       640  AGAL      C6             -5.8301321591       27.7150094730       97.6362902244  LPSA18    28             20.0000000000
     19794       640  AGAL      H61            -6.0878643601       27.7761301687       96.5809275898  LPSA18    28             20.0000000000
     19795       640  AGAL      H62            -4.9818815724       26.9475041787       97.7651048223  LPSA18    28             20.0000000000
     19796       640  AGAL      O6             -6.9016110245       27.1283752967       98.3456070822  LPSA18    28             20.0000000000
     19797       640  AGAL      HO6            -7.7367120715       27.3678247674       97.9416813930  LPSA18    28             20.0000000000
     19798       641  ARHM      C1             -5.7463758474       32.9388614288      101.4808913342  LPSA18    29             21.0000000000
     19799       641  ARHM      H1             -5.6500208620       31.9290082841      101.9964955809  LPSA18    29             21.0000000000
     19800       641  ARHM      C5             -7.2661446051       34.6976426294      101.1486206043  LPSA18    29             21.0000000000
     19801       641  ARHM      H5             -6.9318647863       34.6401621355      100.0935446791  LPSA18    29             21.0000000000
     19802       641  ARHM      O5             -7.0436067704       33.4237304714      101.6833506475  LPSA18    29             21.0000000000
     19803       641  ARHM      C2             -4.7545345230       33.7874947884      102.1437305515  LPSA18    29             21.0000000000
     19804       641  ARHM      H2             -3.7541691495       33.4882044793      101.9067628034  LPSA18    29             21.0000000000
     19805       641  ARHM      O2             -4.8972402182       33.7734563765      103.5748524404  LPSA18    29             21.0000000000
     19806       641  ARHM      C3             -4.9402125790       35.1866481586      101.6289418068  LPSA18    29             21.0000000000
     19807       641  ARHM      H3             -4.6762071081       35.2084987484      100.4952263366  LPSA18    29             21.0000000000
     19808       641  ARHM      O3             -3.9506783727       35.9992439638      102.1995749427  LPSA18    29             21.0000000000
     19809       641  ARHM      HO3            -4.2959485781       36.8265447509      102.2092645043  LPSA18    29             21.0000000000
     19810       641  ARHM      C4             -6.2926544672       35.7159008092      101.8247918557  LPSA18    29             21.0000000000
     19811       641  ARHM      H4             -6.5516107016       35.8149621826      102.9338171738  LPSA18    29             21.0000000000
     19812       641  ARHM      O4             -6.5623589980       37.0527368461      101.3452167393  LPSA18    29             21.0000000000
     19813       641  ARHM      HO4            -6.1815398729       37.2466170462      100.4362974805  LPSA18    29             21.0000000000
     19814       641  ARHM      C6             -8.7826871165       34.9504988156      101.2162231226  LPSA18    29             21.0000000000
     19815       641  ARHM      H61            -9.2186842388       33.9852421933      100.7685423143  LPSA18    29             21.0000000000
     19816       641  ARHM      H62            -9.0895298250       35.0137957176      102.3013153741  LPSA18    29             21.0000000000
     19817       641  ARHM      H63            -9.0206337006       35.8293420807      100.6072571094  LPSA18    29             21.0000000000
     19818       642  ARHM      C1             -4.1203707710       32.9592659093      104.3945976075  LPSA18    30             22.0000000000
     19819       642  ARHM      H1             -3.0485719852       33.1914206335      104.2094096401  LPSA18    30             22.0000000000
     19820       642  ARHM      C5             -5.7465765447       31.1523533859      104.5143062533  LPSA18    30             22.0000000000
     19821       642  ARHM      H5             -6.3446758106       31.9024353060      103.8668162917  LPSA18    30             22.0000000000
     19822       642  ARHM      O5             -4.3818998433       31.5525395128      104.2052433351  LPSA18    30             22.0000000000
     19823       642  ARHM      C2             -4.4123407985       33.2897568128      105.8471183130  LPSA18    30             22.0000000000
     19824       642  ARHM      H2             -4.2539332527       34.3026547511      106.0289718167  LPSA18    30             22.0000000000
     19825       642  ARHM      O2             -3.5937662686       32.4441289146      106.5813641610  LPSA18    30             22.0000000000
     19826       642  ARHM      C3             -5.7671867949       32.8971979317      106.2079894766  LPSA18    30             22.0000000000
     19827       642  ARHM      H3             -6.4407430885       33.3424932146      105.5270001340  LPSA18    30             22.0000000000
     19828       642  ARHM      O3             -6.1693353527       33.3321221490      107.5373891676  LPSA18    30             22.0000000000
     19829       642  ARHM      C4             -6.0264836336       31.4057488341      105.9708288384  LPSA18    30             22.0000000000
     19830       642  ARHM      H4             -5.3555382312       30.7590955373      106.5400372406  LPSA18    30             22.0000000000
     19831       642  ARHM      O4             -7.2661220403       30.9581903651      106.2997755749  LPSA18    30             22.0000000000
     19832       642  ARHM      HO4            -8.0059583161       31.1053585774      105.6964454668  LPSA18    30             22.0000000000
     19833       642  ARHM      C6             -5.9772794588       29.7259901042      104.0930490251  LPSA18    30             22.0000000000
     19834       642  ARHM      H61            -7.0776881753       29.5231928703      104.2143179997  LPSA18    30             22.0000000000
     19835       642  ARHM      H62            -5.8414051194       29.6525300281      103.0019050467  LPSA18    30             22.0000000000
     19836       642  ARHM      H63            -5.3350646680       28.9719498708      104.6493652223  LPSA18    30             22.0000000000
     19837       643  BMANNA    C1             -2.3365328774       32.9659770802      106.9502319096  LPSA18    31             23.0000000000
     19838       643  BMANNA    H1             -2.4684152681       34.0520757505      107.1550799008  LPSA18    31             23.0000000000
     19839       643  BMANNA    C5             -0.0647244062       33.4212848496      106.2136717625  LPSA18    31             23.0000000000
     19840       643  BMANNA    H5             -0.2994486566       34.4421933480      106.5467054000  LPSA18    31             23.0000000000
     19841       643  BMANNA    O5             -1.3491472697       32.8216464085      105.8742289322  LPSA18    31             23.0000000000
     19842       643  BMANNA    C2             -1.8286521311       32.2561014158      108.0830629221  LPSA18    31             23.0000000000
     19843       643  BMANNA    H2             -2.5374668711       32.4797155601      108.9031915743  LPSA18    31             23.0000000000
     19844       643  BMANNA    N              -1.8812029337       30.8585522988      107.8252935315  LPSA18    31             23.0000000000
     19845       643  BMANNA    HN             -1.8488558091       30.5608474938      106.8111160773  LPSA18    31             23.0000000000
     19846       643  BMANNA    C              -2.0178796597       29.9418590629      108.7868858964  LPSA18    31             23.0000000000
     19847       643  BMANNA    O              -2.1841116617       30.2491830123      109.9536662434  LPSA18    31             23.0000000000
     19848       643  BMANNA    CT             -1.9704994592       28.4776965868      108.3237946568  LPSA18    31             23.0000000000
     19849       643  BMANNA    HT1            -1.2255204521       28.3951605143      107.5739831696  LPSA18    31             23.0000000000
     19850       643  BMANNA    HT2            -2.9617632712       28.2209772403      107.9347099034  LPSA18    31             23.0000000000
     19851       643  BMANNA    HT3            -1.8355699307       27.7942238496      109.1768357935  LPSA18    31             23.0000000000
     19852       643  BMANNA    C3             -0.5151477209       32.8404400497      108.4884560283  LPSA18    31             23.0000000000
     19853       643  BMANNA    H3             -0.5937470954       33.9720740870      108.6988550870  LPSA18    31             23.0000000000
     19854       643  BMANNA    O3             -0.0662592604       32.3208681369      109.7404994872  LPSA18    31             23.0000000000
     19855       643  BMANNA    HO3            -0.9043424192       31.9941399424      110.0111610137  LPSA18    31             23.0000000000
     19856       643  BMANNA    C4              0.4860154216       32.6567405200      107.4199857710  LPSA18    31             23.0000000000
     19857       643  BMANNA    H4              0.6838075115       31.5405413858      107.0572414185  LPSA18    31             23.0000000000
     19858       643  BMANNA    O4              1.7468810575       33.1462907733      107.8525671122  LPSA18    31             23.0000000000
     19859       643  BMANNA    HO4             1.6921806413       34.0668021570      108.1943429300  LPSA18    31             23.0000000000
     19860       643  BMANNA    C6              0.9413910501       33.4003241913      105.0512686782  LPSA18    31             23.0000000000
     19861       643  BMANNA    H61             1.8366625043       34.0841597784      105.3397811046  LPSA18    31             23.0000000000
     19862       643  BMANNA    H62             1.3534144475       32.4118043630      104.8698551944  LPSA18    31             23.0000000000
     19863       643  BMANNA    O6              0.3541534542       33.8757996338      103.8241467834  LPSA18    31             23.0000000000
     19864       643  BMANNA    HO6             0.1698694139       34.8577768953      103.8134147631  LPSA18    31             23.0000000000
     19865       644  BGLCNA    C1             -5.7527463483       32.5549077085      108.6103969990  LPSA18    32             23.0000000000
     19866       644  BGLCNA    H1             -4.7201572321       32.1148179406      108.4325564695  LPSA18    32             23.0000000000
     19867       644  BGLCNA    C5             -6.1185355172       30.5613434436      109.9277617404  LPSA18    32             23.0000000000
     19868       644  BGLCNA    H5             -5.0924802911       30.2191160826      109.5374749077  LPSA18    32             23.0000000000
     19869       644  BGLCNA    O5             -6.6188200481       31.4688238785      108.9423333575  LPSA18    32             23.0000000000
     19870       644  BGLCNA    C2             -5.6006823646       33.3700209477      109.8194522937  LPSA18    32             23.0000000000
     19871       644  BGLCNA    H2             -6.5981536304       33.6075310652      110.1044894257  LPSA18    32             23.0000000000
     19872       644  BGLCNA    N              -4.8490148267       34.5580023854      109.5956973249  LPSA18    32             23.0000000000
     19873       644  BGLCNA    HN             -4.1443723786       34.3736989315      108.8809076996  LPSA18    32             23.0000000000
     19874       644  BGLCNA    C              -5.0360817955       35.8040962415      110.0864625708  LPSA18    32             23.0000000000
     19875       644  BGLCNA    O              -5.8960061218       36.0568928554      110.9304085025  LPSA18    32             23.0000000000
     19876       644  BGLCNA    CT             -4.0835480165       36.9116290144      109.5841031968  LPSA18    32             23.0000000000
     19877       644  BGLCNA    HT1            -3.6561210089       36.3858308181      108.6281101354  LPSA18    32             23.0000000000
     19878       644  BGLCNA    HT2            -3.2395652179       37.1269620791      110.1898124037  LPSA18    32             23.0000000000
     19879       644  BGLCNA    HT3            -4.6205446873       37.8529514441      109.3122359934  LPSA18    32             23.0000000000
     19880       644  BGLCNA    C3             -4.9915597280       32.5178901932      110.8930231790  LPSA18    32             23.0000000000
     19881       644  BGLCNA    H3             -4.1282825554       32.0993955540      110.4606187373  LPSA18    32             23.0000000000
     19882       644  BGLCNA    O3             -4.5842311878       33.2415628131      112.0657798240  LPSA18    32             23.0000000000
     19883       644  BGLCNA    C4             -5.9547364270       31.3962638238      111.1707572500  LPSA18    32             23.0000000000
     19884       644  BGLCNA    H4             -6.9110865919       31.8635484242      111.5318289610  LPSA18    32             23.0000000000
     19885       644  BGLCNA    O4             -5.4989067544       30.5669752770      112.2070236435  LPSA18    32             23.0000000000
     19886       644  BGLCNA    HO4            -5.8154709163       30.8572241091      113.0745323218  LPSA18    32             23.0000000000
     19887       644  BGLCNA    C6             -7.0246180544       29.3516038586      110.0229508171  LPSA18    32             23.0000000000
     19888       644  BGLCNA    H61            -6.5819259354       28.5476799558      110.7194343748  LPSA18    32             23.0000000000
     19889       644  BGLCNA    H62            -8.0030462103       29.6540285399      110.5717638480  LPSA18    32             23.0000000000
     19890       644  BGLCNA    O6             -7.2250018542       28.7282361221      108.7709294272  LPSA18    32             23.0000000000
     19891       644  BGLCNA    HO6            -6.3917670289       28.7724944995      108.2360311317  LPSA18    32             23.0000000000
     19892       645  AGAL      C1             -3.3599890670       32.7628616356      112.6842874521  LPSA18    33             24.0000000000
     19893       645  AGAL      H1             -3.3774142974       31.6736501411      112.5979959475  LPSA18    33             24.0000000000
     19894       645  AGAL      C5             -2.1111454874       34.7257328947      112.2149219831  LPSA18    33             24.0000000000
     19895       645  AGAL      H5             -3.1013420502       35.0820506889      111.8792915250  LPSA18    33             24.0000000000
     19896       645  AGAL      O5             -2.1544851363       33.3209990873      112.0726784748  LPSA18    33             24.0000000000
     19897       645  AGAL      C2             -3.3978344350       33.1957174796      114.1482787662  LPSA18    33             24.0000000000
     19898       645  AGAL      H2             -2.3660648976       32.8884694261      114.5751854976  LPSA18    33             24.0000000000
     19899       645  AGAL      O2             -4.3187479499       32.3806506737      114.8486222260  LPSA18    33             24.0000000000
     19900       645  AGAL      C3             -3.3214596879       34.6951940342      114.2945545625  LPSA18    33             24.0000000000
     19901       645  AGAL      H3             -4.1894668702       35.1923449743      113.7405815065  LPSA18    33             24.0000000000
     19902       645  AGAL      O3             -3.5335967340       35.1487234372      115.5672660328  LPSA18    33             24.0000000000
     19903       645  AGAL      HO3            -3.0068125021       34.7718102924      116.2400186851  LPSA18    33             24.0000000000
     19904       645  AGAL      C4             -2.0532678290       35.2305849632      113.6708488317  LPSA18    33             24.0000000000
     19905       645  AGAL      H4             -2.0402114481       36.3272519027      113.6729875792  LPSA18    33             24.0000000000
     19906       645  AGAL      O4             -0.7864916410       34.8320403211      114.2435538900  LPSA18    33             24.0000000000
     19907       645  AGAL      HO4            -0.8734006024       34.1592698203      114.9085525172  LPSA18    33             24.0000000000
     19908       645  AGAL      C6             -1.0894688176       35.3572513186      111.2992528405  LPSA18    33             24.0000000000
     19909       645  AGAL      H61            -1.4384127656       35.1011337678      110.2783408757  LPSA18    33             24.0000000000
     19910       645  AGAL      H62            -0.9908969182       36.4582767723      111.3458027743  LPSA18    33             24.0000000000
     19911       645  AGAL      O6              0.2358002489       34.9430933234      111.4129476537  LPSA18    33             24.0000000000
     19912       645  AGAL      HO6             0.4546273221       34.1616645656      110.8444757795  LPSA18    33             24.0000000000
     19913       646  ARHM      C1             -3.8208444557       31.8010040923      116.0109133884  LPSA18    34             25.0000000000
     19914       646  ARHM      H1             -3.2688676003       32.5210428373      116.6389743656  LPSA18    34             25.0000000000
     19915       646  ARHM      C5             -3.4073943823       29.6107129576      115.0727799907  LPSA18    34             25.0000000000
     19916       646  ARHM      H5             -3.6653336775       30.0166705143      114.0209633333  LPSA18    34             25.0000000000
     19917       646  ARHM      O5             -2.8803909818       30.7139289040      115.8926868953  LPSA18    34             25.0000000000
     19918       646  ARHM      C2             -5.0443616378       31.3527291131      116.7601555753  LPSA18    34             25.0000000000
     19919       646  ARHM      H2             -5.8599459345       32.1179449402      116.8710959342  LPSA18    34             25.0000000000
     19920       646  ARHM      O2             -4.7850412538       30.8749193255      118.1592972339  LPSA18    34             25.0000000000
     19921       646  ARHM      C3             -5.6678327180       30.1918880346      115.9988665506  LPSA18    34             25.0000000000
     19922       646  ARHM      H3             -5.9348070402       30.4856144125      114.9724172480  LPSA18    34             25.0000000000
     19923       646  ARHM      O3             -6.8613356728       29.6205571580      116.5878695042  LPSA18    34             25.0000000000
     19924       646  ARHM      HO3            -7.5263789030       29.3662421405      115.9559434517  LPSA18    34             25.0000000000
     19925       646  ARHM      C4             -4.6691084188       29.0194811050      115.7987835878  LPSA18    34             25.0000000000
     19926       646  ARHM      H4             -4.2286232325       28.6766167399      116.7495315617  LPSA18    34             25.0000000000
     19927       646  ARHM      O4             -5.2210175037       27.9419107059      115.1362621200  LPSA18    34             25.0000000000
     19928       646  ARHM      HO4            -5.7918857564       27.4198339358      115.6953140327  LPSA18    34             25.0000000000
     19929       646  ARHM      C6             -2.3284086283       28.4928488369      114.8413279703  LPSA18    34             25.0000000000
     19930       646  ARHM      H61            -1.9981543557       27.9741761218      115.7172490283  LPSA18    34             25.0000000000
     19931       646  ARHM      H62            -2.8523039553       27.6269571138      114.3996926230  LPSA18    34             25.0000000000
     19932       646  ARHM      H63            -1.4946798926       28.7419203845      114.1590834060  LPSA18    34             25.0000000000
     19933       647  ARHM      C1             -4.1712933559       31.8006721707      119.0795908573  LPSA18    35             26.0000000000
     19934       647  ARHM      H1             -4.6169544522       32.8620687325      118.8787348947  LPSA18    35             26.0000000000
     19935       647  ARHM      C5             -2.0800388772       30.5750399972      119.2408916176  LPSA18    35             26.0000000000
     19936       647  ARHM      H5             -2.4789028060       29.7476530087      118.5254732223  LPSA18    35             26.0000000000
     19937       647  ARHM      O5             -2.6914131258       31.8849925978      118.9290334222  LPSA18    35             26.0000000000
     19938       647  ARHM      C2             -4.5132128423       31.4098548010      120.5365485050  LPSA18    35             26.0000000000
     19939       647  ARHM      H2             -5.6253512219       31.4562947490      120.7134209997  LPSA18    35             26.0000000000
     19940       647  ARHM      O2             -3.9483528929       32.3132056216      121.4126203716  LPSA18    35             26.0000000000
     19941       647  ARHM      C3             -3.9370014412       30.0159038916      120.8720061906  LPSA18    35             26.0000000000
     19942       647  ARHM      H3             -4.4235033484       29.2970099535      120.1344793452  LPSA18    35             26.0000000000
     19943       647  ARHM      O3             -4.3417361076       29.5827237223      122.1540075829  LPSA18    35             26.0000000000
     19944       647  ARHM      HO3            -4.4056583462       30.3485384405      122.7288731339  LPSA18    35             26.0000000000
     19945       647  ARHM      C4             -2.4473044102       30.0910942451      120.6788917534  LPSA18    35             26.0000000000
     19946       647  ARHM      H4             -1.9392488948       30.8542442993      121.3307119103  LPSA18    35             26.0000000000
     19947       647  ARHM      O4             -1.9323378705       28.7732699070      120.9693790153  LPSA18    35             26.0000000000
     19948       647  ARHM      HO4            -2.4513347933       28.0432024102      120.5581709812  LPSA18    35             26.0000000000
     19949       647  ARHM      C6             -0.5588240967       30.6084382048      118.8642347863  LPSA18    35             26.0000000000
     19950       647  ARHM      H61            -0.4186869819       30.7254611511      117.7433556958  LPSA18    35             26.0000000000
     19951       647  ARHM      H62            -0.2094507949       31.4663032594      119.4176110492  LPSA18    35             26.0000000000
     19952       647  ARHM      H63            -0.1514085786       29.5756700162      119.0633705917  LPSA18    35             26.0000000000
     19953       648  BMANNA    C1             -4.5167710365       33.5875849746      121.4471464502  LPSA18    36             27.0000000000
     19954       648  BMANNA    H1             -5.5763386934       33.5703206687      121.0972061898  LPSA18    36             27.0000000000
     19955       648  BMANNA    C5             -4.6903343363       35.8919280899      120.7299884793  LPSA18    36             27.0000000000
     19956       648  BMANNA    H5             -5.7205727843       35.6651023795      120.4610684421  LPSA18    36             27.0000000000
     19957       648  BMANNA    O5             -3.9120854183       34.6544944893      120.6641532654  LPSA18    36             27.0000000000
     19958       648  BMANNA    C2             -4.5433188821       34.0616502112      122.8920138725  LPSA18    36             27.0000000000
     19959       648  BMANNA    H2             -5.0856181629       33.2915722680      123.4719477421  LPSA18    36             27.0000000000
     19960       648  BMANNA    N              -3.1899258353       34.1494914458      123.4395449790  LPSA18    36             27.0000000000
     19961       648  BMANNA    HN             -2.4549799956       34.5368909068      122.8746519580  LPSA18    36             27.0000000000
     19962       648  BMANNA    C              -2.9666969182       34.0052669594      124.7737151700  LPSA18    36             27.0000000000
     19963       648  BMANNA    O              -3.7903253250       33.6408600991      125.6190347561  LPSA18    36             27.0000000000
     19964       648  BMANNA    CT             -1.6252942582       34.3524988640      125.3570716528  LPSA18    36             27.0000000000
     19965       648  BMANNA    HT1            -1.2234103055       35.2518418964      124.8802869227  LPSA18    36             27.0000000000
     19966       648  BMANNA    HT2            -0.8376756830       33.5684336558      125.1731404614  LPSA18    36             27.0000000000
     19967       648  BMANNA    HT3            -1.5872307838       34.4636349992      126.4547536948  LPSA18    36             27.0000000000
     19968       648  BMANNA    C3             -5.2973978131       35.3638693707      122.9763638711  LPSA18    36             27.0000000000
     19969       648  BMANNA    H3             -6.3336031904       35.2304477217      122.6403873786  LPSA18    36             27.0000000000
     19970       648  BMANNA    O3             -5.4085135356       35.8442586144      124.3414054450  LPSA18    36             27.0000000000
     19971       648  BMANNA    HO3            -6.2810533546       35.8960193128      124.7171830083  LPSA18    36             27.0000000000
     19972       648  BMANNA    C4             -4.6899697464       36.4067605303      122.1146940524  LPSA18    36             27.0000000000
     19973       648  BMANNA    H4             -3.7021554350       36.6635104692      122.4263894750  LPSA18    36             27.0000000000
     19974       648  BMANNA    O4             -5.3944049420       37.6425596021      122.2172873890  LPSA18    36             27.0000000000
     19975       648  BMANNA    HO4            -5.3156619645       37.7479506089      123.1985163392  LPSA18    36             27.0000000000
     19976       648  BMANNA    C6             -4.1534209627       36.8473843817      119.7412642597  LPSA18    36             27.0000000000
     19977       648  BMANNA    H61            -4.2450337974       36.4594888635      118.6946701192  LPSA18    36             27.0000000000
     19978       648  BMANNA    H62            -4.8796282308       37.6653227440      119.7045442506  LPSA18    36             27.0000000000
     19979       648  BMANNA    O6             -2.8025813534       37.3189872321      120.0914698020  LPSA18    36             27.0000000000
     19980       648  BMANNA    HO6            -2.9346795006       38.0954101258      120.6476247167  LPSA18    36             27.0000000000
     19981       649  ECLIPA    HB6S            8.2825008283       32.1696206338       20.4612168218  LPSA19    1               0.0000000000
     19982       649  ECLIPA    OB6             9.8095508596       31.7688918478       21.7140249152  LPSA19    1               0.0000000000
     19983       649  ECLIPA    CB6             9.1931587434       32.6472416886       20.7042159014  LPSA19    1               0.0000000000
     19984       649  ECLIPA    HB6R            9.1440499122       33.6621672739       21.0541931349  LPSA19    1               0.0000000000
     19985       649  ECLIPA    CB5            10.0844870717       32.7826550175       19.3988764877  LPSA19    1               0.0000000000
     19986       649  ECLIPA    OB5            10.3210332361       31.3811186893       18.9716901872  LPSA19    1               0.0000000000
     19987       649  ECLIPA    HB5            11.0396974283       33.1925815072       19.7771798410  LPSA19    1               0.0000000000
     19988       649  ECLIPA    CB1            11.1287765543       31.3628402977       17.7717324898  LPSA19    1               0.0000000000
     19989       649  ECLIPA    HB1            12.1263409744       31.8374146965       17.9003641080  LPSA19    1               0.0000000000
     19990       649  ECLIPA    OA6            11.3030247886       30.0529760247       17.3217246577  LPSA19    1               0.0000000000
     19991       649  ECLIPA    CA6            10.2759078325       29.0706586206       17.5745106853  LPSA19    1               0.0000000000
     19992       649  ECLIPA    HA6R            9.3145679242       29.6031755932       17.7226451425  LPSA19    1               0.0000000000
     19993       649  ECLIPA    HA6S           10.6349667233       28.4082696195       18.4598965841  LPSA19    1               0.0000000000
     19994       649  ECLIPA    CB4             9.3973893612       33.6433003982       18.3206521937  LPSA19    1               0.0000000000
     19995       649  ECLIPA    HB4             8.4267081704       33.2037692431       18.0085584641  LPSA19    1               0.0000000000
     19996       649  ECLIPA    OB4             9.4288845346       34.9653083515       18.9017319965  LPSA19    1               0.0000000000
     19997       649  ECLIPA    PB              8.0484693910       35.6783445814       19.3234616795  LPSA19    1               0.0000000000
     19998       649  ECLIPA    OPB4            8.3472697185       36.5492316575       20.5579515876  LPSA19    1               0.0000000000
     19999       649  ECLIPA    OPB3            7.1719226122       34.4478819922       19.6614545037  LPSA19    1               0.0000000000
     20000       649  ECLIPA    OPB2            7.5182837048       36.4125952588       18.0829495795  LPSA19    1               0.0000000000
     20001       649  ECLIPA    CB3            10.2883791500       33.5709720271       17.0955893951  LPSA19    1               0.0000000000
     20002       649  ECLIPA    OB3             9.7881630900       34.2297426539       15.9186528231  LPSA19    1               0.0000000000
     20003       649  ECLIPA    HB3            11.3637346637       33.8391604692       17.3284540628  LPSA19    1               0.0000000000
     20004       649  ECLIPA    C71            10.1443249730       35.4500893202       15.6929469039  LPSA19    1               0.0000000000
     20005       649  ECLIPA    O71            10.9835431995       36.0737580671       16.3832172580  LPSA19    1               0.0000000000
     20006       649  ECLIPA    C72             9.4944850259       35.8900689000       14.3548430386  LPSA19    1               0.0000000000
     20007       649  ECLIPA    H72R            9.8092176174       35.1959301751       13.5774555414  LPSA19    1               0.0000000000
     20008       649  ECLIPA    H72S            9.7698823493       37.0086443537       14.1464415926  LPSA19    1               0.0000000000
     20009       649  ECLIPA    CB2            10.4422468397       32.0966822526       16.6720734084  LPSA19    1               0.0000000000
     20010       649  ECLIPA    HB2             9.3429998829       31.6860491409       16.5298168153  LPSA19    1               0.0000000000
     20011       649  ECLIPA    NB2            11.2689443218       31.9291687941       15.4577284722  LPSA19    1               0.0000000000
     20012       649  ECLIPA    HNB2           12.2574547438       31.8886716958       15.5965609326  LPSA19    1               0.0000000000
     20013       649  ECLIPA    CA4            11.4648740191       27.7762421012       15.7929312798  LPSA19    1               0.0000000000
     20014       649  ECLIPA    HA4            12.0462223496       28.6842744073       15.4903430209  LPSA19    1               0.0000000000
     20015       649  ECLIPA    OA4            12.1467219642       27.0933302242       16.8012065728  LPSA19    1               0.0000000000
     20016       649  ECLIPA    HOA4           12.1473750011       27.5498910584       17.5928838569  LPSA19    1               0.0000000000
     20017       649  ECLIPA    CA5            10.1709365252       28.1948248692       16.3547806008  LPSA19    1               0.0000000000
     20018       649  ECLIPA    HA5             9.3899419850       27.3587424709       16.5880746347  LPSA19    1               0.0000000000
     20019       649  ECLIPA    OA5             9.5106258675       29.0006790243       15.3689671688  LPSA19    1               0.0000000000
     20020       649  ECLIPA    CA1             9.3208288855       28.2659545655       14.1076640156  LPSA19    1               0.0000000000
     20021       649  ECLIPA    HA1             9.1226715742       29.1273431105       13.4118188108  LPSA19    1               0.0000000000
     20022       649  ECLIPA    OA1             8.2008795722       27.4029528940       14.1359876212  LPSA19    1               0.0000000000
     20023       649  ECLIPA    OPA2            6.6709622430       27.0865830624       15.9734101064  LPSA19    1               0.0000000000
     20024       649  ECLIPA    OPA3            6.7280418318       29.3646253642       14.8300177673  LPSA19    1               0.0000000000
     20025       649  ECLIPA    OPA4            5.7671741346       27.4345733639       13.6615320840  LPSA19    1               0.0000000000
     20026       649  ECLIPA    PA              6.7986579126       27.8735628255       14.6765383084  LPSA19    1               0.0000000000
     20027       649  ECLIPA    CA3            11.3390888346       26.9485107191       14.5219348229  LPSA19    1               0.0000000000
     20028       649  ECLIPA    HA3            10.7945733560       25.9473369868       14.7377032538  LPSA19    1               0.0000000000
     20029       649  ECLIPA    OA3            12.6634642965       26.5272682172       14.2498111976  LPSA19    1               0.0000000000
     20030       649  ECLIPA    C31            13.4291017216       27.3833664532       13.5006246295  LPSA19    1               0.0000000000
     20031       649  ECLIPA    O31            13.3710089494       27.5394678939       12.2941239937  LPSA19    1               0.0000000000
     20032       649  ECLIPA    C32            14.7115474037       27.7133224529       14.2780289507  LPSA19    1               0.0000000000
     20033       649  ECLIPA    H32R           15.5725194667       27.3061486819       13.7149713840  LPSA19    1               0.0000000000
     20034       649  ECLIPA    H32S           14.6649811494       27.2777317772       15.2729523512  LPSA19    1               0.0000000000
     20035       649  ECLIPA    CA2            10.6269019954       27.8120141445       13.4984733916  LPSA19    1               0.0000000000
     20036       649  ECLIPA    HA2            11.2012465085       28.7366515914       13.3982259915  LPSA19    1               0.0000000000
     20037       649  ECLIPA    NA2            10.4057879722       27.1341410978       12.2035087571  LPSA19    1               0.0000000000
     20038       649  ECLIPA    HNA2           10.8607616678       26.2846238096       12.0865030408  LPSA19    1               0.0000000000
     20039       649  ECLIPA    C73             7.9879305022       35.8751045366       14.3319064372  LPSA19    1               0.0000000000
     20040       649  ECLIPA    H73R            7.5470068084       36.3068471168       15.2227416964  LPSA19    1               0.0000000000
     20041       649  ECLIPA    O73             7.5923166450       34.4825111771       14.2644256719  LPSA19    1               0.0000000000
     20042       649  ECLIPA    C81             6.4983220108       33.9738952063       14.8555734565  LPSA19    1               0.0000000000
     20043       649  ECLIPA    O81             5.8480603277       34.7025697831       15.6690894779  LPSA19    1               0.0000000000
     20044       649  ECLIPA    C82             6.1837002592       32.5509479139       14.3536111794  LPSA19    1               0.0000000000
     20045       649  ECLIPA    H82R            5.3150464002       32.1339630500       14.8531840528  LPSA19    1               0.0000000000
     20046       649  ECLIPA    H82S            7.0369790347       31.8569430749       14.5323473422  LPSA19    1               0.0000000000
     20047       649  ECLIPA    C83             5.9354733833       32.5741190531       12.8301722806  LPSA19    1               0.0000000000
     20048       649  ECLIPA    H83R            6.9246718430       32.5674320773       12.2351841548  LPSA19    1               0.0000000000
     20049       649  ECLIPA    H83S            5.5137423284       33.5519928245       12.5911296392  LPSA19    1               0.0000000000
     20050       649  ECLIPA    C84             5.1629127620       31.3466926826       12.3050927261  LPSA19    1               0.0000000000
     20051       649  ECLIPA    H84R            4.1064688815       31.4622469720       12.5767117503  LPSA19    1               0.0000000000
     20052       649  ECLIPA    H84S            5.6757589336       30.5139062071       12.7369555497  LPSA19    1               0.0000000000
     20053       649  ECLIPA    C85             5.2935638890       31.2191863044       10.7695484051  LPSA19    1               0.0000000000
     20054       649  ECLIPA    H85R            6.3506704070       31.4175463768       10.5503608829  LPSA19    1               0.0000000000
     20055       649  ECLIPA    H85S            4.7195172854       32.0373231536       10.2367999955  LPSA19    1               0.0000000000
     20056       649  ECLIPA    C86             4.9912124731       29.7679438380       10.3034592726  LPSA19    1               0.0000000000
     20057       649  ECLIPA    H86R            3.9055932646       29.6072384865        9.9932223571  LPSA19    1               0.0000000000
     20058       649  ECLIPA    H86S            5.1838889721       29.0523168526       11.0807540114  LPSA19    1               0.0000000000
     20059       649  ECLIPA    C87             5.9546767911       29.2976242193        9.1601018854  LPSA19    1               0.0000000000
     20060       649  ECLIPA    H87R            5.6920342327       28.3063703198        8.8049419625  LPSA19    1               0.0000000000
     20061       649  ECLIPA    H87S            7.0072911566       29.1999677712        9.5406723883  LPSA19    1               0.0000000000
     20062       649  ECLIPA    C88             6.0233823700       30.2969831311        8.0318999685  LPSA19    1               0.0000000000
     20063       649  ECLIPA    H88R            6.6384290514       31.2020377632        8.3479828359  LPSA19    1               0.0000000000
     20064       649  ECLIPA    H88S            5.0231293857       30.8092031868        7.9254521495  LPSA19    1               0.0000000000
     20065       649  ECLIPA    C89             6.6576185688       29.7521952924        6.7101000712  LPSA19    1               0.0000000000
     20066       649  ECLIPA    H89R            7.2426888287       28.8217678856        6.8746682686  LPSA19    1               0.0000000000
     20067       649  ECLIPA    H89S            7.3433278320       30.4248659575        6.2317001698  LPSA19    1               0.0000000000
     20068       649  ECLIPA    C810            5.5198844402       29.5004262549        5.7047246593  LPSA19    1               0.0000000000
     20069       649  ECLIPA    H810R           4.7825985064       30.2648817143        6.0108430704  LPSA19    1               0.0000000000
     20070       649  ECLIPA    H810S           5.1267307842       28.5134536029        5.8554647029  LPSA19    1               0.0000000000
     20071       649  ECLIPA    C811            5.8892537594       29.6430150849        4.2179945741  LPSA19    1               0.0000000000
     20072       649  ECLIPA    H811R           5.2562051264       29.1866875215        3.5081125689  LPSA19    1               0.0000000000
     20073       649  ECLIPA    H811S           6.9784707439       29.2656264205        4.1819101877  LPSA19    1               0.0000000000
     20074       649  ECLIPA    C812            6.1258294732       31.0844557766        3.7413673409  LPSA19    1               0.0000000000
     20075       649  ECLIPA    H812R           6.5522016059       31.0156102968        2.6403157337  LPSA19    1               0.0000000000
     20076       649  ECLIPA    H812S           6.7298885670       31.6799801358        4.4144737196  LPSA19    1               0.0000000000
     20077       649  ECLIPA    C813            4.8537396828       31.9498419556        3.6785234959  LPSA19    1               0.0000000000
     20078       649  ECLIPA    H813R           4.1761121646       31.4598304973        2.9398073555  LPSA19    1               0.0000000000
     20079       649  ECLIPA    H813S           4.2577856882       32.0417367416        4.6616087352  LPSA19    1               0.0000000000
     20080       649  ECLIPA    C814            5.0936677073       33.3443302747        3.1377409857  LPSA19    1               0.0000000000
     20081       649  ECLIPA    H814R           5.7522327882       33.4196948619        2.1719074593  LPSA19    1               0.0000000000
     20082       649  ECLIPA    H814S           5.5700574580       33.9550569417        3.9166242729  LPSA19    1               0.0000000000
     20083       649  ECLIPA    H814T           4.1291600799       33.8464058427        2.8964685373  LPSA19    1               0.0000000000
     20084       649  ECLIPA    C74             7.2621663754       36.5279465631       13.1792855021  LPSA19    1               0.0000000000
     20085       649  ECLIPA    H74R            7.3897019792       37.5929479329       12.9935747315  LPSA19    1               0.0000000000
     20086       649  ECLIPA    H74S            6.1223505926       36.3563221739       13.3086690609  LPSA19    1               0.0000000000
     20087       649  ECLIPA    C75             7.5515095188       35.7639831798       11.8151371119  LPSA19    1               0.0000000000
     20088       649  ECLIPA    H75R            6.5744114426       35.8056045039       11.2107603889  LPSA19    1               0.0000000000
     20089       649  ECLIPA    H75S            7.7838705662       34.6990678189       12.0082837783  LPSA19    1               0.0000000000
     20090       649  ECLIPA    C76             8.6771566299       36.3591645546       10.9251453624  LPSA19    1               0.0000000000
     20091       649  ECLIPA    H76R            9.6679829990       36.0457909937       11.3555905686  LPSA19    1               0.0000000000
     20092       649  ECLIPA    H76S            8.7186993952       37.5257836662       10.9731137071  LPSA19    1               0.0000000000
     20093       649  ECLIPA    C77             8.6730962539       35.9943877896        9.4191603634  LPSA19    1               0.0000000000
     20094       649  ECLIPA    H77R            7.7480750433       36.3559972330        9.0408775908  LPSA19    1               0.0000000000
     20095       649  ECLIPA    H77S            8.5635684077       34.8934632217        9.2852383479  LPSA19    1               0.0000000000
     20096       649  ECLIPA    C78            10.0049063222       36.4756601158        8.8297405752  LPSA19    1               0.0000000000
     20097       649  ECLIPA    H78R           10.1507687954       37.5047592804        9.1562620580  LPSA19    1               0.0000000000
     20098       649  ECLIPA    H78S           10.7750042760       35.8158149911        9.3169442960  LPSA19    1               0.0000000000
     20099       649  ECLIPA    C79            10.1723201066       36.1270149207        7.2570767761  LPSA19    1               0.0000000000
     20100       649  ECLIPA    H79R           10.7704397652       35.1679002033        7.1763205913  LPSA19    1               0.0000000000
     20101       649  ECLIPA    H79S           10.7538795906       36.9266499107        6.7882549413  LPSA19    1               0.0000000000
     20102       649  ECLIPA    C710            8.9184314328       36.1813606054        6.3785096220  LPSA19    1               0.0000000000
     20103       649  ECLIPA    H710R           8.2149735769       35.4533643420        6.8460783027  LPSA19    1               0.0000000000
     20104       649  ECLIPA    H710S           8.5136376792       37.1162399954        6.4843026416  LPSA19    1               0.0000000000
     20105       649  ECLIPA    C711            9.1514361835       35.7739850070        4.9384125046  LPSA19    1               0.0000000000
     20106       649  ECLIPA    H711R           9.8536492250       36.5231087472        4.5670708729  LPSA19    1               0.0000000000
     20107       649  ECLIPA    H711S           9.5577921724       34.7306535380        4.9306188492  LPSA19    1               0.0000000000
     20108       649  ECLIPA    C712            7.8167948807       35.7903589375        4.2148670498  LPSA19    1               0.0000000000
     20109       649  ECLIPA    H712R           7.4299486605       36.8106642937        4.3130666899  LPSA19    1               0.0000000000
     20110       649  ECLIPA    H712S           7.1606298725       35.1742253120        4.8522839389  LPSA19    1               0.0000000000
     20111       649  ECLIPA    C713            7.9383334819       35.2176406072        2.7357390519  LPSA19    1               0.0000000000
     20112       649  ECLIPA    H713R           8.2697777744       34.1516439752        2.8800411466  LPSA19    1               0.0000000000
     20113       649  ECLIPA    H713S           6.8851809879       35.2992483555        2.2750064041  LPSA19    1               0.0000000000
     20114       649  ECLIPA    C714            8.8588037181       36.1148849946        1.8879763961  LPSA19    1               0.0000000000
     20115       649  ECLIPA    H714R           8.4337187703       37.1207370711        1.7626189762  LPSA19    1               0.0000000000
     20116       649  ECLIPA    H714S           9.9064468043       36.0598748683        2.2081901572  LPSA19    1               0.0000000000
     20117       649  ECLIPA    H714T           8.7732657358       35.6476877853        0.9249202435  LPSA19    1               0.0000000000
     20118       649  ECLIPA    C51            10.7240865648       32.0675160816       14.2380633031  LPSA19    1               0.0000000000
     20119       649  ECLIPA    O51             9.4845822129       31.9510661965       14.1304636378  LPSA19    1               0.0000000000
     20120       649  ECLIPA    C52            11.6343055721       32.4526802971       13.0157035712  LPSA19    1               0.0000000000
     20121       649  ECLIPA    H52R           11.7952602981       33.5143352324       12.8950255930  LPSA19    1               0.0000000000
     20122       649  ECLIPA    H52S           12.5541397887       31.9527240868       13.2222025935  LPSA19    1               0.0000000000
     20123       649  ECLIPA    C53            11.0313115455       31.7278963866       11.7526064304  LPSA19    1               0.0000000000
     20124       649  ECLIPA    H53R           10.4659776083       30.8377466479       12.0082431084  LPSA19    1               0.0000000000
     20125       649  ECLIPA    O53            12.1301805460       31.5562657960       10.8431816314  LPSA19    1               0.0000000000
     20126       649  ECLIPA    C61            12.4834627377       30.3260067408       10.5090573566  LPSA19    1               0.0000000000
     20127       649  ECLIPA    O61            11.9538290642       29.3206690562       10.8659713306  LPSA19    1               0.0000000000
     20128       649  ECLIPA    C62            13.7000312603       30.3886354411        9.5765835255  LPSA19    1               0.0000000000
     20129       649  ECLIPA    H62R           14.5928247187       30.5564097296       10.2152837125  LPSA19    1               0.0000000000
     20130       649  ECLIPA    H62S           13.6283268670       31.3628844040        9.0470049452  LPSA19    1               0.0000000000
     20131       649  ECLIPA    C63            13.8035117353       29.1279702196        8.6803029234  LPSA19    1               0.0000000000
     20132       649  ECLIPA    H63R           12.7948514195       28.9364916898        8.2798705976  LPSA19    1               0.0000000000
     20133       649  ECLIPA    H63S           14.1105262002       28.1932303916        9.3252199642  LPSA19    1               0.0000000000
     20134       649  ECLIPA    C64            14.7308359394       29.1655728929        7.5279067597  LPSA19    1               0.0000000000
     20135       649  ECLIPA    H64R           14.8026386697       28.1690950178        6.9620099216  LPSA19    1               0.0000000000
     20136       649  ECLIPA    H64S           15.7574609775       29.4483732532        7.9657393466  LPSA19    1               0.0000000000
     20137       649  ECLIPA    C65            14.3077923550       30.3101685224        6.5414948800  LPSA19    1               0.0000000000
     20138       649  ECLIPA    H65R           14.3869053445       31.1793656985        7.2423230371  LPSA19    1               0.0000000000
     20139       649  ECLIPA    H65S           13.2712957982       30.1251046831        6.1828980290  LPSA19    1               0.0000000000
     20140       649  ECLIPA    C66            15.1849165506       30.5062976111        5.2222643966  LPSA19    1               0.0000000000
     20141       649  ECLIPA    H66R           16.1996545967       30.7369181923        5.5395647249  LPSA19    1               0.0000000000
     20142       649  ECLIPA    H66S           14.6776898138       31.4289389017        4.8113963288  LPSA19    1               0.0000000000
     20143       649  ECLIPA    C67            15.1674094397       29.4268876175        4.1696839457  LPSA19    1               0.0000000000
     20144       649  ECLIPA    H67R           15.3678410227       28.4342880062        4.5058181646  LPSA19    1               0.0000000000
     20145       649  ECLIPA    H67S           15.8956269183       29.6814600379        3.3478820057  LPSA19    1               0.0000000000
     20146       649  ECLIPA    C68            13.8285639556       29.2313645788        3.5077075145  LPSA19    1               0.0000000000
     20147       649  ECLIPA    H68R           13.3428869072       30.1050723267        3.0112508411  LPSA19    1               0.0000000000
     20148       649  ECLIPA    H68S           13.2425809143       28.8178914877        4.3087918325  LPSA19    1               0.0000000000
     20149       649  ECLIPA    C69            13.9807184987       28.3127148143        2.2963532923  LPSA19    1               0.0000000000
     20150       649  ECLIPA    H69R           14.8250758953       27.5969647382        2.3203210098  LPSA19    1               0.0000000000
     20151       649  ECLIPA    H69S           14.2755246708       28.9555539273        1.4693744207  LPSA19    1               0.0000000000
     20152       649  ECLIPA    C610           12.7441948052       27.5715583996        1.9396251084  LPSA19    1               0.0000000000
     20153       649  ECLIPA    H610R          11.8459869307       28.2379075867        2.0603347121  LPSA19    1               0.0000000000
     20154       649  ECLIPA    H610S          12.5672781854       26.7363116443        2.6933643884  LPSA19    1               0.0000000000
     20155       649  ECLIPA    C611           12.8126520733       26.8831751183        0.5312153135  LPSA19    1               0.0000000000
     20156       649  ECLIPA    H611R          13.6784462165       26.1938680978        0.5735373188  LPSA19    1               0.0000000000
     20157       649  ECLIPA    H611S          12.0356138373       26.1531554041        0.3609598123  LPSA19    1               0.0000000000
     20158       649  ECLIPA    C612           12.8281390288       27.9205818065       -0.5788949292  LPSA19    1               0.0000000000
     20159       649  ECLIPA    H612R          11.8206653538       28.4232949624       -0.6060949542  LPSA19    1               0.0000000000
     20160       649  ECLIPA    H612S          13.5286829635       28.7219386608       -0.3132441764  LPSA19    1               0.0000000000
     20161       649  ECLIPA    H612T          13.0289632158       27.4753761284       -1.5574606966  LPSA19    1               0.0000000000
     20162       649  ECLIPA    C54            10.0540396175       32.7694783954       11.1776054589  LPSA19    1               0.0000000000
     20163       649  ECLIPA    H54R           10.6456550239       33.6882092584       10.8869876633  LPSA19    1               0.0000000000
     20164       649  ECLIPA    H54S            9.3568593998       33.1161615553       11.9574517429  LPSA19    1               0.0000000000
     20165       649  ECLIPA    C55             9.1771120910       32.3861254484        9.9916770240  LPSA19    1               0.0000000000
     20166       649  ECLIPA    H55R            8.3358351778       33.0860195286        9.7856946516  LPSA19    1               0.0000000000
     20167       649  ECLIPA    H55S            8.7017005344       31.3720857963       10.2436295858  LPSA19    1               0.0000000000
     20168       649  ECLIPA    C56            10.0281158754       32.4529419181        8.7515486822  LPSA19    1               0.0000000000
     20169       649  ECLIPA    H56R           10.8959578142       31.7297858434        8.8382497819  LPSA19    1               0.0000000000
     20170       649  ECLIPA    H56S           10.4239229056       33.3830341643        8.4741334449  LPSA19    1               0.0000000000
     20171       649  ECLIPA    C57             9.4071431156       31.8405800794        7.4395707935  LPSA19    1               0.0000000000
     20172       649  ECLIPA    H57R            8.4400205757       32.2764738440        7.1827428724  LPSA19    1               0.0000000000
     20173       649  ECLIPA    H57S            9.1988393663       30.7526043510        7.5196553379  LPSA19    1               0.0000000000
     20174       649  ECLIPA    C58            10.4278999292       31.9564439084        6.2350750625  LPSA19    1               0.0000000000
     20175       649  ECLIPA    H58R           10.9106385219       32.9724847478        6.2095761879  LPSA19    1               0.0000000000
     20176       649  ECLIPA    H58S           11.3191954913       31.3339159176        6.5224540661  LPSA19    1               0.0000000000
     20177       649  ECLIPA    C59             9.7412543005       31.6872631547        4.8667186835  LPSA19    1               0.0000000000
     20178       649  ECLIPA    H59R            8.9057856934       32.3796470890        4.6589989540  LPSA19    1               0.0000000000
     20179       649  ECLIPA    H59S            9.3875223223       30.6599018722        5.0825555512  LPSA19    1               0.0000000000
     20180       649  ECLIPA    C510           10.6842565020       31.9352538802        3.6752379292  LPSA19    1               0.0000000000
     20181       649  ECLIPA    H510R          11.7383126741       31.5071816280        3.7937959224  LPSA19    1               0.0000000000
     20182       649  ECLIPA    H510S          10.8278948672       33.0886419815        3.4613250382  LPSA19    1               0.0000000000
     20183       649  ECLIPA    C511           10.1929783953       31.4348984201        2.3004848829  LPSA19    1               0.0000000000
     20184       649  ECLIPA    H511R          10.4123597412       30.3504030900        2.2679211996  LPSA19    1               0.0000000000
     20185       649  ECLIPA    H511S           9.0719919370       31.5126220220        2.1940961976  LPSA19    1               0.0000000000
     20186       649  ECLIPA    C512           10.8693232928       32.0469631195        1.0189424135  LPSA19    1               0.0000000000
     20187       649  ECLIPA    H512R          10.2788756351       31.7755584227        0.0815295424  LPSA19    1               0.0000000000
     20188       649  ECLIPA    H512S          10.9094038253       33.1392463410        1.1129704346  LPSA19    1               0.0000000000
     20189       649  ECLIPA    C513           12.2920793213       31.4274475869        0.6457389972  LPSA19    1               0.0000000000
     20190       649  ECLIPA    H513R          12.2266863571       30.3044821054        0.5010832175  LPSA19    1               0.0000000000
     20191       649  ECLIPA    H513S          12.9599696828       31.5725274876        1.4088770719  LPSA19    1               0.0000000000
     20192       649  ECLIPA    C514           12.7919543401       31.9899196702       -0.6567184026  LPSA19    1               0.0000000000
     20193       649  ECLIPA    H514R          12.8064448987       33.0792168221       -0.6273993866  LPSA19    1               0.0000000000
     20194       649  ECLIPA    H514S          13.8385947132       31.6809341478       -0.7024724270  LPSA19    1               0.0000000000
     20195       649  ECLIPA    H514T          12.1540317635       31.6267158689       -1.5427815912  LPSA19    1               0.0000000000
     20196       649  ECLIPA    C33            15.0659288489       29.2550036293       14.4880792826  LPSA19    1               0.0000000000
     20197       649  ECLIPA    H33R           16.1347386493       29.3016464891       14.8828993596  LPSA19    1               0.0000000000
     20198       649  ECLIPA    O33            14.2275046949       29.8357734880       15.4699768821  LPSA19    1               0.0000000000
     20199       649  ECLIPA    HO33           14.4888685331       29.5185091840       16.2926205744  LPSA19    1               0.0000000000
     20200       649  ECLIPA    C34            15.0170395842       30.1554189701       13.2255459338  LPSA19    1               0.0000000000
     20201       649  ECLIPA    H34R           14.0194944113       30.1275884204       12.8010908313  LPSA19    1               0.0000000000
     20202       649  ECLIPA    H34S           15.6605183648       29.6994228494       12.3772221142  LPSA19    1               0.0000000000
     20203       649  ECLIPA    C35            15.4061395049       31.6315306402       13.4256256262  LPSA19    1               0.0000000000
     20204       649  ECLIPA    H35R           16.4589067534       31.6676270322       13.6963698038  LPSA19    1               0.0000000000
     20205       649  ECLIPA    H35S           14.8289112087       32.0366069512       14.2668166019  LPSA19    1               0.0000000000
     20206       649  ECLIPA    C36            15.3408652677       32.5477084844       12.1865608177  LPSA19    1               0.0000000000
     20207       649  ECLIPA    H36R           14.4551544038       32.0479513911       11.7430812241  LPSA19    1               0.0000000000
     20208       649  ECLIPA    H36S           16.2272792157       32.4883237642       11.4785220412  LPSA19    1               0.0000000000
     20209       649  ECLIPA    C37            14.8806712716       33.9529691424       12.5255831563  LPSA19    1               0.0000000000
     20210       649  ECLIPA    H37R           15.8928332630       34.5447439554       12.6765215637  LPSA19    1               0.0000000000
     20211       649  ECLIPA    H37S           14.3855458673       34.0084435460       13.5128993321  LPSA19    1               0.0000000000
     20212       649  ECLIPA    C38            14.0627611731       34.6943739877       11.4317274953  LPSA19    1               0.0000000000
     20213       649  ECLIPA    H38R           13.0002196980       34.4005495187       11.4067421357  LPSA19    1               0.0000000000
     20214       649  ECLIPA    H38S           14.0238106856       35.7596262769       11.7230999881  LPSA19    1               0.0000000000
     20215       649  ECLIPA    C39            14.6320829900       34.4394622872       10.0213367345  LPSA19    1               0.0000000000
     20216       649  ECLIPA    H39R           14.6992992492       33.3386965735        9.8128797222  LPSA19    1               0.0000000000
     20217       649  ECLIPA    H39S           15.6084833038       34.9904313825        9.9697980947  LPSA19    1               0.0000000000
     20218       649  ECLIPA    C310           13.8693792779       35.0762192600        8.8401719124  LPSA19    1               0.0000000000
     20219       649  ECLIPA    H310R          13.9704461033       36.2033631477        9.0626900142  LPSA19    1               0.0000000000
     20220       649  ECLIPA    H310S          12.7786659166       34.7893367013        8.8945759064  LPSA19    1               0.0000000000
     20221       649  ECLIPA    C311           14.2552819507       34.4754999790        7.5676235846  LPSA19    1               0.0000000000
     20222       649  ECLIPA    H311R          15.3555529360       34.2685903049        7.5507520616  LPSA19    1               0.0000000000
     20223       649  ECLIPA    H311S          13.7397910648       33.5060780947        7.2851462164  LPSA19    1               0.0000000000
     20224       649  ECLIPA    C312           13.8871413685       35.3204493869        6.3280121142  LPSA19    1               0.0000000000
     20225       649  ECLIPA    H312R          12.9164423313       35.8547103422        6.4861373960  LPSA19    1               0.0000000000
     20226       649  ECLIPA    H312S          14.6994808629       36.0759788933        6.1820758986  LPSA19    1               0.0000000000
     20227       649  ECLIPA    C313           13.7966641969       34.5177580532        4.9895779706  LPSA19    1               0.0000000000
     20228       649  ECLIPA    H313R          14.7975783277       34.2948127000        4.7825120466  LPSA19    1               0.0000000000
     20229       649  ECLIPA    H313S          13.2414711752       33.5527575040        5.1572698764  LPSA19    1               0.0000000000
     20230       649  ECLIPA    C314           13.1985906253       35.2139176207        3.8116661598  LPSA19    1               0.0000000000
     20231       649  ECLIPA    H314R          13.7775697336       36.1552885243        3.6067793993  LPSA19    1               0.0000000000
     20232       649  ECLIPA    H314S          13.1524881712       34.6359828704        2.8849361441  LPSA19    1               0.0000000000
     20233       649  ECLIPA    H314T          12.1312746431       35.5608200192        4.0446347774  LPSA19    1               0.0000000000
     20234       649  ECLIPA    C11             9.5304278920       27.4739079342       11.2900808200  LPSA19    1               0.0000000000
     20235       649  ECLIPA    O11             8.9379756355       28.5353451443       11.1394597694  LPSA19    1               0.0000000000
     20236       649  ECLIPA    C12             9.1642950560       26.3414906576       10.2853014675  LPSA19    1               0.0000000000
     20237       649  ECLIPA    H12R            8.1388737258       25.9382104165       10.4852637814  LPSA19    1               0.0000000000
     20238       649  ECLIPA    H12S            9.9264777884       25.5525520265       10.5222272274  LPSA19    1               0.0000000000
     20239       649  ECLIPA    C13             9.2650888884       26.7096049361        8.8110583416  LPSA19    1               0.0000000000
     20240       649  ECLIPA    H13R            8.8148621578       27.7484380480        8.5839874118  LPSA19    1               0.0000000000
     20241       649  ECLIPA    O13             8.4395312161       25.7283700134        8.1311342176  LPSA19    1               0.0000000000
     20242       649  ECLIPA    HO13            8.1480103501       26.0710494540        7.3064966676  LPSA19    1               0.0000000000
     20243       649  ECLIPA    C14            10.7341196850       26.7221830299        8.4581579993  LPSA19    1               0.0000000000
     20244       649  ECLIPA    H14R           11.3159275686       25.8717441114        8.9706443184  LPSA19    1               0.0000000000
     20245       649  ECLIPA    H14S           11.1268881421       27.7256191853        8.7243868424  LPSA19    1               0.0000000000
     20246       649  ECLIPA    C15            11.0180586410       26.5625567265        6.9526486677  LPSA19    1               0.0000000000
     20247       649  ECLIPA    H15R           10.5053068884       25.7049379491        6.5500123177  LPSA19    1               0.0000000000
     20248       649  ECLIPA    H15S           12.1024872080       26.4665899149        6.8782608049  LPSA19    1               0.0000000000
     20249       649  ECLIPA    C16            10.5116275943       27.7950523319        6.1622847334  LPSA19    1               0.0000000000
     20250       649  ECLIPA    H16R           11.2308649489       28.6865053093        6.2733383262  LPSA19    1               0.0000000000
     20251       649  ECLIPA    H16S            9.6545049030       28.2122552336        6.7182496574  LPSA19    1               0.0000000000
     20252       649  ECLIPA    C17            10.2832945249       27.5072275223        4.6801229578  LPSA19    1               0.0000000000
     20253       649  ECLIPA    H17R           11.2157378781       26.9165388450        4.4246758429  LPSA19    1               0.0000000000
     20254       649  ECLIPA    H17S           10.2708654211       28.3689452791        4.0046542873  LPSA19    1               0.0000000000
     20255       649  ECLIPA    C18             9.0339915630       26.7011646398        4.4504458171  LPSA19    1               0.0000000000
     20256       649  ECLIPA    H18R            9.1884522917       25.8707150626        5.0865821920  LPSA19    1               0.0000000000
     20257       649  ECLIPA    H18S            8.1543396167       27.3274568662        4.7749867078  LPSA19    1               0.0000000000
     20258       649  ECLIPA    C19             8.8711645427       26.2852414444        3.0097966450  LPSA19    1               0.0000000000
     20259       649  ECLIPA    H19R            8.0320902126       25.6091855918        2.9245509529  LPSA19    1               0.0000000000
     20260       649  ECLIPA    H19S            9.8176421278       25.7808452910        2.6238151240  LPSA19    1               0.0000000000
     20261       649  ECLIPA    C110            8.5254576811       27.4929841219        2.1045801788  LPSA19    1               0.0000000000
     20262       649  ECLIPA    H110R           7.6937058088       28.1137675603        2.4416701971  LPSA19    1               0.0000000000
     20263       649  ECLIPA    H110S           9.4884090636       28.0470022472        2.1583327743  LPSA19    1               0.0000000000
     20264       649  ECLIPA    C111            8.3011088730       27.0041112408        0.7563571155  LPSA19    1               0.0000000000
     20265       649  ECLIPA    H111R           9.0325327057       26.2259832385        0.3999767799  LPSA19    1               0.0000000000
     20266       649  ECLIPA    H111S           7.3798146396       26.4835463795        0.7977177860  LPSA19    1               0.0000000000
     20267       649  ECLIPA    C112            8.1574047869       28.1168246774       -0.2937360943  LPSA19    1               0.0000000000
     20268       649  ECLIPA    H112R           7.3359846980       28.7013228931        0.1973446929  LPSA19    1               0.0000000000
     20269       649  ECLIPA    H112S           8.9740166434       28.8392116022       -0.2177998937  LPSA19    1               0.0000000000
     20270       649  ECLIPA    C113            8.1358320642       27.6153738598       -1.7468031795  LPSA19    1               0.0000000000
     20271       649  ECLIPA    H113R           9.1395587683       27.1908303329       -1.9802017524  LPSA19    1               0.0000000000
     20272       649  ECLIPA    H113S           7.4638333773       26.7578364353       -1.8531093719  LPSA19    1               0.0000000000
     20273       649  ECLIPA    C114            7.6520974521       28.5408939760       -2.8344928043  LPSA19    1               0.0000000000
     20274       649  ECLIPA    H114R           6.7022312956       29.0659936896       -2.7829422503  LPSA19    1               0.0000000000
     20275       649  ECLIPA    H114S           8.4107739215       29.3571527790       -2.9951089580  LPSA19    1               0.0000000000
     20276       649  ECLIPA    H114T           7.4242229197       27.9452826755       -3.7399523103  LPSA19    1               0.0000000000
     20277       650  AKDO      C1             11.4627434940       33.2587911955       22.4410509549  LPSA19    2               0.0000000000
     20278       650  AKDO      O11            11.2719675953       34.5222550776       22.4913720772  LPSA19    2               0.0000000000
     20279       650  AKDO      O12            12.4785967598       32.6006476368       22.0800765534  LPSA19    2               0.0000000000
     20280       650  AKDO      C2             10.2709677321       32.4080878490       22.8913181237  LPSA19    2               0.0000000000
     20281       650  AKDO      C6              8.0940370947       32.5847243058       23.8039205188  LPSA19    2               0.0000000000
     20282       650  AKDO      H6              7.6839102695       32.1145479142       22.9487387861  LPSA19    2               0.0000000000
     20283       650  AKDO      O6              9.3439966329       33.2905294907       23.4267274814  LPSA19    2               0.0000000000
     20284       650  AKDO      C3             10.6124199371       31.4429406574       23.9587385105  LPSA19    2               0.0000000000
     20285       650  AKDO      H31            11.1078258817       31.8530118147       24.7868435866  LPSA19    2               0.0000000000
     20286       650  AKDO      H32            11.2783969864       30.6150770968       23.4151264596  LPSA19    2               0.0000000000
     20287       650  AKDO      C4              9.3636128300       30.6757279032       24.3842593775  LPSA19    2               0.0000000000
     20288       650  AKDO      H4              8.8564975209       30.2117708528       23.5563617270  LPSA19    2               0.0000000000
     20289       650  AKDO      O4              9.7216639884       29.6833424143       25.3355834555  LPSA19    2               0.0000000000
     20290       650  AKDO      C5              8.3183422511       31.5407976384       24.9292437177  LPSA19    2               0.0000000000
     20291       650  AKDO      H5              7.3476362549       30.9842100795       25.0107888161  LPSA19    2               0.0000000000
     20292       650  AKDO      O5              8.8212886207       32.1172265694       26.2083878813  LPSA19    2               0.0000000000
     20293       650  AKDO      C7              6.9210219606       33.5950141813       24.1981149098  LPSA19    2               0.0000000000
     20294       650  AKDO      H7              7.2280555807       34.1310852938       25.0939202098  LPSA19    2               0.0000000000
     20295       650  AKDO      O7              5.6483293396       32.9122719856       24.3482682347  LPSA19    2               0.0000000000
     20296       650  AKDO      HO7             5.3536674551       32.7430637264       23.4945166536  LPSA19    2               0.0000000000
     20297       650  AKDO      C8              6.7788193792       34.5783386567       22.9864433882  LPSA19    2               0.0000000000
     20298       650  AKDO      H81             7.7775432794       35.0720111229       22.9153150275  LPSA19    2               0.0000000000
     20299       650  AKDO      H82             6.4944027334       33.9334605011       22.0745354517  LPSA19    2               0.0000000000
     20300       650  AKDO      O8              5.7523423957       35.5920338266       23.3537996748  LPSA19    2               0.0000000000
     20301       650  AKDO      HO8             6.0009960480       36.4481854607       22.9179804014  LPSA19    2               0.0000000000
     20302       651  AKDO      C1              9.4371132223       27.8966269171       23.8027969005  LPSA19    3               1.0000000000
     20303       651  AKDO      O11             9.9502350978       27.9901923220       22.6471489042  LPSA19    3               1.0000000000
     20304       651  AKDO      O12             8.3194723337       27.3921321181       24.0656860145  LPSA19    3               1.0000000000
     20305       651  AKDO      C2             10.2077549188       28.3961097685       25.0166033796  LPSA19    3               1.0000000000
     20306       651  AKDO      C6             12.3955337066       29.0496740877       25.7688829792  LPSA19    3               1.0000000000
     20307       651  AKDO      H6             12.0423042090       30.1109891136       25.9810553331  LPSA19    3               1.0000000000
     20308       651  AKDO      O6             11.6418883322       28.4957750712       24.7076657818  LPSA19    3               1.0000000000
     20309       651  AKDO      C3             10.0400457045       27.5682563396       26.3187707743  LPSA19    3               1.0000000000
     20310       651  AKDO      H31            10.4374052468       26.4839233702       26.1504935106  LPSA19    3               1.0000000000
     20311       651  AKDO      H32             8.9798234232       27.4787002417       26.5929217108  LPSA19    3               1.0000000000
     20312       651  AKDO      C4             10.8491106554       28.2321007223       27.4036122013  LPSA19    3               1.0000000000
     20313       651  AKDO      H4             10.5779990490       29.2922970213       27.4051754129  LPSA19    3               1.0000000000
     20314       651  AKDO      O4             10.6616237492       27.7403788110       28.7388570077  LPSA19    3               1.0000000000
     20315       651  AKDO      HO4            10.3766455982       28.3881690526       29.3717785514  LPSA19    3               1.0000000000
     20316       651  AKDO      C5             12.2145541430       28.2556125941       27.0369167275  LPSA19    3               1.0000000000
     20317       651  AKDO      H5             12.8225388655       28.6770271858       27.9236884022  LPSA19    3               1.0000000000
     20318       651  AKDO      O5             12.7131442884       26.9177364815       26.8495261943  LPSA19    3               1.0000000000
     20319       651  AKDO      HO5            12.2158300502       26.4819642922       26.1887877298  LPSA19    3               1.0000000000
     20320       651  AKDO      C7             13.8366972012       29.0860058422       25.3258859863  LPSA19    3               1.0000000000
     20321       651  AKDO      H7             14.2360764494       28.0477480186       25.1324849511  LPSA19    3               1.0000000000
     20322       651  AKDO      O7             14.6210557041       29.7318913206       26.3661029982  LPSA19    3               1.0000000000
     20323       651  AKDO      HO7            15.5724162136       29.6059241220       26.1647669547  LPSA19    3               1.0000000000
     20324       651  AKDO      C8             13.9098221289       29.9736584592       24.1539635864  LPSA19    3               1.0000000000
     20325       651  AKDO      H81            13.2789750305       29.5887423125       23.3419478721  LPSA19    3               1.0000000000
     20326       651  AKDO      H82            13.6287689467       31.0294415171       24.2853144505  LPSA19    3               1.0000000000
     20327       651  AKDO      O8             15.2279062235       29.9992144775       23.6541307456  LPSA19    3               1.0000000000
     20328       651  AKDO      HO8            15.2002113350       29.1128705872       23.2473452835  LPSA19    3               1.0000000000
     20329       652  AHEP      C1              7.9152079057       32.3265467127       27.2793229502  LPSA19    4               2.0000000000
     20330       652  AHEP      H1              7.5109901675       33.3017237616       26.8517192453  LPSA19    4               2.0000000000
     20331       652  AHEP      C5              7.0792926232       30.1754946019       28.0185271385  LPSA19    4               2.0000000000
     20332       652  AHEP      H5              8.0769291668       29.8028577974       27.5619054335  LPSA19    4               2.0000000000
     20333       652  AHEP      O5              6.8094554797       31.4277329030       27.3942805697  LPSA19    4               2.0000000000
     20334       652  AHEP      C2              8.3546101574       32.6576258027       28.6827861277  LPSA19    4               2.0000000000
     20335       652  AHEP      H2              9.2328579208       33.3097729256       28.7442425996  LPSA19    4               2.0000000000
     20336       652  AHEP      O2              7.3354024236       33.3192076652       29.3407203943  LPSA19    4               2.0000000000
     20337       652  AHEP      HO2             7.6956486951       34.0198174374       29.8507927467  LPSA19    4               2.0000000000
     20338       652  AHEP      C3              8.6808654442       31.3821926822       29.4857672188  LPSA19    4               2.0000000000
     20339       652  AHEP      H3              9.6213488624       30.8765999123       29.2269906369  LPSA19    4               2.0000000000
     20340       652  AHEP      O3              8.8971798455       31.6993760484       30.7882097304  LPSA19    4               2.0000000000
     20341       652  AHEP      C4              7.4909138379       30.4577712106       29.4546205599  LPSA19    4               2.0000000000
     20342       652  AHEP      H4              6.5749074491       30.8288055514       29.9788637739  LPSA19    4               2.0000000000
     20343       652  AHEP      O4              7.8546520468       29.2304663912       30.0145912217  LPSA19    4               2.0000000000
     20344       652  AHEP      P4              7.3028863399       28.7229218096       31.4978499249  LPSA19    4               2.0000000000
     20345       652  AHEP      OP42            8.3584562074       27.9257486896       32.1560374192  LPSA19    4               2.0000000000
     20346       652  AHEP      OP43            6.1421888203       27.8897758346       31.0397938518  LPSA19    4               2.0000000000
     20347       652  AHEP      OP44            6.7842482949       29.9507699921       32.3098937101  LPSA19    4               2.0000000000
     20348       652  AHEP      C6              5.9076614371       29.1522844366       27.7982482844  LPSA19    4               2.0000000000
     20349       652  AHEP      H6              6.3298613702       28.1409450958       28.0833143566  LPSA19    4               2.0000000000
     20350       652  AHEP      O6              4.8620804955       29.4983452109       28.7103505027  LPSA19    4               2.0000000000
     20351       652  AHEP      HO6             4.5364570088       28.7090400897       29.2203787365  LPSA19    4               2.0000000000
     20352       652  AHEP      C7              5.4084229627       29.0691107629       26.3054198206  LPSA19    4               2.0000000000
     20353       652  AHEP      H71             4.6818740546       28.2023415380       26.1576126064  LPSA19    4               2.0000000000
     20354       652  AHEP      H72             6.2891424328       29.0644741358       25.6323487339  LPSA19    4               2.0000000000
     20355       652  AHEP      O7              4.6431529011       30.2245398696       25.9755159574  LPSA19    4               2.0000000000
     20356       652  AHEP      HO7             3.7476945144       30.0934145667       26.3256794122  LPSA19    4               2.0000000000
     20357       653  AHEP      C1             10.1590493211       31.4154760010       31.4342177374  LPSA19    5               3.0000000000
     20358       653  AHEP      H1             10.6590503930       30.5203999671       30.9794447437  LPSA19    5               3.0000000000
     20359       653  AHEP      C5             10.5870554580       33.7090243562       31.9165413065  LPSA19    5               3.0000000000
     20360       653  AHEP      H5              9.4994221018       33.8657091131       31.6031509785  LPSA19    5               3.0000000000
     20361       653  AHEP      O5             11.0676397989       32.5239281233       31.3013865768  LPSA19    5               3.0000000000
     20362       653  AHEP      C2             10.0478063197       31.1420702668       32.9718957084  LPSA19    5               3.0000000000
     20363       653  AHEP      H2              9.2792475578       30.3121981384       33.0921707216  LPSA19    5               3.0000000000
     20364       653  AHEP      O2             11.2915746973       30.6848733482       33.4691025827  LPSA19    5               3.0000000000
     20365       653  AHEP      HO2            11.2528565323       29.7492561821       33.6403503244  LPSA19    5               3.0000000000
     20366       653  AHEP      C3              9.4957368177       32.3848726917       33.7004304811  LPSA19    5               3.0000000000
     20367       653  AHEP      H3              8.4922172835       32.6330951325       33.3375632548  LPSA19    5               3.0000000000
     20368       653  AHEP      O3              9.3673607560       32.2752065623       35.1462238331  LPSA19    5               3.0000000000
     20369       653  AHEP      C4             10.4629137128       33.4909872888       33.4524658705  LPSA19    5               3.0000000000
     20370       653  AHEP      H4             11.4898794684       33.2472140762       33.8188816395  LPSA19    5               3.0000000000
     20371       653  AHEP      O4              9.9396403705       34.6992786334       34.0881196202  LPSA19    5               3.0000000000
     20372       653  AHEP      P4             10.7330009721       35.3990359801       35.2810123301  LPSA19    5               3.0000000000
     20373       653  AHEP      OP42            9.8061181603       36.4628282337       35.8202965042  LPSA19    5               3.0000000000
     20374       653  AHEP      OP43           11.9920479789       36.0098423542       34.6107506294  LPSA19    5               3.0000000000
     20375       653  AHEP      OP44           11.1242300951       34.3074861156       36.2417033353  LPSA19    5               3.0000000000
     20376       653  AHEP      C6             11.3996538037       34.9602443776       31.5493607386  LPSA19    5               3.0000000000
     20377       653  AHEP      H6             10.9431688381       35.8793140280       31.9533288164  LPSA19    5               3.0000000000
     20378       653  AHEP      O6             12.7298924059       34.8443748402       32.0428602265  LPSA19    5               3.0000000000
     20379       653  AHEP      HO6            13.3351314599       34.2400156786       31.5367188277  LPSA19    5               3.0000000000
     20380       653  AHEP      C7             11.3074309345       35.2129436935       30.0822725317  LPSA19    5               3.0000000000
     20381       653  AHEP      H71            11.3386002869       36.3122476654       29.9169108581  LPSA19    5               3.0000000000
     20382       653  AHEP      H72            10.3737669632       34.8436918160       29.6179339851  LPSA19    5               3.0000000000
     20383       653  AHEP      O7             12.5190023123       34.6922831185       29.4957736452  LPSA19    5               3.0000000000
     20384       654  AHEP      C1             12.3412186256       33.4995932182       28.7926622005  LPSA19    6               4.0000000000
     20385       654  AHEP      H1             11.3233357456       33.0382482069       29.0422981953  LPSA19    6               4.0000000000
     20386       654  AHEP      C5             13.6132067614       34.2652649786       26.9237617191  LPSA19    6               4.0000000000
     20387       654  AHEP      H5             13.8011247057       35.1930510643       27.4818042043  LPSA19    6               4.0000000000
     20388       654  AHEP      O5             12.3740982471       33.6805592623       27.3547530115  LPSA19    6               4.0000000000
     20389       654  AHEP      C2             13.3850665042       32.5140941165       29.2397872647  LPSA19    6               4.0000000000
     20390       654  AHEP      H2             13.2411458576       32.3619570179       30.3523091474  LPSA19    6               4.0000000000
     20391       654  AHEP      O2             13.1643590936       31.2256464282       28.7267108980  LPSA19    6               4.0000000000
     20392       654  AHEP      HO2            12.8769898672       30.7277684325       29.4669064354  LPSA19    6               4.0000000000
     20393       654  AHEP      C3             14.7719945889       33.0819146913       28.8468391403  LPSA19    6               4.0000000000
     20394       654  AHEP      H3             14.9160147300       33.9991946054       29.4311808254  LPSA19    6               4.0000000000
     20395       654  AHEP      O3             15.9231868187       32.1791092911       29.2225362108  LPSA19    6               4.0000000000
     20396       654  AHEP      HO3            16.3880833187       32.3898722061       29.9865592523  LPSA19    6               4.0000000000
     20397       654  AHEP      C4             14.7430928142       33.2953910548       27.2761740859  LPSA19    6               4.0000000000
     20398       654  AHEP      H4             14.7314580318       32.3278193788       26.7944950683  LPSA19    6               4.0000000000
     20399       654  AHEP      O4             15.9760542009       33.8504703017       26.7938835778  LPSA19    6               4.0000000000
     20400       654  AHEP      HO4            15.9349931514       34.8161641817       27.1589530594  LPSA19    6               4.0000000000
     20401       654  AHEP      C6             13.5943201745       34.7067187835       25.4906533340  LPSA19    6               4.0000000000
     20402       654  AHEP      H6             14.5415758485       35.2140577026       25.3442628137  LPSA19    6               4.0000000000
     20403       654  AHEP      O6             13.6769739529       33.5633782464       24.6375675438  LPSA19    6               4.0000000000
     20404       654  AHEP      HO6            12.9590764722       33.5540344297       23.9977784313  LPSA19    6               4.0000000000
     20405       654  AHEP      C7             12.5118430697       35.6989424048       25.1799756221  LPSA19    6               4.0000000000
     20406       654  AHEP      H71            12.6989422323       36.0831416316       24.1408078076  LPSA19    6               4.0000000000
     20407       654  AHEP      H72            12.6188768869       36.5072611133       25.9252229174  LPSA19    6               4.0000000000
     20408       654  AHEP      O7             11.2189571451       35.1745881379       25.2517430265  LPSA19    6               4.0000000000
     20409       654  AHEP      HO7            10.9879696324       35.2366441953       26.2011285002  LPSA19    6               4.0000000000
     20410       655  AGLC      C1              8.1535132701       31.7387121885       35.6520976122  LPSA19    7               4.0000000000
     20411       655  AGLC      H1              7.2765219855       32.3219214234       35.2047739589  LPSA19    7               4.0000000000
     20412       655  AGLC      C5              8.9478141560       29.5629754437       36.0987679218  LPSA19    7               4.0000000000
     20413       655  AGLC      H5              9.9754109644       29.8496351846       35.8327124756  LPSA19    7               4.0000000000
     20414       655  AGLC      O5              8.0252087209       30.3629248915       35.4366254460  LPSA19    7               4.0000000000
     20415       655  AGLC      C2              8.0488544882       31.9251200404       37.1582745954  LPSA19    7               4.0000000000
     20416       655  AGLC      H2              7.0797841650       31.4037837757       37.4887389927  LPSA19    7               4.0000000000
     20417       655  AGLC      O2              7.7729333456       33.2967943762       37.5024056006  LPSA19    7               4.0000000000
     20418       655  AGLC      HO2             8.6282437430       33.6965554325       37.6430208865  LPSA19    7               4.0000000000
     20419       655  AGLC      C3              8.9775379883       31.1865684973       37.9903802326  LPSA19    7               4.0000000000
     20420       655  AGLC      H3              9.9571575407       31.5459422861       37.6727250444  LPSA19    7               4.0000000000
     20421       655  AGLC      O3              8.9621429834       31.4636307493       39.4204481292  LPSA19    7               4.0000000000
     20422       655  AGLC      C4              8.7450804965       29.7580675929       37.5928595998  LPSA19    7               4.0000000000
     20423       655  AGLC      H4              7.7103985057       29.4056915751       37.9560286200  LPSA19    7               4.0000000000
     20424       655  AGLC      O4              9.8124605180       29.0186479176       38.2243117391  LPSA19    7               4.0000000000
     20425       655  AGLC      HO4             9.5361727951       28.2166217824       38.6132003238  LPSA19    7               4.0000000000
     20426       655  AGLC      C6              8.9022315894       28.1247842451       35.5245160098  LPSA19    7               4.0000000000
     20427       655  AGLC      H61             9.0019691900       28.2248480073       34.4135318240  LPSA19    7               4.0000000000
     20428       655  AGLC      H62             9.6693439412       27.4002336533       35.8722646349  LPSA19    7               4.0000000000
     20429       655  AGLC      O6              7.5394479832       27.6272669008       35.6892983147  LPSA19    7               4.0000000000
     20430       655  AGLC      HO6             7.6632594411       27.1086821618       36.4386090630  LPSA19    7               4.0000000000
     20431       656  AGLC      C1             10.0963060782       32.0678051244       39.9328324507  LPSA19    8               5.0000000000
     20432       656  AGLC      H1             10.9982770333       31.5324138693       39.5884769495  LPSA19    8               5.0000000000
     20433       656  AGLC      C5              9.2348316215       34.3790886293       40.2153373402  LPSA19    8               5.0000000000
     20434       656  AGLC      H5              8.2637777583       34.0340724906       39.8400606936  LPSA19    8               5.0000000000
     20435       656  AGLC      O5             10.2250571589       33.4968345213       39.6195505863  LPSA19    8               5.0000000000
     20436       656  AGLC      C2             10.1284526387       31.9651968644       41.4170311384  LPSA19    8               5.0000000000
     20437       656  AGLC      H2             11.1546513061       32.3272282314       41.6529594578  LPSA19    8               5.0000000000
     20438       656  AGLC      O2             10.1696817442       30.6439650206       41.9438754185  LPSA19    8               5.0000000000
     20439       656  AGLC      C3              9.1190281044       32.7907673385       42.1297388169  LPSA19    8               5.0000000000
     20440       656  AGLC      H3              8.1849144206       32.3575302153       41.6567950186  LPSA19    8               5.0000000000
     20441       656  AGLC      O3              9.1693908717       32.5280427370       43.5370978028  LPSA19    8               5.0000000000
     20442       656  AGLC      C4              9.3551684379       34.1792382905       41.7603093222  LPSA19    8               5.0000000000
     20443       656  AGLC      H4             10.3458098517       34.4865141431       42.0401368658  LPSA19    8               5.0000000000
     20444       656  AGLC      O4              8.4306233783       35.0335675780       42.3914819843  LPSA19    8               5.0000000000
     20445       656  AGLC      HO4             7.6018023214       34.6211169736       42.3800652601  LPSA19    8               5.0000000000
     20446       656  AGLC      C6              9.2501529458       35.8497496507       39.7357334439  LPSA19    8               5.0000000000
     20447       656  AGLC      H61             9.3503285909       35.9661579419       38.6468043611  LPSA19    8               5.0000000000
     20448       656  AGLC      H62             8.3944755500       36.4296764152       40.0276014644  LPSA19    8               5.0000000000
     20449       656  AGLC      O6             10.2647312402       36.6242266760       40.3040784562  LPSA19    8               5.0000000000
     20450       656  AGLC      HO6            10.0485649264       36.9138281716       41.2121845210  LPSA19    8               5.0000000000
     20451       657  AGAL      C1             11.1136044569       29.7384255921       41.4573847493  LPSA19    9               6.0000000000
     20452       657  AGAL      H1             11.1436449841       29.7759664584       40.3420235153  LPSA19    9               6.0000000000
     20453       657  AGAL      C5             12.6486515140       29.7369887859       43.2125447641  LPSA19    9               6.0000000000
     20454       657  AGAL      H5             11.7997031139       30.3229275357       43.7424973645  LPSA19    9               6.0000000000
     20455       657  AGAL      O5             12.5099089010       29.9248209160       41.8451689838  LPSA19    9               6.0000000000
     20456       657  AGAL      C2             10.6728619845       28.3502416404       41.8393925249  LPSA19    9               6.0000000000
     20457       657  AGAL      H2             11.3569055396       27.6313808329       41.4115621152  LPSA19    9               6.0000000000
     20458       657  AGAL      O2              9.4639383301       27.9606642130       41.1608705954  LPSA19    9               6.0000000000
     20459       657  AGAL      C3             10.8099936611       28.1063238204       43.3264191845  LPSA19    9               6.0000000000
     20460       657  AGAL      H3             10.0828401758       28.7942490024       43.9424563891  LPSA19    9               6.0000000000
     20461       657  AGAL      O3             10.3246533652       26.8676984139       43.7491515633  LPSA19    9               6.0000000000
     20462       657  AGAL      HO3             9.5861513746       26.6584795165       43.1585960960  LPSA19    9               6.0000000000
     20463       657  AGAL      C4             12.2333402341       28.3246323667       43.6505755014  LPSA19    9               6.0000000000
     20464       657  AGAL      H4             12.4453575630       28.2750586404       44.7734818408  LPSA19    9               6.0000000000
     20465       657  AGAL      O4             13.1202129135       27.4321275888       43.0499075873  LPSA19    9               6.0000000000
     20466       657  AGAL      HO4            13.8656473479       27.3330490230       43.6622427513  LPSA19    9               6.0000000000
     20467       657  AGAL      C6             13.9025039300       30.3529894549       43.8349081587  LPSA19    9               6.0000000000
     20468       657  AGAL      H61            14.0049494312       31.4519534893       43.6417203355  LPSA19    9               6.0000000000
     20469       657  AGAL      H62            13.9487749160       30.2926552592       44.9292747136  LPSA19    9               6.0000000000
     20470       657  AGAL      O6             15.0589340354       29.6994979890       43.4062227539  LPSA19    9               6.0000000000
     20471       657  AGAL      HO6            15.4422037697       30.2418139725       42.6923548993  LPSA19    9               6.0000000000
     20472       658  AGAL      C1              8.2786785265       27.3777683670       41.7517281777  LPSA19    10              7.0000000000
     20473       658  AGAL      H1              8.5442452773       26.3159442546       41.8429972083  LPSA19    10              7.0000000000
     20474       658  AGAL      C5              7.3282161556       29.1587642358       43.0613392294  LPSA19    10              7.0000000000
     20475       658  AGAL      H5              8.2069470454       29.8104218707       42.6233508762  LPSA19    10              7.0000000000
     20476       658  AGAL      O5              7.7564004594       27.7834659447       43.0470213554  LPSA19    10              7.0000000000
     20477       658  AGAL      C2              7.1486633091       27.5651313704       40.7227968417  LPSA19    10              7.0000000000
     20478       658  AGAL      H2              6.3262413387       26.8149722830       41.0433947026  LPSA19    10              7.0000000000
     20479       658  AGAL      O2              7.3693981661       26.9046558415       39.5532095562  LPSA19    10              7.0000000000
     20480       658  AGAL      HO2             6.6409843927       26.3349578711       39.3379401176  LPSA19    10              7.0000000000
     20481       658  AGAL      C3              6.6481261946       28.9649815656       40.6928251787  LPSA19    10              7.0000000000
     20482       658  AGAL      H3              7.5411900332       29.5444669767       40.4679648945  LPSA19    10              7.0000000000
     20483       658  AGAL      O3              5.6281631814       29.2160814727       39.7732034444  LPSA19    10              7.0000000000
     20484       658  AGAL      HO3             6.0229370578       29.7137537753       39.0151094934  LPSA19    10              7.0000000000
     20485       658  AGAL      C4              6.1652827216       29.3390460551       42.0524071915  LPSA19    10              7.0000000000
     20486       658  AGAL      H4              5.8814144719       30.4076217460       42.1099272557  LPSA19    10              7.0000000000
     20487       658  AGAL      O4              5.0652715607       28.5994506309       42.4965010455  LPSA19    10              7.0000000000
     20488       658  AGAL      HO4             5.3981120255       27.7228681364       42.5675127347  LPSA19    10              7.0000000000
     20489       658  AGAL      C6              7.0346276751       29.7655527312       44.3959537205  LPSA19    10              7.0000000000
     20490       658  AGAL      H61             7.8431794148       29.6136162236       45.1044438806  LPSA19    10              7.0000000000
     20491       658  AGAL      H62             6.9999429137       30.9518413139       44.2564473849  LPSA19    10              7.0000000000
     20492       658  AGAL      O6              5.8322914437       29.4106955242       45.1112340130  LPSA19    10              7.0000000000
     20493       658  AGAL      HO6             6.0962754970       28.9419256791       45.9237589285  LPSA19    10              7.0000000000
     20494       659  BGLC      C1              9.8934916360       33.2699682432       44.5018065681  LPSA19    11              6.0000000000
     20495       659  BGLC      H1              9.3018244480       34.1692663980       44.5883763758  LPSA19    11              6.0000000000
     20496       659  BGLC      C5             12.1195086905       34.2369336860       45.1248117688  LPSA19    11              6.0000000000
     20497       659  BGLC      H5             11.6906335613       35.2668074954       45.3871201921  LPSA19    11              6.0000000000
     20498       659  BGLC      O5             11.3006585825       33.4807230405       44.0830650888  LPSA19    11              6.0000000000
     20499       659  BGLC      C2              9.9183519886       32.5002171094       45.7977571702  LPSA19    11              6.0000000000
     20500       659  BGLC      H2             10.3427818851       31.4668514998       45.7293388291  LPSA19    11              6.0000000000
     20501       659  BGLC      O2              8.5506874053       32.2517159615       46.0886391483  LPSA19    11              6.0000000000
     20502       659  BGLC      HO2             8.4421766066       31.3397890607       46.2788110113  LPSA19    11              6.0000000000
     20503       659  BGLC      C3             10.6845367425       33.1505973140       46.8736276645  LPSA19    11              6.0000000000
     20504       659  BGLC      H3             10.1131527203       34.1191934868       47.1984917368  LPSA19    11              6.0000000000
     20505       659  BGLC      O3             10.6556808872       32.2888909612       48.0056213318  LPSA19    11              6.0000000000
     20506       659  BGLC      C4             12.0429078641       33.4017766179       46.4390836423  LPSA19    11              6.0000000000
     20507       659  BGLC      H4             12.4890739447       32.3779192995       46.2001611147  LPSA19    11              6.0000000000
     20508       659  BGLC      O4             12.8430184829       33.9440794165       47.4766894645  LPSA19    11              6.0000000000
     20509       659  BGLC      HO4            13.0043292431       33.2481440734       48.1247908570  LPSA19    11              6.0000000000
     20510       659  BGLC      C6             13.4959115066       34.5798231056       44.5291127165  LPSA19    11              6.0000000000
     20511       659  BGLC      H61            14.2675918861       34.8191534826       45.2481190913  LPSA19    11              6.0000000000
     20512       659  BGLC      H62            13.7955706137       33.7110415880       43.8913252379  LPSA19    11              6.0000000000
     20513       659  BGLC      O6             13.4865400625       35.6665838346       43.5637942269  LPSA19    11              6.0000000000
     20514       659  BGLC      HO6            13.9529495316       36.3365618240       44.0054369298  LPSA19    11              6.0000000000
     20515       660  BGLCNA    C1             10.2676076455       32.7391235085       49.3238540420  LPSA19    12              7.0000000000
     20516       660  BGLCNA    H1              9.1304511333       32.6550977026       49.3874222992  LPSA19    12              7.0000000000
     20517       660  BGLCNA    C5             10.1668391103       34.5629128636       50.8763077070  LPSA19    12              7.0000000000
     20518       660  BGLCNA    H5              8.9932925230       34.4798648119       50.9814236466  LPSA19    12              7.0000000000
     20519       660  BGLCNA    O5             10.6523941783       34.1069690409       49.5875345322  LPSA19    12              7.0000000000
     20520       660  BGLCNA    C2             10.9310666809       31.8524138366       50.3245054808  LPSA19    12              7.0000000000
     20521       660  BGLCNA    H2             12.0624117406       32.1577057564       50.3375086743  LPSA19    12              7.0000000000
     20522       660  BGLCNA    N              10.6360185836       30.4356321378       50.0347611965  LPSA19    12              7.0000000000
     20523       660  BGLCNA    HN              9.6977238081       30.3320616785       49.9972643287  LPSA19    12              7.0000000000
     20524       660  BGLCNA    C              11.5914392781       29.5683794738       49.8903426450  LPSA19    12              7.0000000000
     20525       660  BGLCNA    O              12.7516964658       29.9019340640       50.0855928044  LPSA19    12              7.0000000000
     20526       660  BGLCNA    CT             11.1858240963       28.1623929474       49.5677689528  LPSA19    12              7.0000000000
     20527       660  BGLCNA    HT1            11.4130916818       27.4623525855       50.3918503408  LPSA19    12              7.0000000000
     20528       660  BGLCNA    HT2            11.8748490774       27.7358982414       48.7104760971  LPSA19    12              7.0000000000
     20529       660  BGLCNA    HT3            10.1203581939       28.2073556893       49.2316245990  LPSA19    12              7.0000000000
     20530       660  BGLCNA    C3             10.5022775190       32.1977006219       51.6995695120  LPSA19    12              7.0000000000
     20531       660  BGLCNA    H3              9.3465409207       31.9862618368       51.8605307917  LPSA19    12              7.0000000000
     20532       660  BGLCNA    O3             11.0713208480       31.3410771001       52.7272334264  LPSA19    12              7.0000000000
     20533       660  BGLCNA    C4             10.8392302492       33.6314525250       51.9591692987  LPSA19    12              7.0000000000
     20534       660  BGLCNA    H4             11.9672210683       33.8744597358       51.9037868612  LPSA19    12              7.0000000000
     20535       660  BGLCNA    O4             10.4499402085       34.0359239843       53.2294962294  LPSA19    12              7.0000000000
     20536       660  BGLCNA    HO4             9.4601156844       34.1796057820       53.2834945119  LPSA19    12              7.0000000000
     20537       660  BGLCNA    C6             10.4638739766       36.0742888483       50.9528560558  LPSA19    12              7.0000000000
     20538       660  BGLCNA    H61            10.2093318704       36.4561402838       51.9144325068  LPSA19    12              7.0000000000
     20539       660  BGLCNA    H62            11.5402728452       36.1183917089       50.8287962869  LPSA19    12              7.0000000000
     20540       660  BGLCNA    O6              9.8882447462       36.7441571158       49.8597561973  LPSA19    12              7.0000000000
     20541       660  BGLCNA    HO6             9.0320185741       36.9793538478       50.1903398796  LPSA19    12              7.0000000000
     20542       661  AGAL      C1             10.1715397433       30.9478793624       53.8132743488  LPSA19    13              8.0000000000
     20543       661  AGAL      H1              9.6454054001       31.8507312983       54.1959401301  LPSA19    13              8.0000000000
     20544       661  AGAL      C5             10.1208609770       28.5945764214       53.2950732168  LPSA19    13              8.0000000000
     20545       661  AGAL      H5             10.8842234967       28.8522213635       52.5641412600  LPSA19    13              8.0000000000
     20546       661  AGAL      O5              9.3344100411       29.7803390434       53.4918445955  LPSA19    13              8.0000000000
     20547       661  AGAL      C2             10.9070253379       30.4845144883       55.1010141246  LPSA19    13              8.0000000000
     20548       661  AGAL      H2             10.1597352053       30.0448990300       55.7917211299  LPSA19    13              8.0000000000
     20549       661  AGAL      O2             11.5498205200       31.5492439574       55.7701983428  LPSA19    13              8.0000000000
     20550       661  AGAL      C3             11.7437119574       29.1982150414       54.8979691660  LPSA19    13              8.0000000000
     20551       661  AGAL      H3             12.4009070434       29.3506589488       54.0477453328  LPSA19    13              8.0000000000
     20552       661  AGAL      O3             12.6411885099       28.9422887202       55.9888739531  LPSA19    13              8.0000000000
     20553       661  AGAL      HO3            13.4838305707       28.6207444272       55.6848713412  LPSA19    13              8.0000000000
     20554       661  AGAL      C4             10.8977944242       28.1111316250       54.5514025965  LPSA19    13              8.0000000000
     20555       661  AGAL      H4             11.5143531825       27.2003484757       54.1954731349  LPSA19    13              8.0000000000
     20556       661  AGAL      O4             10.0021570665       27.7340139516       55.5743212917  LPSA19    13              8.0000000000
     20557       661  AGAL      HO4             9.5523777420       28.4479853830       56.0499681296  LPSA19    13              8.0000000000
     20558       661  AGAL      C6              9.4374077282       27.4781358490       52.5301443486  LPSA19    13              8.0000000000
     20559       661  AGAL      H61             8.9660967824       27.8865855085       51.6253596531  LPSA19    13              8.0000000000
     20560       661  AGAL      H62            10.1835775370       26.6608141638       52.3684678279  LPSA19    13              8.0000000000
     20561       661  AGAL      O6              8.4107975169       26.8851926503       53.2985910507  LPSA19    13              8.0000000000
     20562       661  AGAL      HO6             8.8150949189       26.2698162677       53.9299633642  LPSA19    13              8.0000000000
     20563       662  ARHM      C1             11.0777957185       31.9904046605       57.0117786358  LPSA19    14              9.0000000000
     20564       662  ARHM      H1              9.9932235095       31.7556263475       56.9981767125  LPSA19    14              9.0000000000
     20565       662  ARHM      C5             12.5472544288       33.7867967257       57.1930138837  LPSA19    14              9.0000000000
     20566       662  ARHM      H5             13.0132451973       33.4350719674       56.1976867078  LPSA19    14              9.0000000000
     20567       662  ARHM      O5             11.2263216708       33.3922612443       57.1718909996  LPSA19    14              9.0000000000
     20568       662  ARHM      C2             11.8220897338       31.2449615033       58.1413490634  LPSA19    14              9.0000000000
     20569       662  ARHM      H2             11.7026325560       30.1992597129       57.8875987320  LPSA19    14              9.0000000000
     20570       662  ARHM      O2             11.3708998312       31.5176198792       59.4330148990  LPSA19    14              9.0000000000
     20571       662  ARHM      C3             13.2722939257       31.6321601380       58.1095432995  LPSA19    14              9.0000000000
     20572       662  ARHM      H3             13.6329548915       31.5266425426       57.0440121713  LPSA19    14              9.0000000000
     20573       662  ARHM      O3             14.1160754569       30.8111497866       58.8567888868  LPSA19    14              9.0000000000
     20574       662  ARHM      HO3            13.9391391573       31.0589558527       59.8104957846  LPSA19    14              9.0000000000
     20575       662  ARHM      C4             13.3300971879       33.0973328668       58.3490442956  LPSA19    14              9.0000000000
     20576       662  ARHM      H4             12.8613406685       33.4691659643       59.2902338481  LPSA19    14              9.0000000000
     20577       662  ARHM      O4             14.7217793898       33.5081949241       58.4446785014  LPSA19    14              9.0000000000
     20578       662  ARHM      HO4            15.0201210417       33.8214048396       59.2969967688  LPSA19    14              9.0000000000
     20579       662  ARHM      C6             12.6336661215       35.3214073307       57.2492155848  LPSA19    14              9.0000000000
     20580       662  ARHM      H61            11.9206016878       35.8674763730       56.5358243550  LPSA19    14              9.0000000000
     20581       662  ARHM      H62            12.4947133764       35.5865974829       58.3170764683  LPSA19    14              9.0000000000
     20582       662  ARHM      H63            13.5551607960       35.8217581067       56.9421594120  LPSA19    14              9.0000000000
     20583       663  ARHM      C1             10.0661542331       31.4250276538       59.7267990175  LPSA19    15             10.0000000000
     20584       663  ARHM      H1              9.5480488145       30.7156889500       59.0458905905  LPSA19    15             10.0000000000
     20585       663  ARHM      C5              9.7469954240       33.7095412911       60.6468530148  LPSA19    15             10.0000000000
     20586       663  ARHM      H5             10.7975398489       34.0903806568       60.4457705401  LPSA19    15             10.0000000000
     20587       663  ARHM      O5              9.3652586519       32.6927034642       59.6688136410  LPSA19    15             10.0000000000
     20588       663  ARHM      C2              9.8997702152       30.8724119358       61.1407671534  LPSA19    15             10.0000000000
     20589       663  ARHM      H2             10.5546347271       29.9227429127       61.2133420761  LPSA19    15             10.0000000000
     20590       663  ARHM      O2              8.4822588277       30.5822879852       61.3234079317  LPSA19    15             10.0000000000
     20591       663  ARHM      C3             10.4089769641       31.8847965009       62.1677656617  LPSA19    15             10.0000000000
     20592       663  ARHM      H3             11.4615751271       32.1414923189       61.8628392879  LPSA19    15             10.0000000000
     20593       663  ARHM      O3             10.5369762570       31.1413695472       63.4092175029  LPSA19    15             10.0000000000
     20594       663  ARHM      C4              9.6169793187       33.0962225238       62.0487117432  LPSA19    15             10.0000000000
     20595       663  ARHM      H4              8.4950579693       32.8069151618       62.1496903561  LPSA19    15             10.0000000000
     20596       663  ARHM      O4              9.8831476557       34.1627392845       62.9635513464  LPSA19    15             10.0000000000
     20597       663  ARHM      HO4             9.1392861623       34.7461162097       62.9565205260  LPSA19    15             10.0000000000
     20598       663  ARHM      C6              8.8911349005       34.9390036802       60.4460959132  LPSA19    15             10.0000000000
     20599       663  ARHM      H61             9.1676059594       35.8113653873       61.0956562646  LPSA19    15             10.0000000000
     20600       663  ARHM      H62             8.8033378803       35.1529988669       59.3910198679  LPSA19    15             10.0000000000
     20601       663  ARHM      H63             7.8514705519       34.8046192618       60.8578185328  LPSA19    15             10.0000000000
     20602       664  BMANNA    C1              8.0392914818       29.9513325479       62.5145562334  LPSA19    16             11.0000000000
     20603       664  BMANNA    H1              8.1115603212       30.7500331259       63.3432051365  LPSA19    16             11.0000000000
     20604       664  BMANNA    C5              8.3133755136       28.3193667065       64.1851548173  LPSA19    16             11.0000000000
     20605       664  BMANNA    H5              8.3301935527       29.0764402038       64.9800677769  LPSA19    16             11.0000000000
     20606       664  BMANNA    O5              8.8067004038       28.8225529595       62.9158851071  LPSA19    16             11.0000000000
     20607       664  BMANNA    C2              6.5624563875       29.5576563006       62.2781089586  LPSA19    16             11.0000000000
     20608       664  BMANNA    H2              6.0617315144       30.5194184975       61.9912908466  LPSA19    16             11.0000000000
     20609       664  BMANNA    N               6.2614091973       28.5821606585       61.2264456342  LPSA19    16             11.0000000000
     20610       664  BMANNA    HN              6.2861302275       27.6717840007       61.5688724990  LPSA19    16             11.0000000000
     20611       664  BMANNA    C               6.0327687993       28.8756464756       59.9704010620  LPSA19    16             11.0000000000
     20612       664  BMANNA    O               5.9747545611       30.0665526820       59.5582221915  LPSA19    16             11.0000000000
     20613       664  BMANNA    CT              5.8361335797       27.7036364410       59.1331689300  LPSA19    16             11.0000000000
     20614       664  BMANNA    HT1             4.8193415604       27.5021177447       58.8344492748  LPSA19    16             11.0000000000
     20615       664  BMANNA    HT2             6.2326171929       26.7590880891       59.5043001239  LPSA19    16             11.0000000000
     20616       664  BMANNA    HT3             6.3432221777       27.8349202753       58.1231520073  LPSA19    16             11.0000000000
     20617       664  BMANNA    C3              6.0502798537       29.0747224734       63.6119771117  LPSA19    16             11.0000000000
     20618       664  BMANNA    H3              6.1627318470       29.8801456612       64.3839812837  LPSA19    16             11.0000000000
     20619       664  BMANNA    O3              4.6841142547       28.7754194005       63.6122488842  LPSA19    16             11.0000000000
     20620       664  BMANNA    HO3             4.2343669926       29.2553763205       64.2950500102  LPSA19    16             11.0000000000
     20621       664  BMANNA    C4              6.8451245302       27.8586662344       64.1045846713  LPSA19    16             11.0000000000
     20622       664  BMANNA    H4              6.7609783259       26.9992140056       63.4124605202  LPSA19    16             11.0000000000
     20623       664  BMANNA    O4              6.4761115036       27.3070548072       65.3816866120  LPSA19    16             11.0000000000
     20624       664  BMANNA    HO4             6.7370636813       26.3887509310       65.4353184152  LPSA19    16             11.0000000000
     20625       664  BMANNA    C6              9.1833824166       27.1854889441       64.7427751243  LPSA19    16             11.0000000000
     20626       664  BMANNA    H61             9.1134278975       27.2401212907       65.8875394407  LPSA19    16             11.0000000000
     20627       664  BMANNA    H62             8.8046277219       26.2072801226       64.4389269682  LPSA19    16             11.0000000000
     20628       664  BMANNA    O6             10.5725079782       27.2654869816       64.3660927576  LPSA19    16             11.0000000000
     20629       664  BMANNA    HO6            10.7001342222       26.4077546598       63.9036969990  LPSA19    16             11.0000000000
     20630       665  BGLCNA    C1             11.6001850242       31.4615826672       64.1715778089  LPSA19    17             11.0000000000
     20631       665  BGLCNA    H1             11.9190347796       32.5499355127       63.9082176002  LPSA19    17             11.0000000000
     20632       665  BGLCNA    C5             13.9626732605       30.9694456054       64.5563394407  LPSA19    17             11.0000000000
     20633       665  BGLCNA    H5             14.3220127644       32.0312291412       64.2825289487  LPSA19    17             11.0000000000
     20634       665  BGLCNA    O5             12.7817479597       30.7022478795       63.7849982893  LPSA19    17             11.0000000000
     20635       665  BGLCNA    C2             11.2289470413       31.2273559637       65.5899343931  LPSA19    17             11.0000000000
     20636       665  BGLCNA    H2             10.9470560729       30.1458003337       65.8249043900  LPSA19    17             11.0000000000
     20637       665  BGLCNA    N              10.0264920036       31.8957575231       65.8849826081  LPSA19    17             11.0000000000
     20638       665  BGLCNA    HN              9.8348549206       32.7779262338       65.4150135415  LPSA19    17             11.0000000000
     20639       665  BGLCNA    C               9.1133272496       31.6382126204       66.8043620798  LPSA19    17             11.0000000000
     20640       665  BGLCNA    O               9.1391455234       30.6117873720       67.4729873017  LPSA19    17             11.0000000000
     20641       665  BGLCNA    CT              8.0519708962       32.6578878938       66.9728872304  LPSA19    17             11.0000000000
     20642       665  BGLCNA    HT1             7.0453105226       32.4806738657       66.5529393721  LPSA19    17             11.0000000000
     20643       665  BGLCNA    HT2             8.4895130611       33.6388436128       66.7043805047  LPSA19    17             11.0000000000
     20644       665  BGLCNA    HT3             7.8336480034       32.8231628636       68.1408097225  LPSA19    17             11.0000000000
     20645       665  BGLCNA    C3             12.4374473592       31.6247777758       66.4076579941  LPSA19    17             11.0000000000
     20646       665  BGLCNA    H3             12.6144654551       32.6922252632       66.0441361901  LPSA19    17             11.0000000000
     20647       665  BGLCNA    O3             12.0208290779       31.6681607949       67.8205355914  LPSA19    17             11.0000000000
     20648       665  BGLCNA    C4             13.5963215822       30.7048080950       66.0496966154  LPSA19    17             11.0000000000
     20649       665  BGLCNA    H4             13.2922541735       29.6016015960       66.1123142204  LPSA19    17             11.0000000000
     20650       665  BGLCNA    O4             14.6995835596       30.8624448733       66.9186044206  LPSA19    17             11.0000000000
     20651       665  BGLCNA    HO4            15.4654858858       30.3371180282       66.7204061560  LPSA19    17             11.0000000000
     20652       665  BGLCNA    C6             15.0920751509       30.0156461767       64.1200051697  LPSA19    17             11.0000000000
     20653       665  BGLCNA    H61            16.0323114902       30.5317669078       64.1272946536  LPSA19    17             11.0000000000
     20654       665  BGLCNA    H62            15.1761425888       29.1289733021       64.8212395067  LPSA19    17             11.0000000000
     20655       665  BGLCNA    O6             14.8990215685       29.5078650233       62.7926115083  LPSA19    17             11.0000000000
     20656       665  BGLCNA    HO6            14.8608113405       30.2384951071       62.1856770532  LPSA19    17             11.0000000000
     20657       666  AGAL      C1             12.6376722112       32.7094508582       68.6198653987  LPSA19    18             12.0000000000
     20658       666  AGAL      H1             13.7066987259       32.3946961297       68.8082567594  LPSA19    18             12.0000000000
     20659       666  AGAL      C5             11.2639343306       34.5283956839       67.8636918791  LPSA19    18             12.0000000000
     20660       666  AGAL      H5             10.6277667394       33.7650395467       67.4068928888  LPSA19    18             12.0000000000
     20661       666  AGAL      O5             12.6213884136       33.9684829485       67.9834320655  LPSA19    18             12.0000000000
     20662       666  AGAL      C2             11.9024245358       32.9063641533       70.0000206359  LPSA19    18             12.0000000000
     20663       666  AGAL      H2             12.5212025367       33.7466536995       70.3908489884  LPSA19    18             12.0000000000
     20664       666  AGAL      O2             12.1390470612       31.8213321866       70.8342757016  LPSA19    18             12.0000000000
     20665       666  AGAL      C3             10.5167298424       33.4353225466       69.8682924558  LPSA19    18             12.0000000000
     20666       666  AGAL      H3              9.9475354701       32.7744869563       69.0958348126  LPSA19    18             12.0000000000
     20667       666  AGAL      O3              9.8169231686       33.4176624738       71.0758896640  LPSA19    18             12.0000000000
     20668       666  AGAL      HO3             8.9344028952       33.0586283585       70.9682873819  LPSA19    18             12.0000000000
     20669       666  AGAL      C4             10.5640814384       34.7300825889       69.1634745928  LPSA19    18             12.0000000000
     20670       666  AGAL      H4              9.5769547637       35.1798123927       68.9039691178  LPSA19    18             12.0000000000
     20671       666  AGAL      O4             11.2394039586       35.7277188988       69.9734134928  LPSA19    18             12.0000000000
     20672       666  AGAL      HO4            10.6150720914       36.0224430259       70.7236544006  LPSA19    18             12.0000000000
     20673       666  AGAL      C6             11.2986220293       35.5377872014       66.8042742825  LPSA19    18             12.0000000000
     20674       666  AGAL      H61            11.5838597906       35.0189041268       65.8877991861  LPSA19    18             12.0000000000
     20675       666  AGAL      H62            10.2378209778       35.8752565569       66.6499463921  LPSA19    18             12.0000000000
     20676       666  AGAL      O6             12.1497990088       36.5511124127       66.9803033045  LPSA19    18             12.0000000000
     20677       666  AGAL      HO6            12.7997221641       36.4693290623       67.6707071977  LPSA19    18             12.0000000000
     20678       667  ARHM      C1             12.4196376966       32.2834518357       72.1803514454  LPSA19    19             13.0000000000
     20679       667  ARHM      H1             12.0562790718       33.2819475336       72.3185909119  LPSA19    19             13.0000000000
     20680       667  ARHM      C5             14.5811889041       31.3108673388       72.2512180912  LPSA19    19             13.0000000000
     20681       667  ARHM      H5             14.3777041853       30.9408063817       71.2133247196  LPSA19    19             13.0000000000
     20682       667  ARHM      O5             13.8171183100       32.5066648945       72.4162684983  LPSA19    19             13.0000000000
     20683       667  ARHM      C2             11.8568907571       31.2729954826       73.1100514097  LPSA19    19             13.0000000000
     20684       667  ARHM      H2             10.8470797862       30.9995122577       72.9420985559  LPSA19    19             13.0000000000
     20685       667  ARHM      O2             11.9598948014       31.7324996216       74.4131644751  LPSA19    19             13.0000000000
     20686       667  ARHM      C3             12.7182161559       29.9780653596       72.9859276785  LPSA19    19             13.0000000000
     20687       667  ARHM      H3             12.6670466454       29.6620564009       71.9471750908  LPSA19    19             13.0000000000
     20688       667  ARHM      O3             12.2043454143       28.9585704655       73.7644258584  LPSA19    19             13.0000000000
     20689       667  ARHM      HO3            12.0702026481       29.3230443750       74.6464134549  LPSA19    19             13.0000000000
     20690       667  ARHM      C4             14.1471163927       30.2091676000       73.2443334127  LPSA19    19             13.0000000000
     20691       667  ARHM      H4             14.2071513157       30.5938042115       74.2703943704  LPSA19    19             13.0000000000
     20692       667  ARHM      O4             14.9583194874       29.0793502184       73.1708570575  LPSA19    19             13.0000000000
     20693       667  ARHM      HO4            14.9242312053       28.7852057136       72.2126258713  LPSA19    19             13.0000000000
     20694       667  ARHM      C6             16.0921911821       31.6000583833       72.3031700958  LPSA19    19             13.0000000000
     20695       667  ARHM      H61            16.1830824630       32.3343983062       71.5186681997  LPSA19    19             13.0000000000
     20696       667  ARHM      H62            16.4762163791       32.0298008063       73.2001761489  LPSA19    19             13.0000000000
     20697       667  ARHM      H63            16.7108614825       30.7243636386       72.0875448643  LPSA19    19             13.0000000000
     20698       668  ARHM      C1             11.0019749932       32.6979457039       74.6981797177  LPSA19    20             14.0000000000
     20699       668  ARHM      H1             10.1996079173       32.7730439114       73.8936196974  LPSA19    20             14.0000000000
     20700       668  ARHM      C5             12.3372690768       34.2066054983       75.9960310464  LPSA19    20             14.0000000000
     20701       668  ARHM      H5             13.1519247952       33.4615786787       75.8071112250  LPSA19    20             14.0000000000
     20702       668  ARHM      O5             11.4618633318       34.0386683723       74.8741575474  LPSA19    20             14.0000000000
     20703       668  ARHM      C2             10.2193355578       32.2892156432       75.9438944127  LPSA19    20             14.0000000000
     20704       668  ARHM      H2              9.9251491469       31.1686659906       75.7904987900  LPSA19    20             14.0000000000
     20705       668  ARHM      O2              9.0663835327       33.1187246656       76.2145535291  LPSA19    20             14.0000000000
     20706       668  ARHM      C3             11.1389691362       32.4636611628       77.0746584307  LPSA19    20             14.0000000000
     20707       668  ARHM      H3             12.0543793578       31.7729015778       76.9570890266  LPSA19    20             14.0000000000
     20708       668  ARHM      O3             10.4294837366       31.9813780744       78.2431898216  LPSA19    20             14.0000000000
     20709       668  ARHM      C4             11.6242302872       33.8675875511       77.2147849866  LPSA19    20             14.0000000000
     20710       668  ARHM      H4             10.8289114774       34.5804805045       77.2882629629  LPSA19    20             14.0000000000
     20711       668  ARHM      O4             12.4024846391       33.9749647027       78.4294019453  LPSA19    20             14.0000000000
     20712       668  ARHM      HO4            12.9578170308       34.6401315642       78.0714846557  LPSA19    20             14.0000000000
     20713       668  ARHM      C6             12.9201091700       35.5578096542       75.9818768401  LPSA19    20             14.0000000000
     20714       668  ARHM      H61            12.2386028487       36.4581624127       76.0487105533  LPSA19    20             14.0000000000
     20715       668  ARHM      H62            13.6919175391       35.6403960473       76.7492574554  LPSA19    20             14.0000000000
     20716       668  ARHM      H63            13.4674412367       35.8237653255       75.0059134709  LPSA19    20             14.0000000000
     20717       669  BMANNA    C1              8.0373847477       32.6037188339       75.4501725836  LPSA19    21             15.0000000000
     20718       669  BMANNA    H1              8.4268004160       31.8532465887       74.6495731600  LPSA19    21             15.0000000000
     20719       669  BMANNA    C5              6.5223282245       32.9942704011       73.6578092950  LPSA19    21             15.0000000000
     20720       669  BMANNA    H5              6.9016315709       32.0685332933       73.0422409194  LPSA19    21             15.0000000000
     20721       669  BMANNA    O5              7.5039307109       33.6309524611       74.5460975074  LPSA19    21             15.0000000000
     20722       669  BMANNA    C2              6.9634863720       32.0457107980       76.3268603500  LPSA19    21             15.0000000000
     20723       669  BMANNA    H2              7.5127750751       31.2720129810       76.8663433126  LPSA19    21             15.0000000000
     20724       669  BMANNA    N               6.4441287038       33.0417431306       77.2602735953  LPSA19    21             15.0000000000
     20725       669  BMANNA    HN              6.1462478926       33.8766488941       76.8630196157  LPSA19    21             15.0000000000
     20726       669  BMANNA    C               6.0878854799       32.7954977885       78.6142451918  LPSA19    21             15.0000000000
     20727       669  BMANNA    O               6.0246121864       31.6397027909       79.0340579138  LPSA19    21             15.0000000000
     20728       669  BMANNA    CT              5.7290506892       34.0001253302       79.5125915666  LPSA19    21             15.0000000000
     20729       669  BMANNA    HT1             4.6724797230       34.2883005448       79.3040814335  LPSA19    21             15.0000000000
     20730       669  BMANNA    HT2             6.4934981202       34.7718633324       79.3224353366  LPSA19    21             15.0000000000
     20731       669  BMANNA    HT3             5.7905242410       33.7048855660       80.6000991146  LPSA19    21             15.0000000000
     20732       669  BMANNA    C3              5.9441291123       31.4179874626       75.4428482744  LPSA19    21             15.0000000000
     20733       669  BMANNA    H3              6.5263036558       30.6170163680       75.0091666053  LPSA19    21             15.0000000000
     20734       669  BMANNA    O3              4.8834864701       30.8255027313       76.1769203835  LPSA19    21             15.0000000000
     20735       669  BMANNA    HO3             4.5241298675       31.4887988692       76.7354970047  LPSA19    21             15.0000000000
     20736       669  BMANNA    C4              5.3806986452       32.4376025314       74.4866217523  LPSA19    21             15.0000000000
     20737       669  BMANNA    H4              4.7484989401       33.3144587922       75.0002820064  LPSA19    21             15.0000000000
     20738       669  BMANNA    O4              4.4357864780       31.8856202880       73.6152290754  LPSA19    21             15.0000000000
     20739       669  BMANNA    HO4             3.5447126396       32.2700642736       73.7703874424  LPSA19    21             15.0000000000
     20740       669  BMANNA    C6              6.0612887862       33.8969095507       72.6348027846  LPSA19    21             15.0000000000
     20741       669  BMANNA    H61             5.4527015567       33.4023532499       71.8494922130  LPSA19    21             15.0000000000
     20742       669  BMANNA    H62             5.2576012760       34.5602967035       73.0558617198  LPSA19    21             15.0000000000
     20743       669  BMANNA    O6              6.9970470817       34.7618468529       72.0654385618  LPSA19    21             15.0000000000
     20744       669  BMANNA    HO6             7.4276998952       35.2320861331       72.7784055652  LPSA19    21             15.0000000000
     20745       670  BGLCNA    C1             11.1047231708       31.2777309407       79.2248726046  LPSA19    22             15.0000000000
     20746       670  BGLCNA    H1             12.2115104656       31.4966325626       79.2753119810  LPSA19    22             15.0000000000
     20747       670  BGLCNA    C5             11.7747095995       29.1442395582       80.1145289529  LPSA19    22             15.0000000000
     20748       670  BGLCNA    H5             12.8706874179       29.5540636486       80.0727605020  LPSA19    22             15.0000000000
     20749       670  BGLCNA    O5             11.0421023388       29.8888035248       79.0803056561  LPSA19    22             15.0000000000
     20750       670  BGLCNA    C2             10.5137621279       31.6493813393       80.5602818744  LPSA19    22             15.0000000000
     20751       670  BGLCNA    H2              9.4321054665       31.2795242775       80.4633107900  LPSA19    22             15.0000000000
     20752       670  BGLCNA    N              10.5723285634       33.0886648311       80.7025670875  LPSA19    22             15.0000000000
     20753       670  BGLCNA    HN             11.4167811857       33.5100935924       80.4501896382  LPSA19    22             15.0000000000
     20754       670  BGLCNA    C               9.6726050147       33.8182036641       81.3295640408  LPSA19    22             15.0000000000
     20755       670  BGLCNA    O               8.6659719715       33.2981954972       81.8448112003  LPSA19    22             15.0000000000
     20756       670  BGLCNA    CT              9.9225951271       35.2802129847       81.4359073222  LPSA19    22             15.0000000000
     20757       670  BGLCNA    HT1             9.4489980606       35.6535588907       80.5353412834  LPSA19    22             15.0000000000
     20758       670  BGLCNA    HT2            11.0130643874       35.4423769214       81.2752873926  LPSA19    22             15.0000000000
     20759       670  BGLCNA    HT3             9.6641406453       35.7370929784       82.3679651303  LPSA19    22             15.0000000000
     20760       670  BGLCNA    C3             11.2064591889       30.9152894926       81.6855161512  LPSA19    22             15.0000000000
     20761       670  BGLCNA    H3             12.2957237250       31.1676589730       81.6419517197  LPSA19    22             15.0000000000
     20762       670  BGLCNA    O3             10.6582709915       31.4419558407       82.8729300216  LPSA19    22             15.0000000000
     20763       670  BGLCNA    C4             11.1236412434       29.4008014449       81.4704242134  LPSA19    22             15.0000000000
     20764       670  BGLCNA    H4             10.0910218959       29.1763820803       81.4144045074  LPSA19    22             15.0000000000
     20765       670  BGLCNA    O4             11.7200308952       28.6627173886       82.5140850489  LPSA19    22             15.0000000000
     20766       670  BGLCNA    HO4            11.1609939724       27.8919102259       82.7130071916  LPSA19    22             15.0000000000
     20767       670  BGLCNA    C6             11.7114647625       27.6731640504       79.7284495560  LPSA19    22             15.0000000000
     20768       670  BGLCNA    H61            11.9589443894       27.1383970020       80.6924177192  LPSA19    22             15.0000000000
     20769       670  BGLCNA    H62            10.6768999709       27.3669846721       79.4648784538  LPSA19    22             15.0000000000
     20770       670  BGLCNA    O6             12.6711511202       27.2720973343       78.8100863794  LPSA19    22             15.0000000000
     20771       670  BGLCNA    HO6            12.5770572867       27.7987839495       78.0328486455  LPSA19    22             15.0000000000
     20772       671  AGAL      C1             11.3478010547       31.3123888493       84.0628261254  LPSA19    23             16.0000000000
     20773       671  AGAL      H1             11.2654607648       30.2834636703       84.5106287163  LPSA19    23             16.0000000000
     20774       671  AGAL      C5             12.9782849643       33.0210182208       83.7583018441  LPSA19    23             16.0000000000
     20775       671  AGAL      H5             12.3668897326       33.3464875964       82.8366412438  LPSA19    23             16.0000000000
     20776       671  AGAL      O5             12.7362947260       31.6533694339       83.9976212264  LPSA19    23             16.0000000000
     20777       671  AGAL      C2             10.7130265388       32.1686499178       85.1427633740  LPSA19    23             16.0000000000
     20778       671  AGAL      H2             11.3089354524       31.9862542623       86.0076373284  LPSA19    23             16.0000000000
     20779       671  AGAL      O2              9.4109656163       31.7710821631       85.5000844886  LPSA19    23             16.0000000000
     20780       671  AGAL      C3             10.9017247057       33.6293273735       84.9194901020  LPSA19    23             16.0000000000
     20781       671  AGAL      H3             10.5345983242       33.8186080752       83.8641570193  LPSA19    23             16.0000000000
     20782       671  AGAL      O3             10.1490030975       34.4727739008       85.7108298168  LPSA19    23             16.0000000000
     20783       671  AGAL      HO3            10.2595271946       34.1147867628       86.6206525111  LPSA19    23             16.0000000000
     20784       671  AGAL      C4             12.3770544924       33.8955883499       84.8901212015  LPSA19    23             16.0000000000
     20785       671  AGAL      H4             12.6178726774       34.9562038897       84.6506069022  LPSA19    23             16.0000000000
     20786       671  AGAL      O4             13.0731915645       33.7107677959       86.1132943683  LPSA19    23             16.0000000000
     20787       671  AGAL      HO4            13.8722801688       33.4003457371       85.8278371007  LPSA19    23             16.0000000000
     20788       671  AGAL      C6             14.4020480783       33.2524606258       83.3278962909  LPSA19    23             16.0000000000
     20789       671  AGAL      H61            14.6793071280       32.5284241409       82.6074235255  LPSA19    23             16.0000000000
     20790       671  AGAL      H62            14.5256880098       34.1804026792       82.7620574208  LPSA19    23             16.0000000000
     20791       671  AGAL      O6             15.2677721360       33.0975612642       84.3845202183  LPSA19    23             16.0000000000
     20792       671  AGAL      HO6            16.1853036772       33.1881571756       84.1740981585  LPSA19    23             16.0000000000
     20793       672  ARHM      C1              9.1017833190       30.6318697505       86.2818185944  LPSA19    24             17.0000000000
     20794       672  ARHM      H1              9.9974802441       30.0475302231       86.3680542693  LPSA19    24             17.0000000000
     20795       672  ARHM      C5              6.8132050992       30.3378843132       85.6157638072  LPSA19    24             17.0000000000
     20796       672  ARHM      H5              6.9149343449       31.2112375724       85.0070975499  LPSA19    24             17.0000000000
     20797       672  ARHM      O5              8.0524306982       29.6813196828       85.8657410059  LPSA19    24             17.0000000000
     20798       672  ARHM      C2              8.7194480873       31.2356793853       87.5921581840  LPSA19    24             17.0000000000
     20799       672  ARHM      H2              9.4022295742       32.0062601263       87.8984046741  LPSA19    24             17.0000000000
     20800       672  ARHM      O2              8.4907786901       30.2400421435       88.6075763533  LPSA19    24             17.0000000000
     20801       672  ARHM      C3              7.3567840701       31.9221898977       87.4133527752  LPSA19    24             17.0000000000
     20802       672  ARHM      H3              7.5270930931       32.7019655973       86.6640279609  LPSA19    24             17.0000000000
     20803       672  ARHM      O3              6.9182686990       32.6949182559       88.5620392964  LPSA19    24             17.0000000000
     20804       672  ARHM      HO3             6.4503360740       32.0602113268       89.1463757531  LPSA19    24             17.0000000000
     20805       672  ARHM      C4              6.2915138480       30.9421544969       86.9402325015  LPSA19    24             17.0000000000
     20806       672  ARHM      H4              6.2566159340       30.0694035447       87.7071552895  LPSA19    24             17.0000000000
     20807       672  ARHM      O4              4.9929979148       31.4851280161       86.8379508285  LPSA19    24             17.0000000000
     20808       672  ARHM      HO4             4.2975489348       30.8745935467       87.0219124236  LPSA19    24             17.0000000000
     20809       672  ARHM      C6              5.7442738915       29.3999300417       84.9175891319  LPSA19    24             17.0000000000
     20810       672  ARHM      H61             5.0298630171       30.0259622176       84.3853494017  LPSA19    24             17.0000000000
     20811       672  ARHM      H62             6.2928297944       28.7967154904       84.2649634992  LPSA19    24             17.0000000000
     20812       672  ARHM      H63             5.2881982204       28.6856848920       85.6811466487  LPSA19    24             17.0000000000
     20813       673  ARHM      C1              9.7226659686       29.7880888750       89.1588742089  LPSA19    25             18.0000000000
     20814       673  ARHM      H1             10.5109301476       29.9747659180       88.4722246341  LPSA19    25             18.0000000000
     20815       673  ARHM      C5              8.8110741168       27.8192717820       90.1670531641  LPSA19    25             18.0000000000
     20816       673  ARHM      H5              7.8145048706       28.0344112195       89.8870230824  LPSA19    25             18.0000000000
     20817       673  ARHM      O5              9.7753531116       28.3495938258       89.2315309535  LPSA19    25             18.0000000000
     20818       673  ARHM      C2              9.9337457304       30.4400576910       90.4685713243  LPSA19    25             18.0000000000
     20819       673  ARHM      H2              9.7544867169       31.5606195439       90.3413143991  LPSA19    25             18.0000000000
     20820       673  ARHM      O2             11.2956779900       30.1858687965       90.9328696740  LPSA19    25             18.0000000000
     20821       673  ARHM      C3              8.9033335364       29.8025754977       91.4562257518  LPSA19    25             18.0000000000
     20822       673  ARHM      H3              7.8861301653       30.0609841670       91.0689171631  LPSA19    25             18.0000000000
     20823       673  ARHM      O3              9.0977221714       30.4582076086       92.6920647463  LPSA19    25             18.0000000000
     20824       673  ARHM      C4              9.0106870921       28.3818029385       91.5960769721  LPSA19    25             18.0000000000
     20825       673  ARHM      H4             10.0922912315       28.0510346028       91.8876801091  LPSA19    25             18.0000000000
     20826       673  ARHM      O4              8.0603479345       27.9884048392       92.5862492282  LPSA19    25             18.0000000000
     20827       673  ARHM      HO4             8.4869737221       27.2686331594       93.0149361445  LPSA19    25             18.0000000000
     20828       673  ARHM      C6              8.8351603573       26.2920936614       90.2083352735  LPSA19    25             18.0000000000
     20829       673  ARHM      H61             8.7929098440       25.8457770377       89.1912344565  LPSA19    25             18.0000000000
     20830       673  ARHM      H62             9.7700728814       25.8720696905       90.6686969550  LPSA19    25             18.0000000000
     20831       673  ARHM      H63             7.9692889687       25.8365666736       90.8233913566  LPSA19    25             18.0000000000
     20832       674  BMANNA    C1             12.2713633575       30.9901499864       90.3138108879  LPSA19    26             19.0000000000
     20833       674  BMANNA    H1             11.8205161427       31.9106721957       89.8388342826  LPSA19    26             19.0000000000
     20834       674  BMANNA    C5             13.9400617740       31.2743528697       88.6312665858  LPSA19    26             19.0000000000
     20835       674  BMANNA    H5             13.3502595235       32.0710321350       88.1771240033  LPSA19    26             19.0000000000
     20836       674  BMANNA    O5             13.0147587237       30.3609709525       89.2346891933  LPSA19    26             19.0000000000
     20837       674  BMANNA    C2             13.1931398988       31.4174620115       91.3475147821  LPSA19    26             19.0000000000
     20838       674  BMANNA    H2             12.5383874761       31.9566827628       92.1081287357  LPSA19    26             19.0000000000
     20839       674  BMANNA    N              13.8378208362       30.2164916222       91.9238920796  LPSA19    26             19.0000000000
     20840       674  BMANNA    HN             14.2928254660       29.6420615543       91.3050515894  LPSA19    26             19.0000000000
     20841       674  BMANNA    C              13.9129961998       29.9421451217       93.1798471680  LPSA19    26             19.0000000000
     20842       674  BMANNA    O              13.2566781142       30.6075978916       94.0003587425  LPSA19    26             19.0000000000
     20843       674  BMANNA    CT             14.8218794049       28.8182813094       93.6758917343  LPSA19    26             19.0000000000
     20844       674  BMANNA    HT1            14.9808956254       28.1726320777       92.8666282051  LPSA19    26             19.0000000000
     20845       674  BMANNA    HT2            14.6490842195       28.2785882205       94.6620984389  LPSA19    26             19.0000000000
     20846       674  BMANNA    HT3            15.7919661221       29.2998454559       93.8484898219  LPSA19    26             19.0000000000
     20847       674  BMANNA    C3             14.1566390067       32.4225823955       90.7100883268  LPSA19    26             19.0000000000
     20848       674  BMANNA    H3             13.5510067715       33.2864880270       90.3384445889  LPSA19    26             19.0000000000
     20849       674  BMANNA    O3             15.0077411115       32.9495690481       91.7636866611  LPSA19    26             19.0000000000
     20850       674  BMANNA    HO3            14.4189075076       33.5336381400       92.2265744207  LPSA19    26             19.0000000000
     20851       674  BMANNA    C4             14.8601448742       31.7781884327       89.6481622736  LPSA19    26             19.0000000000
     20852       674  BMANNA    H4             15.4933729454       30.8792456026       89.9013799111  LPSA19    26             19.0000000000
     20853       674  BMANNA    O4             15.7956626238       32.6585649437       89.0416847738  LPSA19    26             19.0000000000
     20854       674  BMANNA    HO4            16.5996688749       32.6455169687       89.5591157304  LPSA19    26             19.0000000000
     20855       674  BMANNA    C6             14.4902899910       30.5089784155       87.3900617492  LPSA19    26             19.0000000000
     20856       674  BMANNA    H61            13.7158759221       29.8779329445       86.9191763972  LPSA19    26             19.0000000000
     20857       674  BMANNA    H62            14.8628726609       31.1687030920       86.6504270337  LPSA19    26             19.0000000000
     20858       674  BMANNA    O6             15.5760818883       29.6549165901       87.7329108337  LPSA19    26             19.0000000000
     20859       674  BMANNA    HO6            16.2399534753       30.1478069781       88.1688153196  LPSA19    26             19.0000000000
     20860       675  BGLCNA    C1              8.0977391704       30.9408693380       93.4616184899  LPSA19    27             19.0000000000
     20861       675  BGLCNA    H1              7.2408180351       30.2748600341       93.4392217979  LPSA19    27             19.0000000000
     20862       675  BGLCNA    C5              6.5190564205       32.6425131534       93.9656603721  LPSA19    27             19.0000000000
     20863       675  BGLCNA    H5              5.7434589336       31.8343372935       93.9564344452  LPSA19    27             19.0000000000
     20864       675  BGLCNA    O5              7.5443703825       32.2104165290       93.0607755266  LPSA19    27             19.0000000000
     20865       675  BGLCNA    C2              8.6663081315       31.0136730496       94.8806799918  LPSA19    27             19.0000000000
     20866       675  BGLCNA    H2              9.4495074424       31.7914385063       94.8757458582  LPSA19    27             19.0000000000
     20867       675  BGLCNA    N               9.2608981791       29.7427805151       95.2501113516  LPSA19    27             19.0000000000
     20868       675  BGLCNA    HN              8.6634508040       28.8906068677       95.0827132934  LPSA19    27             19.0000000000
     20869       675  BGLCNA    C              10.4597019063       29.8154967368       95.9523160909  LPSA19    27             19.0000000000
     20870       675  BGLCNA    O              10.9257836734       30.8474746543       96.5238801166  LPSA19    27             19.0000000000
     20871       675  BGLCNA    CT             11.2269298576       28.4591863463       96.0293745529  LPSA19    27             19.0000000000
     20872       675  BGLCNA    HT1            10.7437383516       27.6933827507       95.3635606282  LPSA19    27             19.0000000000
     20873       675  BGLCNA    HT2            11.3716729696       28.0807612147       97.0167906789  LPSA19    27             19.0000000000
     20874       675  BGLCNA    HT3            12.3172946350       28.6832268968       95.7039804309  LPSA19    27             19.0000000000
     20875       675  BGLCNA    C3              7.5976491910       31.4592988479       95.7540348103  LPSA19    27             19.0000000000
     20876       675  BGLCNA    H3              6.7226296544       30.7628651458       95.7401190096  LPSA19    27             19.0000000000
     20877       675  BGLCNA    O3              8.2332818870       31.4552300851       97.0775356047  LPSA19    27             19.0000000000
     20878       675  BGLCNA    C4              7.0261623971       32.8320240185       95.3486864533  LPSA19    27             19.0000000000
     20879       675  BGLCNA    H4              7.8522737606       33.5788323152       95.3090014479  LPSA19    27             19.0000000000
     20880       675  BGLCNA    O4              6.0367354659       33.2498335575       96.2156872787  LPSA19    27             19.0000000000
     20881       675  BGLCNA    HO4             5.3227383260       32.6780335661       96.0162444362  LPSA19    27             19.0000000000
     20882       675  BGLCNA    C6              5.8586514903       33.8897563070       93.2852949846  LPSA19    27             19.0000000000
     20883       675  BGLCNA    H61             4.9431126917       34.0718240895       93.8557506920  LPSA19    27             19.0000000000
     20884       675  BGLCNA    H62             6.4842011840       34.7941641894       93.4725180191  LPSA19    27             19.0000000000
     20885       675  BGLCNA    O6              5.6128098026       33.6618293960       91.9076175409  LPSA19    27             19.0000000000
     20886       675  BGLCNA    HO6             5.2248418590       34.4802710156       91.5273290588  LPSA19    27             19.0000000000
     20887       676  AGAL      C1              7.4019758528       31.4897930071       98.2622020222  LPSA19    28             20.0000000000
     20888       676  AGAL      H1              6.9424033200       32.4404303299       98.3007149491  LPSA19    28             20.0000000000
     20889       676  AGAL      C5              6.7780053425       29.1487180198       98.1710438288  LPSA19    28             20.0000000000
     20890       676  AGAL      H5              7.7231034702       28.9726835791       97.4646141937  LPSA19    28             20.0000000000
     20891       676  AGAL      O5              6.3276701371       30.5638285479       98.1147365872  LPSA19    28             20.0000000000
     20892       676  AGAL      C2              8.0608682957       31.1891741834       99.6197190629  LPSA19    28             20.0000000000
     20893       676  AGAL      H2              7.2142763635       31.2835210152      100.2965066153  LPSA19    28             20.0000000000
     20894       676  AGAL      O2              9.0354900226       32.1134261847      100.0788731798  LPSA19    28             20.0000000000
     20895       676  AGAL      C3              8.5301056789       29.7732985035       99.7396972452  LPSA19    28             20.0000000000
     20896       676  AGAL      H3              9.2188196493       29.5683031756       98.8607737785  LPSA19    28             20.0000000000
     20897       676  AGAL      O3              9.2817080114       29.3795179943      100.9043404272  LPSA19    28             20.0000000000
     20898       676  AGAL      HO3            10.1597194602       29.1236904929      100.5606486229  LPSA19    28             20.0000000000
     20899       676  AGAL      C4              7.3866861035       28.8681675949       99.5102226768  LPSA19    28             20.0000000000
     20900       676  AGAL      H4              7.7596910798       27.8722546284       99.4798298294  LPSA19    28             20.0000000000
     20901       676  AGAL      O4              6.3888116694       28.9648591322      100.4757933835  LPSA19    28             20.0000000000
     20902       676  AGAL      HO4             6.5069419488       28.2332620141      101.0376442747  LPSA19    28             20.0000000000
     20903       676  AGAL      C6              5.7642265703       28.1333833659       97.6362902244  LPSA19    28             20.0000000000
     20904       676  AGAL      H61             5.5868604149       28.3301138257       96.5809275898  LPSA19    28             20.0000000000
     20905       676  AGAL      H62             6.0262014995       27.0198472996       97.7651048223  LPSA19    28             20.0000000000
     20906       676  AGAL      O6              4.5491851384       28.2594029455       98.3456070822  LPSA19    28             20.0000000000
     20907       676  AGAL      HO6             3.9980109942       28.9309212777       97.9416813930  LPSA19    28             20.0000000000
     20908       677  ARHM      C1              8.8011350040       32.3845986676      101.4808913342  LPSA19    29             21.0000000000
     20909       677  ARHM      H1              8.3066690785       31.4988271928      101.9964955809  LPSA19    29             21.0000000000
     20910       677  ARHM      C5              8.5497589641       34.6954033922      101.1486206043  LPSA19    29             21.0000000000
     20911       677  ARHM      H5              8.7921857564       34.4581772240      100.0935446791  LPSA19    29             21.0000000000
     20912       677  ARHM      O5              8.0091034133       33.5206409271      101.6833506475  LPSA19    29             21.0000000000
     20913       677  ARHM      C2             10.0994987247       32.5194298235      102.1437305515  LPSA19    29             21.0000000000
     20914       677  ARHM      H2             10.7526727012       31.7047707991      101.9067628034  LPSA19    29             21.0000000000
     20915       677  ARHM      O2              9.9740875618       32.5889570315      103.5748524404  LPSA19    29             21.0000000000
     20916       677  ARHM      C3             10.7416439045       33.7763132954      101.6289418068  LPSA19    29             21.0000000000
     20917       677  ARHM      H3             10.9713134147       33.6442971865      100.4952263366  LPSA19    29             21.0000000000
     20918       677  ARHM      O3             12.0176339582       33.8827993081      102.1995749427  LPSA19    29             21.0000000000
     20919       677  ARHM      HO3            12.2035440937       34.7597688221      102.2092645043  LPSA19    29             21.0000000000
     20920       677  ARHM      C4              9.9293952032       34.9802482922      101.8247918557  LPSA19    29             21.0000000000
     20921       677  ARHM      H4              9.7725781449       35.2088962688      102.9338171738  LPSA19    29             21.0000000000
     20922       677  ARHM      O4             10.4669872591       36.2335901868      101.3452167393  LPSA19    29             21.0000000000
     20923       677  ARHM      HO4            10.8905251863       36.1767715085      100.4362974805  LPSA19    29             21.0000000000
     20924       677  ARHM      C6              7.4454314694       35.7651221515      101.2162231226  LPSA19    29             21.0000000000
     20925       677  ARHM      H61             6.5382213238       35.2185111478      100.7685423143  LPSA19    29             21.0000000000
     20926       677  ARHM      H62             7.2288878222       35.9915460778      102.3013153741  LPSA19    29             21.0000000000
     20927       677  ARHM      H63             7.7489445302       36.6235299121      100.6072571094  LPSA19    29             21.0000000000
     20928       678  ARHM      C1             10.1507970108       31.4775588016      104.3945976075  LPSA19    30             22.0000000000
     20929       678  ARHM      H1             11.1647006573       31.0596499013      104.2094096401  LPSA19    30             22.0000000000
     20930       678  ARHM      C5              7.7859473951       30.9145629040      104.5143062533  LPSA19    30             22.0000000000
     20931       678  ARHM      H5              7.7199272490       31.8716349802      103.8668162917  LPSA19    30             22.0000000000
     20932       678  ARHM      O5              9.1363343031       30.4685285618      104.2052433351  LPSA19    30             22.0000000000
     20933       678  ARHM      C2             10.0983013121       31.9154114433      105.8471183130  LPSA19    30             22.0000000000
     20934       678  ARHM      H2             10.8041458638       32.6589426482      106.0289718167  LPSA19    30             22.0000000000
     20935       678  ARHM      O2             10.2914691368       30.7544476219      106.5813641610  LPSA19    30             22.0000000000
     20936       678  ARHM      C3              8.7603377653       32.3621369704      106.2079894766  LPSA19    30             22.0000000000
     20937       678  ARHM      H3              8.4590550829       33.1112662750      105.5270001340  LPSA19    30             22.0000000000
     20938       678  ARHM      O3              8.6765089945       32.9485287120      107.5373891676  LPSA19    30             22.0000000000
     20939       678  ARHM      C4              7.6995759511       31.2821186212      105.9708288384  LPSA19    30             22.0000000000
     20940       678  ARHM      H4              7.8843065099       30.3687715678      106.5400372406  LPSA19    30             22.0000000000
     20941       678  ARHM      O4              6.4251702472       31.6181276455      106.2997755749  LPSA19    30             22.0000000000
     20942       678  ARHM      HO4             5.8999606850       32.1595804259      105.6964454668  LPSA19    30             22.0000000000
     20943       678  ARHM      C6              6.7856951975       29.8718589253      104.0930490251  LPSA19    30             22.0000000000
     20944       678  ARHM      H61             5.7649276738       30.3301816544      104.2143179997  LPSA19    30             22.0000000000
     20945       678  ARHM      H62             6.8557715712       29.7342089317      103.0019050467  LPSA19    30             22.0000000000
     20946       678  ARHM      H63             6.8857698518       28.8864648038      104.6493652223  LPSA19    30             22.0000000000
     20947       679  BMANNA    C1             11.6225625075       30.4695761662      106.9502319096  LPSA19    31             23.0000000000
     20948       679  BMANNA    H1             12.1311119480       31.4382767150      107.1550799008  LPSA19    31             23.0000000000
     20949       679  BMANNA    C5             13.7507624753       29.5535064134      106.2136717625  LPSA19    31             23.0000000000
     20950       679  BMANNA    H5             14.1376430391       30.5269914236      106.5467054000  LPSA19    31             23.0000000000
     20951       679  BMANNA    O5             12.3530970711       29.7898108151      105.8742289322  LPSA19    31             23.0000000000
     20952       679  BMANNA    C2             11.6371837887       29.5968491015      108.0830629221  LPSA19    31             23.0000000000
     20953       679  BMANNA    H2             11.1809359319       30.1835854259      108.9031915743  LPSA19    31             23.0000000000
     20954       679  BMANNA    N              10.7999072434       28.4766379124      107.8252935315  LPSA19    31             23.0000000000
     20955       679  BMANNA    HN             10.6573823085       28.2132728990      106.8111160773  LPSA19    31             23.0000000000
     20956       679  BMANNA    C              10.1666050424       27.7999287147      108.7868858964  LPSA19    31             23.0000000000
     20957       679  BMANNA    O              10.2044189026       28.1472775312      109.9536662434  LPSA19    31             23.0000000000
     20958       679  BMANNA    CT              9.3737164799       26.5681233861      108.3237946568  LPSA19    31             23.0000000000
     20959       679  BMANNA    HT1             9.9398794869       26.0769356686      107.5739831696  LPSA19    31             23.0000000000
     20960       679  BMANNA    HT2             8.4121298841       26.9200608617      107.9347099034  LPSA19    31             23.0000000000
     20961       679  BMANNA    HT3             9.0964305439       25.9290197406      109.1768357935  LPSA19    31             23.0000000000
     20962       679  BMANNA    C3             13.0500881850       29.3314312393      108.4884560283  LPSA19    31             23.0000000000
     20963       679  BMANNA    H3             13.6283565587       30.3073303857      108.6988550870  LPSA19    31             23.0000000000
     20964       679  BMANNA    O3             13.1242866307       28.6488256334      109.7404994872  LPSA19    31             23.0000000000
     20965       679  BMANNA    HO3            12.2489789373       28.8561204378      110.0111610137  LPSA19    31             23.0000000000
     20966       679  BMANNA    C4             13.7695927200       28.6114406982      107.4199857710  LPSA19    31             23.0000000000
     20967       679  BMANNA    H4             13.2981796832       27.5805226768      107.0572414185  LPSA19    31             23.0000000000
     20968       679  BMANNA    O4             15.0853247479       28.2979270099      107.8525671122  LPSA19    31             23.0000000000
     20969       679  BMANNA    HO4            15.5633085550       29.0865110721      108.1943429300  LPSA19    31             23.0000000000
     20970       679  BMANNA    C6             14.5668040798       28.9646229272      105.0512686782  LPSA19    31             23.0000000000
     20971       679  BMANNA    H61            15.6920672008       29.0187061541      105.3397811046  LPSA19    31             23.0000000000
     20972       679  BMANNA    H62            14.3442281395       27.9170568521      104.8698551944  LPSA19    31             23.0000000000
     20973       679  BMANNA    O6             14.3537017757       29.6895451979      103.8241467834  LPSA19    31             23.0000000000
     20974       679  BMANNA    HO6            14.7599713286       30.6023348779      103.8134147631  LPSA19    31             23.0000000000
     20975       680  BGLCNA    C1              8.5777454489       32.0722556682      108.6103969990  LPSA19    32             23.0000000000
     20976       680  BGLCNA    H1              9.1774403024       31.1234219793      108.4325564695  LPSA19    32             23.0000000000
     20977       680  BGLCNA    C5              7.1440674041       30.6395423478      109.9277617404  LPSA19    32             23.0000000000
     20978       680  BGLCNA    H5              7.7939869088       29.7749536992      109.5374749077  LPSA19    32             23.0000000000
     20979       680  BGLCNA    O5              7.2479683171       31.6705660875      108.9423333575  LPSA19    32             23.0000000000
     20980       680  BGLCNA    C2              9.1659964094       32.6566304241      109.8194522937  LPSA19    32             23.0000000000
     20981       680  BGLCNA    H2              8.4801030114       33.4188050947      110.1044894257  LPSA19    32             23.0000000000
     20982       680  BGLCNA    N              10.4595207876       33.2071743975      109.5956973249  LPSA19    32             23.0000000000
     20983       680  BGLCNA    HN             10.9346699527       32.6551580808      108.8809076996  LPSA19    32             23.0000000000
     20984       680  BGLCNA    C              11.0135607089       34.3388915506      110.0864625708  LPSA19    32             23.0000000000
     20985       680  BGLCNA    O              10.4495423522       35.0354970834      110.9304085025  LPSA19    32             23.0000000000
     20986       680  BGLCNA    CT             12.4266738360       34.7091086939      109.5841031968  LPSA19    32             23.0000000000
     20987       680  BGLCNA    HT1            12.4796737385       34.0335729063      108.6281101354  LPSA19    32             23.0000000000
     20988       680  BGLCNA    HT2            13.2435461902       34.4067928823      110.1898124037  LPSA19    32             23.0000000000
     20989       680  BGLCNA    HT3            12.5195913334       35.7888399937      109.3122359934  LPSA19    32             23.0000000000
     20990       680  BGLCNA    C3              9.1831078185       31.6093174772      110.8930231790  LPSA19    32             23.0000000000
     20991       680  BGLCNA    H3              9.6557422992       30.7744510882      110.4606187373  LPSA19    32             23.0000000000
     20992       680  BGLCNA    O3              9.9294676967       31.9734129766      112.0657798240  LPSA19    32             23.0000000000
     20993       680  BGLCNA    C4              7.7532290218       31.2335493400      111.1707572500  LPSA19    32             23.0000000000
     20994       680  BGLCNA    H4              7.2317235974       32.1614462243      111.5318289610  LPSA19    32             23.0000000000
     20995       680  BGLCNA    O4              7.6571709067       30.2921285931      112.2070236435  LPSA19    32             23.0000000000
     20996       680  BGLCNA    HO4             7.5615723134       30.7108387101      113.0745323218  LPSA19    32             23.0000000000
     20997       680  BGLCNA    C6              5.7111100196       30.1588256310      110.0229508171  LPSA19    32             23.0000000000
     20998       680  BGLCNA    H61             5.6186519505       29.2457421413      110.7194343748  LPSA19    32             23.0000000000
     20999       680  BGLCNA    H62             5.0777694014       30.9636001370      110.5717638480  LPSA19    32             23.0000000000
     21000       680  BGLCNA    O6              5.1920379375       29.7596951064      108.7709294272  LPSA19    32             23.0000000000
     21001       680  BGLCNA    HO6             5.9028677917       29.3227054081      108.2360311317  LPSA19    32             23.0000000000
     21002       681  AGAL      C1             10.6649398159       30.8839156845      112.6842874521  LPSA19    33             24.0000000000
     21003       681  AGAL      H1             10.0317538504       29.9974841579      112.5979959475  LPSA19    33             24.0000000000
     21004       681  AGAL      C5             12.8078607734       31.7896549605      112.2149219831  LPSA19    33             24.0000000000
     21005       681  AGAL      H5             12.1954556325       32.6454654224      111.8792915250  LPSA19    33             24.0000000000
     21006       681  AGAL      O5             11.9740821994       30.6582979504      112.0726784748  LPSA19    33             24.0000000000
     21007       681  AGAL      C2             10.8797275643       31.2616228153      114.1482787662  LPSA19    33             24.0000000000
     21008       681  AGAL      H2             11.5542233232       30.4225726286      114.5751854976  LPSA19    33             24.0000000000
     21009       681  AGAL      O2              9.6588027953       31.1141158379      114.8486222260  LPSA19    33             24.0000000000
     21010       681  AGAL      C3             11.7945203599       32.4521761241      114.2945545625  LPSA19    33             24.0000000000
     21011       681  AGAL      H3             11.3626828345       33.3544576087      113.7405815065  LPSA19    33             24.0000000000
     21012       681  AGAL      O3             11.8776262227       32.9459214646      115.5672660328  LPSA19    33             24.0000000000
     21013       681  AGAL      HO3            12.0969795171       32.3364550767      116.2400186851  LPSA19    33             24.0000000000
     21014       681  AGAL      C4             13.1423261088       32.1722230901      113.6708488317  LPSA19    33             24.0000000000
     21015       681  AGAL      H4             13.7761527548       33.0672720431      113.6729875792  LPSA19    33             24.0000000000
     21016       681  AGAL      O4             13.9583420205       31.1245219047      114.2435538900  LPSA19    33             24.0000000000
     21017       681  AGAL      HO4            13.5045817603       30.6202650847      114.9085525172  LPSA19    33             24.0000000000
     21018       681  AGAL      C6             14.0074205127       31.7288670570      111.2992528405  LPSA19    33             24.0000000000
     21019       681  AGAL      H61            13.5747524708       31.7163592921      110.2783408757  LPSA19    33             24.0000000000
     21020       681  AGAL      H62            14.7140957597       32.5789162110      111.3458027743  LPSA19    33             24.0000000000
     21021       681  AGAL      O6             14.8627003894       30.6350840455      111.4129476537  LPSA19    33             24.0000000000
     21022       681  AGAL      HO6            14.5988005659       29.8677033873      110.8444757795  LPSA19    33             24.0000000000
     21023       682  ARHM      C1              9.7392045740       30.3542253176      116.0109133884  LPSA19    34             25.0000000000
     21024       682  ARHM      H1             10.6025335455       30.6331470455      116.6389743656  LPSA19    34             25.0000000000
     21025       682  ARHM      C5              8.8350042576       28.3168893105      115.0727799907  LPSA19    34             25.0000000000
     21026       682  ARHM      H5              8.8533901996       28.7975099249      114.0209633333  LPSA19    34             25.0000000000
     21027       682  ARHM      O5              9.8954880889       28.9253234090      115.8926868953  LPSA19    34             25.0000000000
     21028       682  ARHM      C2              8.4776582250       30.6804852773      116.7601555753  LPSA19    34             25.0000000000
     21029       682  ARHM      H2              8.2412641931       31.7735776197      116.8710959342  LPSA19    34             25.0000000000
     21030       682  ARHM      O2              8.4195852409       30.1399514827      118.1592972339  LPSA19    34             25.0000000000
     21031       682  ARHM      C3              7.3050490984       30.0794394942      115.9988665506  LPSA19    34             25.0000000000
     21032       682  ARHM      H3              7.2522346840       30.4728363822      114.9724172480  LPSA19    34             25.0000000000
     21033       682  ARHM      O3              5.9982865585       30.2873816455      116.5878695042  LPSA19    34             25.0000000000
     21034       682  ARHM      HO3             5.3065188255       30.4559521935      115.9559434517  LPSA19    34             25.0000000000
     21035       682  ARHM      C4              7.4608026456       28.5472093983      115.7987835878  LPSA19    34             25.0000000000
     21036       682  ARHM      H4              7.6284840494       28.0147940351      116.7495315617  LPSA19    34             25.0000000000
     21037       682  ARHM      O4              6.3943942508       27.9740298990      115.1362621200  LPSA19    34             25.0000000000
     21038       682  ARHM      HO4             5.6279932870       27.8687479987      115.6953140327  LPSA19    34             25.0000000000
     21039       682  ARHM      C6              9.0877954517       26.7839421288      114.8413279703  LPSA19    34             25.0000000000
     21040       682  ARHM      H61             9.0648785660       26.1694796919      115.7172490283  LPSA19    34             25.0000000000
     21041       682  ARHM      H62             8.1647074467       26.3690405445      114.3996926230  LPSA19    34             25.0000000000
     21042       682  ARHM      H63             9.9153984093       26.5152162738      114.1590834060  LPSA19    34             25.0000000000
     21043       683  ARHM      C1              9.4506252488       30.5530632286      119.0795908573  LPSA19    35             26.0000000000
     21044       683  ARHM      H1              9.6869257646       31.6797124822      118.8787348947  LPSA19    35             26.0000000000
     21045       683  ARHM      C5             10.4752011920       28.3563011441      119.2408916176  LPSA19    35             26.0000000000
     21046       683  ARHM      H5              9.6768806377       27.9020479605      118.5254732223  LPSA19    35             26.0000000000
     21047       683  ARHM      O5             10.7163529615       29.7816432476      118.9290334222  LPSA19    35             26.0000000000
     21048       683  ARHM      C2              8.9472067112       30.4257175275      120.5365485050  LPSA19    35             26.0000000000
     21049       683  ARHM      H2              8.0583932385       31.0958063687      120.7134209997  LPSA19    35             26.0000000000
     21050       683  ARHM      O2              9.9252880069       30.8481704200      121.4126203716  LPSA19    35             26.0000000000
     21051       683  ARHM      C3              8.6293943172       28.9512298202      120.8720061906  LPSA19    35             26.0000000000
     21052       683  ARHM      H3              7.8205962988       28.6360499266      120.1344793452  LPSA19    35             26.0000000000
     21053       683  ARHM      O3              8.0502151822       28.8247120788      122.1540075829  LPSA19    35             26.0000000000
     21054       683  ARHM      HO3             8.4327177237       29.4912329270      122.7288731339  LPSA19    35             26.0000000000
     21055       683  ARHM      C4              9.8980131101       28.1667190225      120.6788917534  LPSA19    35             26.0000000000
     21056       683  ARHM      H4             10.7496925386       28.5060721763      121.3307119103  LPSA19    35             26.0000000000
     21057       683  ARHM      O4              9.5730532862       26.7896741301      120.9693790153  LPSA19    35             26.0000000000
     21058       683  ARHM      HO4             8.7311661622       26.4837616816      120.5581709812  LPSA19    35             26.0000000000
     21059       683  ARHM      C6             11.7460118847       27.5194917082      118.8642347863  LPSA19    35             26.0000000000
     21060       683  ARHM      H61            11.9278210119       27.5361717016      117.7433556958  LPSA19    35             26.0000000000
     21061       683  ARHM      H62            12.5209221254       28.0269444397      119.4176110492  LPSA19    35             26.0000000000
     21062       683  ARHM      H63            11.4945038877       26.4381308696      119.0633705917  LPSA19    35             26.0000000000
     21063       684  BMANNA    C1             10.1815778351       32.2198327127      121.4471464502  LPSA19    36             27.0000000000
     21064       684  BMANNA    H1              9.2998315510       32.8076295878      121.0972061898  LPSA19    36             27.0000000000
     21065       684  BMANNA    C5             11.3479850938       34.2147300833      120.7299884793  LPSA19    36             27.0000000000
     21066       684  BMANNA    H5             10.3713099338       34.6134114030      120.4610684421  LPSA19    36             27.0000000000
     21067       684  BMANNA    O5             11.2853599057       32.7542536610      120.6641532654  LPSA19    36             27.0000000000
     21068       684  BMANNA    C2             10.4290760486       32.6250329978      122.8920138725  LPSA19    36             27.0000000000
     21069       684  BMANNA    H2              9.5452806563       32.2994346973      123.4719477421  LPSA19    36             27.0000000000
     21070       684  BMANNA    N              11.5927155516       31.9283753139      123.4395449790  LPSA19    36             27.0000000000
     21071       684  BMANNA    HN             12.4176206673       31.8296064941      122.8746519580  LPSA19    36             27.0000000000
     21072       684  BMANNA    C              11.6944720788       31.6828606279      124.7737151700  LPSA19    36             27.0000000000
     21073       684  BMANNA    O              10.8096519507       31.8509363641      125.6190347561  LPSA19    36             27.0000000000
     21074       684  BMANNA    CT             12.9956198848       31.2064726779      125.3570716528  LPSA19    36             27.0000000000
     21075       684  BMANNA    HT1            13.8373082191       31.7182239352      124.8802869227  LPSA19    36             27.0000000000
     21076       684  BMANNA    HT2            13.1982909537       30.1137578439      125.1731404614  LPSA19    36             27.0000000000
     21077       684  BMANNA    HT3            13.0900861158       31.2763024698      126.4547536948  LPSA19    36             27.0000000000
     21078       684  BMANNA    C3             10.5483997208       34.1250902083      122.9763638711  LPSA19    36             27.0000000000
     21079       684  BMANNA    H3              9.6198827205       34.6040255907      122.6403873786  LPSA19    36             27.0000000000
     21080       684  BMANNA    O3             10.7298985462       34.5835427200      124.3414054450  LPSA19    36             27.0000000000
     21081       684  BMANNA    HO3            10.0412781019       35.1218797793      124.7171830083  LPSA19    36             27.0000000000
     21082       684  BMANNA    C4             11.6407923327       34.6381878680      122.1146940524  LPSA19    36             27.0000000000
     21083       684  BMANNA    H4             12.5995576534       34.2882354358      122.4263894750  LPSA19    36             27.0000000000
     21084       684  BMANNA    O4             11.7632314944       36.0553812007      122.2172873890  LPSA19    36             27.0000000000
     21085       684  BMANNA    HO4            11.8879094722       36.0973707551      123.1985163392  LPSA19    36             27.0000000000
     21086       684  BMANNA    C6             12.3326728923       34.6959396380      119.7412642597  LPSA19    36             27.0000000000
     21087       684  BMANNA    H61            12.0368963064       34.4287841482      118.6946701192  LPSA19    36             27.0000000000
     21088       684  BMANNA    H62            12.1997836712       35.7816378538      119.7045442506  LPSA19    36             27.0000000000
     21089       684  BMANNA    O6             13.7122491341       34.3165370923      120.0914698020  LPSA19    36             27.0000000000
     21090       684  BMANNA    HO6            14.0446756281       35.0305224258      120.6476247167  LPSA19    36             27.0000000000
     21091       685  ECLIPA    HB6S          -25.4223235427      -25.1061792140       20.4612168218  LPSA20    1               0.0000000000
     21092       685  ECLIPA    OB6           -26.5137354880      -23.9654402765       21.7140249152  LPSA20    1               0.0000000000
     21093       685  ECLIPA    CB6           -26.4482686686      -25.0364919930       20.7042159014  LPSA20    1               0.0000000000
     21094       685  ECLIPA    HB6R          -26.9376562126      -25.9269892995       21.0541931349  LPSA20    1               0.0000000000
     21095       685  ECLIPA    CB5           -27.2786253013      -24.6853355874       19.3988764877  LPSA20    1               0.0000000000
     21096       685  ECLIPA    OB5           -26.7465887904      -23.3673085322       18.9716901872  LPSA20    1               0.0000000000
     21097       685  ECLIPA    HB5           -28.3070997888      -24.5346478940       19.7771798410  LPSA20    1               0.0000000000
     21098       685  ECLIPA    CB1           -27.4252794598      -22.9289452778       17.7717324898  LPSA20    1               0.0000000000
     21099       685  ECLIPA    HB1           -28.5236807720      -22.8111735082       17.9003641080  LPSA20    1               0.0000000000
     21100       685  ECLIPA    OA6           -26.8881433877      -21.7216376530       17.3217246577  LPSA20    1               0.0000000000
     21101       685  ECLIPA    CA6           -25.4987984506      -21.4222426467       17.5745106853  LPSA20    1               0.0000000000
     21102       685  ECLIPA    HA6R          -24.9583945147      -22.3791712393       17.7226451425  LPSA20    1               0.0000000000
     21103       685  ECLIPA    HA6S          -25.4580361845      -20.6698990327       18.4598965841  LPSA20    1               0.0000000000
     21104       685  ECLIPA    CB4           -27.1436451466      -25.7783104695       18.3206521937  LPSA20    1               0.0000000000
     21105       685  ECLIPA    HB4           -26.0864926847      -25.9118705038       18.0085584641  LPSA20    1               0.0000000000
     21106       685  ECLIPA    OB4           -27.8624462861      -26.8882752871       18.9017319965  LPSA20    1               0.0000000000
     21107       685  ECLIPA    PB            -27.0594461123      -28.2183720336       19.3234616795  LPSA20    1               0.0000000000
     21108       685  ECLIPA    OPB4          -27.7698857939      -28.8040352421       20.5579515876  LPSA20    1               0.0000000000
     21109       685  ECLIPA    OPB3          -25.6685142124      -27.6287273197       19.6614545037  LPSA20    1               0.0000000000
     21110       685  ECLIPA    OPB2          -26.9920093142      -29.1215183104       18.0829495795  LPSA20    1               0.0000000000
     21111       685  ECLIPA    CB3           -27.8649772385      -25.2503197402       17.0955893951  LPSA20    1               0.0000000000
     21112       685  ECLIPA    OB3           -27.7835690728      -26.0734646583       15.9186528231  LPSA20    1               0.0000000000
     21113       685  ECLIPA    HB3           -28.9216359445      -24.9159742599       17.3284540628  LPSA20    1               0.0000000000
     21114       685  ECLIPA    C71           -28.7257991078      -26.9268695058       15.6929469039  LPSA20    1               0.0000000000
     21115       685  ECLIPA    O71           -29.7673164828      -27.0190188151       16.3832172580  LPSA20    1               0.0000000000
     21116       685  ECLIPA    C72           -28.4023806346      -27.6419041054       14.3548430386  LPSA20    1               0.0000000000
     21117       685  ECLIPA    H72R          -28.3072306063      -26.8857085979       13.5774555414  LPSA20    1               0.0000000000
     21118       685  ECLIPA    H72S          -29.2225241542      -28.4508659950       14.1464415926  LPSA20    1               0.0000000000
     21119       685  ECLIPA    CB2           -27.2244118806      -23.9135768227       16.6720734084  LPSA20    1               0.0000000000
     21120       685  ECLIPA    HB2           -26.0728375382      -24.1390540022       16.5298168153  LPSA20    1               0.0000000000
     21121       685  ECLIPA    NB2           -27.8411403599      -23.3381331083       15.4577284722  LPSA20    1               0.0000000000
     21122       685  ECLIPA    HNB2          -28.6622284638      -22.7862208009       15.5965609326  LPSA20    1               0.0000000000
     21123       685  ECLIPA    CA4           -25.8343638979      -19.6969743924       15.7929312798  LPSA20    1               0.0000000000
     21124       685  ECLIPA    HA4           -26.8049982285      -20.1663969595       15.4903430209  LPSA20    1               0.0000000000
     21125       685  ECLIPA    OA4           -26.0579000596      -18.7581896267       16.8012065728  LPSA20    1               0.0000000000
     21126       685  ECLIPA    HOA4          -26.2974293900      -19.1468719156       17.5928838569  LPSA20    1               0.0000000000
     21127       685  ECLIPA    CA5           -24.9509264566      -20.7309105892       16.3547806008  LPSA20    1               0.0000000000
     21128       685  ECLIPA    HA5           -23.8478385621      -20.4272934855       16.5880746347  LPSA20    1               0.0000000000
     21129       685  ECLIPA    OA5           -24.8100920797      -21.7631783656       15.3689671688  LPSA20    1               0.0000000000
     21130       685  ECLIPA    CA1           -24.2638016146      -21.2364814391       14.1076640156  LPSA20    1               0.0000000000
     21131       685  ECLIPA    HA1           -24.5458243677      -22.0741685598       13.4118188108  LPSA20    1               0.0000000000
     21132       685  ECLIPA    OA1           -22.8578087353      -21.0873426693       14.1359876212  LPSA20    1               0.0000000000
     21133       685  ECLIPA    OPA2          -21.3886101579      -21.6185605575       15.9734101064  LPSA20    1               0.0000000000
     21134       685  ECLIPA    OPA3          -22.6296182658      -23.5297470173       14.8300177673  LPSA20    1               0.0000000000
     21135       685  ECLIPA    OPA4          -20.8006597972      -22.3881348347       13.6615320840  LPSA20    1               0.0000000000
     21136       685  ECLIPA    PA            -21.9093370944      -22.2222879704       14.6765383084  LPSA20    1               0.0000000000
     21137       685  ECLIPA    CA3           -25.2939346416      -19.0575235557       14.5219348229  LPSA20    1               0.0000000000
     21138       685  ECLIPA    HA3           -24.3059326165      -18.4894584651       14.7377032538  LPSA20    1               0.0000000000
     21139       685  ECLIPA    OA3           -26.2019153595      -18.0053892367       14.2498111976  LPSA20    1               0.0000000000
     21140       685  ECLIPA    C31           -27.3023945211      -18.3340995517       13.5006246295  LPSA20    1               0.0000000000
     21141       685  ECLIPA    O31           -27.3346016739      -18.4975165927       12.2941239937  LPSA20    1               0.0000000000
     21142       685  ECLIPA    C32           -28.5678399462      -17.9439896116       14.2780289507  LPSA20    1               0.0000000000
     21143       685  ECLIPA    H32R          -29.0883300338      -17.1463973337       13.7149713840  LPSA20    1               0.0000000000
     21144       685  ECLIPA    H32S          -28.3001653005      -17.5972073502       15.2729523512  LPSA20    1               0.0000000000
     21145       685  ECLIPA    CA2           -25.1390726226      -20.1660658485       13.4984733916  LPSA20    1               0.0000000000
     21146       685  ECLIPA    HA2           -26.1124306314      -20.6533031773       13.3982259915  LPSA20    1               0.0000000000
     21147       685  ECLIPA    NA2           -24.5958548317      -19.7042025459       12.2035087571  LPSA20    1               0.0000000000
     21148       685  ECLIPA    HNA2          -24.5388725638      -18.7422078953       12.0865030408  LPSA20    1               0.0000000000
     21149       685  ECLIPA    C73           -27.1108504540      -28.4177135262       14.3319064372  LPSA20    1               0.0000000000
     21150       685  ECLIPA    H73R          -26.9611329032      -29.0163787200       15.2227416964  LPSA20    1               0.0000000000
     21151       685  ECLIPA    O73           -26.0448470785      -27.4381915037       14.2644256719  LPSA20    1               0.0000000000
     21152       685  ECLIPA    C81           -24.8464619593      -27.5774307638       14.8555734565  LPSA20    1               0.0000000000
     21153       685  ECLIPA    O81           -24.6737927583      -28.5386759159       15.6690894779  LPSA20    1               0.0000000000
     21154       685  ECLIPA    C82           -23.8335820936      -26.5296520557       14.3536111794  LPSA20    1               0.0000000000
     21155       685  ECLIPA    H82R          -22.8751657477      -26.6290201163       14.8531840528  LPSA20    1               0.0000000000
     21156       685  ECLIPA    H82S          -24.1973839169      -25.4916849953       14.5323473422  LPSA20    1               0.0000000000
     21157       685  ECLIPA    C83           -23.6342023914      -26.6793224203       12.8301722806  LPSA20    1               0.0000000000
     21158       685  ECLIPA    H83R          -24.4735736362      -26.1558587427       12.2351841548  LPSA20    1               0.0000000000
     21159       685  ECLIPA    H83S          -23.7866941850      -27.7332865792       12.5911296392  LPSA20    1               0.0000000000
     21160       685  ECLIPA    C84           -22.3334637196      -26.0378363986       12.3050927261  LPSA20    1               0.0000000000
     21161       685  ECLIPA    H84R          -21.4937776155      -26.6892607712       12.5767117503  LPSA20    1               0.0000000000
     21162       685  ECLIPA    H84S          -22.3345503807      -25.0598060674       12.7369555497  LPSA20    1               0.0000000000
     21163       685  ECLIPA    C85           -22.3780489480      -25.8608060316       10.7695484051  LPSA20    1               0.0000000000
     21164       685  ECLIPA    H85R          -23.3826086018      -25.4765134209       10.5503608829  LPSA20    1               0.0000000000
     21165       685  ECLIPA    H85S          -22.3171470232      -26.8583872877       10.2367999955  LPSA20    1               0.0000000000
     21166       685  ECLIPA    C86           -21.3608140803      -24.7824951770       10.3034592726  LPSA20    1               0.0000000000
     21167       685  ECLIPA    H86R          -20.3516686933      -25.2137965376        9.9932223571  LPSA20    1               0.0000000000
     21168       685  ECLIPA    H86S          -21.1504157224      -24.0718766109       11.0807540114  LPSA20    1               0.0000000000
     21169       685  ECLIPA    C87           -21.9355834875      -23.8774514408        9.1601018854  LPSA20    1               0.0000000000
     21170       685  ECLIPA    H87R          -21.1929505835      -23.1703009783        8.8049419625  LPSA20    1               0.0000000000
     21171       685  ECLIPA    H87S          -22.7813746385      -23.2432818157        9.5406723883  LPSA20    1               0.0000000000
     21172       685  ECLIPA    C88           -22.5172098500      -24.6930184004        8.0318999685  LPSA20    1               0.0000000000
     21173       685  ECLIPA    H88R          -23.5149991321      -25.1422653880        8.3479828359  LPSA20    1               0.0000000000
     21174       685  ECLIPA    H88S          -21.9330252482      -25.6530203634        7.9254521495  LPSA20    1               0.0000000000
     21175       685  ECLIPA    C89           -22.7724740603      -23.8968466049        6.7101000712  LPSA20    1               0.0000000000
     21176       685  ECLIPA    H89R          -22.7839938878      -22.7978153669        6.8746682686  LPSA20    1               0.0000000000
     21177       685  ECLIPA    H89S          -23.7088388408      -24.1110988284        6.2317001698  LPSA20    1               0.0000000000
     21178       685  ECLIPA    C810          -21.6712583305      -24.2778328408        5.7047246593  LPSA20    1               0.0000000000
     21179       685  ECLIPA    H810R         -21.4431663512      -25.3151161900        6.0108430704  LPSA20    1               0.0000000000
     21180       685  ECLIPA    H810S         -20.8196610638      -23.6426423903        5.8554647029  LPSA20    1               0.0000000000
     21181       685  ECLIPA    C811          -22.0606225060      -24.2059940819        4.2179945741  LPSA20    1               0.0000000000
     21182       685  ECLIPA    H811R         -21.2823667573      -24.1485188136        3.5081125689  LPSA20    1               0.0000000000
     21183       685  ECLIPA    H811S         -22.7911845081      -23.3143130826        4.1819101877  LPSA20    1               0.0000000000
     21184       685  ECLIPA    C812          -23.0166810970      -25.3103813809        3.7413673409  LPSA20    1               0.0000000000
     21185       685  ECLIPA    H812R         -23.3439470843      -25.0285483290        2.6403157337  LPSA20    1               0.0000000000
     21186       685  ECLIPA    H812S         -23.8430939149      -25.5016364609        4.4144737196  LPSA20    1               0.0000000000
     21187       685  ECLIPA    C813          -22.3857252063      -26.7135921056        3.6785234959  LPSA20    1               0.0000000000
     21188       685  ECLIPA    H813R         -21.5518540900      -26.6507490932        2.9398073555  LPSA20    1               0.0000000000
     21189       685  ECLIPA    H813S         -21.9260272024      -27.1038273686        4.6616087352  LPSA20    1               0.0000000000
     21190       685  ECLIPA    C814          -23.3200644252      -27.7762177937        3.1377409857  LPSA20    1               0.0000000000
     21191       685  ECLIPA    H814R         -23.9206586103      -27.4957282010        2.1719074593  LPSA20    1               0.0000000000
     21192       685  ECLIPA    H814S         -24.0456505657      -28.0472510188        3.9166242729  LPSA20    1               0.0000000000
     21193       685  ECLIPA    H814T         -22.7610277267      -28.7088660709        2.8964685373  LPSA20    1               0.0000000000
     21194       685  ECLIPA    C74           -26.8341552596      -29.3538631129       13.1792855021  LPSA20    1               0.0000000000
     21195       685  ECLIPA    H74R          -27.5002677690      -30.1945695853       12.9935747315  LPSA20    1               0.0000000000
     21196       685  ECLIPA    H74S          -25.7731150846      -29.8042281837       13.3086690609  LPSA20    1               0.0000000000
     21197       685  ECLIPA    C75           -26.6808239201      -28.5514610902       11.8151371119  LPSA20    1               0.0000000000
     21198       685  ECLIPA    H75R          -25.8700484333      -29.0983578767       11.2107603889  LPSA20    1               0.0000000000
     21199       685  ECLIPA    H75S          -26.3214153908      -27.5224509390       12.0082837783  LPSA20    1               0.0000000000
     21200       685  ECLIPA    C76           -27.9514893555      -28.4694145249       10.9251453624  LPSA20    1               0.0000000000
     21201       685  ECLIPA    H76R          -28.6317219285      -27.6837787766       11.3555905686  LPSA20    1               0.0000000000
     21202       685  ECLIPA    H76S          -28.5975182306      -29.4417172791       10.9731137071  LPSA20    1               0.0000000000
     21203       685  ECLIPA    C77           -27.7570982982      -28.1607226207        9.4191603634  LPSA20    1               0.0000000000
     21204       685  ECLIPA    H77R          -27.1581842666      -28.9530152512        9.0408775908  LPSA20    1               0.0000000000
     21205       685  ECLIPA    H77S          -27.0875268436      -27.2799812736        9.2852383479  LPSA20    1               0.0000000000
     21206       685  ECLIPA    C78           -29.1438078184      -27.8737072610        8.8297405752  LPSA20    1               0.0000000000
     21207       685  ECLIPA    H78R          -29.8067442780      -28.6742297169        9.1562620580  LPSA20    1               0.0000000000
     21208       685  ECLIPA    H78S          -29.4546132023      -26.9083853146        9.3169442960  LPSA20    1               0.0000000000
     21209       685  ECLIPA    C79           -29.1039691970      -27.4890077271        7.2570767761  LPSA20    1               0.0000000000
     21210       685  ECLIPA    H79R          -29.1115925907      -26.3587024359        7.1763205913  LPSA20    1               0.0000000000
     21211       685  ECLIPA    H79S          -30.0180461653      -27.8659571224        6.7882549413  LPSA20    1               0.0000000000
     21212       685  ECLIPA    C710          -28.0640075244      -28.1916242506        6.3785096220  LPSA20    1               0.0000000000
     21213       685  ECLIPA    H710R         -27.0835611076      -27.9395204260        6.8460783027  LPSA20    1               0.0000000000
     21214       685  ECLIPA    H710S         -28.2084270676      -29.2000886538        6.4843026416  LPSA20    1               0.0000000000
     21215       685  ECLIPA    C711          -28.0493166849      -27.7225504065        4.9384125046  LPSA20    1               0.0000000000
     21216       685  ECLIPA    H711R         -29.0397609620      -27.9933079875        4.5670708729  LPSA20    1               0.0000000000
     21217       685  ECLIPA    H711S         -27.8494623386      -26.6208589868        4.9306188492  LPSA20    1               0.0000000000
     21218       685  ECLIPA    C712          -26.9206725502      -28.4350796548        4.2148670498  LPSA20    1               0.0000000000
     21219       685  ECLIPA    H712R         -27.1250983649      -29.5069393025        4.3130666899  LPSA20    1               0.0000000000
     21220       685  ECLIPA    H712S         -26.0390742878      -28.2535371904        4.8522839389  LPSA20    1               0.0000000000
     21221       685  ECLIPA    C713          -26.7244605562      -27.8834649607        2.7357390519  LPSA20    1               0.0000000000
     21222       685  ECLIPA    H713R         -26.4489124306      -26.8016713718        2.8800411466  LPSA20    1               0.0000000000
     21223       685  ECLIPA    H713S         -25.8698106751      -28.5042415558        2.2750064041  LPSA20    1               0.0000000000
     21224       685  ECLIPA    C714          -27.9784055974      -28.1661923556        1.8879763961  LPSA20    1               0.0000000000
     21225       685  ECLIPA    H714R         -28.1426840160      -29.2457516239        1.7626189762  LPSA20    1               0.0000000000
     21226       685  ECLIPA    H714S         -28.8422827664      -27.5709626630        2.2081901572  LPSA20    1               0.0000000000
     21227       685  ECLIPA    H714T         -27.6609806347      -27.8128775218        0.9249202435  LPSA20    1               0.0000000000
     21228       685  ECLIPA    C51           -27.4492943360      -23.7412046168       14.2380633031  LPSA20    1               0.0000000000
     21229       685  ECLIPA    O51           -26.3321914348      -24.2907614584       14.1304636378  LPSA20    1               0.0000000000
     21230       685  ECLIPA    C52           -28.4264717568      -23.5929669616       13.0157035712  LPSA20    1               0.0000000000
     21231       685  ECLIPA    H52R          -29.1193082775      -24.4133297966       12.8950255930  LPSA20    1               0.0000000000
     21232       685  ECLIPA    H52S          -28.9485526694      -22.6855074755       13.2222025935  LPSA20    1               0.0000000000
     21233       685  ECLIPA    C53           -27.5333094722      -23.2910155643       11.7526064304  LPSA20    1               0.0000000000
     21234       685  ECLIPA    H53R          -26.5856806932      -22.8284480394       12.0082431084  LPSA20    1               0.0000000000
     21235       685  ECLIPA    O53           -28.3797935272      -22.5696038342       10.8431816314  LPSA20    1               0.0000000000
     21236       685  ECLIPA    C61           -28.0368747576      -21.3364159462       10.5090573566  LPSA20    1               0.0000000000
     21237       685  ECLIPA    O61           -27.0593736532      -20.7570134270       10.8659713306  LPSA20    1               0.0000000000
     21238       685  ECLIPA    C62           -29.1062635470      -20.7530044779        9.5765835255  LPSA20    1               0.0000000000
     21239       685  ECLIPA    H62R          -29.9548069412      -20.4286551612       10.2152837125  LPSA20    1               0.0000000000
     21240       685  ECLIPA    H62S          -29.5551070341      -21.6206692091        9.0470049452  LPSA20    1               0.0000000000
     21241       685  ECLIPA    C63           -28.5345797803      -19.6246593710        8.6803029234  LPSA20    1               0.0000000000
     21242       685  ECLIPA    H63R          -27.5749018615      -19.9894578802        8.2798705976  LPSA20    1               0.0000000000
     21243       685  ECLIPA    H63S          -28.3069179931      -18.6674934824        9.3252199642  LPSA20    1               0.0000000000
     21244       685  ECLIPA    C64           -29.3444115857      -19.1713199978        7.5279067597  LPSA20    1               0.0000000000
     21245       685  ECLIPA    H64R          -28.8840168406      -18.2846630932        6.9620099216  LPSA20    1               0.0000000000
     21246       685  ECLIPA    H64S          -30.3671964333      -18.8749314550        7.9657393466  LPSA20    1               0.0000000000
     21247       685  ECLIPA    C65           -29.5830504955      -20.3680306979        6.5414948800  LPSA20    1               0.0000000000
     21248       685  ECLIPA    H65R          -30.1054155481      -21.0672426457        7.2423230371  LPSA20    1               0.0000000000
     21249       685  ECLIPA    H65S          -28.6030115848      -20.7528650394        6.1828980290  LPSA20    1               0.0000000000
     21250       685  ECLIPA    C66           -30.4330839602      -20.0760433988        5.2222643966  LPSA20    1               0.0000000000
     21251       685  ECLIPA    H66R          -31.4184282787      -19.7414156523        5.5395647249  LPSA20    1               0.0000000000
     21252       685  ECLIPA    H66S          -30.4838172517      -21.1276954548        4.8113963288  LPSA20    1               0.0000000000
     21253       685  ECLIPA    C67           -29.8531822295      -19.1654686265        4.1696839457  LPSA20    1               0.0000000000
     21254       685  ECLIPA    H67R          -29.5044188814      -18.2147894300        4.5058181646  LPSA20    1               0.0000000000
     21255       685  ECLIPA    H67S          -30.6069263799      -19.0012201287        3.3478820057  LPSA20    1               0.0000000000
     21256       685  ECLIPA    C68           -28.6100447877      -19.6996463026        3.5077075145  LPSA20    1               0.0000000000
     21257       685  ECLIPA    H68R          -28.6535272553      -20.6983237777        3.0112508411  LPSA20    1               0.0000000000
     21258       685  ECLIPA    H68S          -27.8943233270      -19.6540512080        4.3087918325  LPSA20    1               0.0000000000
     21259       685  ECLIPA    C69           -28.2588525777      -18.8372470758        2.2963532923  LPSA20    1               0.0000000000
     21260       685  ECLIPA    H69R          -28.6036708330      -17.7854210658        2.3203210098  LPSA20    1               0.0000000000
     21261       685  ECLIPA    H69S          -28.8465241631      -19.2306869213        1.4693744207  LPSA20    1               0.0000000000
     21262       685  ECLIPA    C610          -26.8173057730      -18.8529469274        1.9396251084  LPSA20    1               0.0000000000
     21263       685  ECLIPA    H610R         -26.4007454743      -19.8908660680        2.0603347121  LPSA20    1               0.0000000000
     21264       685  ECLIPA    H610S         -26.2293750020      -18.2338556246        2.6933643884  LPSA20    1               0.0000000000
     21265       685  ECLIPA    C611          -26.5153231951      -18.2305608235        0.5312153135  LPSA20    1               0.0000000000
     21266       685  ECLIPA    H611R         -26.8922479816      -17.1900458682        0.5735373188  LPSA20    1               0.0000000000
     21267       685  ECLIPA    H611S         -25.4711216576      -18.0152462808        0.3609598123  LPSA20    1               0.0000000000
     21268       685  ECLIPA    C612          -27.0715182481      -19.1064030158       -0.5788949292  LPSA20    1               0.0000000000
     21269       685  ECLIPA    H612R         -26.4762049779      -20.0620838376       -0.6060949542  LPSA20    1               0.0000000000
     21270       685  ECLIPA    H612S         -28.0878801572      -19.4225407739       -0.3132441764  LPSA20    1               0.0000000000
     21271       685  ECLIPA    H612T         -27.0096061472      -18.6219390422       -1.5574606966  LPSA20    1               0.0000000000
     21272       685  ECLIPA    C54           -27.2457848824      -24.6900449110       11.1776054589  LPSA20    1               0.0000000000
     21273       685  ECLIPA    H54R          -28.2307673668      -25.1632094627       10.8869876633  LPSA20    1               0.0000000000
     21274       685  ECLIPA    H54S          -26.8331957695      -25.3503627838       11.9574517429  LPSA20    1               0.0000000000
     21275       685  ECLIPA    C55           -26.2979223556      -24.8224004889        9.9916770240  LPSA20    1               0.0000000000
     21276       685  ECLIPA    H55R          -25.9474295642      -25.8591036148        9.7856946516  LPSA20    1               0.0000000000
     21277       685  ECLIPA    H55S          -25.3620677845      -24.2072023210       10.2436295858  LPSA20    1               0.0000000000
     21278       685  ECLIPA    C56           -27.0580145087      -24.4339010673        8.7515486822  LPSA20    1               0.0000000000
     21279       685  ECLIPA    H56R          -27.4189669118      -23.3634723206        8.8382497819  LPSA20    1               0.0000000000
     21280       685  ECLIPA    H56S          -27.8821003295      -25.0192363144        8.4741334449  LPSA20    1               0.0000000000
     21281       685  ECLIPA    C57           -26.2083769108      -24.2371521354        7.4395707935  LPSA20    1               0.0000000000
     21282       685  ECLIPA    H57R          -25.6124712569      -25.1147772449        7.1827428724  LPSA20    1               0.0000000000
     21283       685  ECLIPA    H57S          -25.4614186490      -23.4191454163        7.5196553379  LPSA20    1               0.0000000000
     21284       685  ECLIPA    C58           -27.1387837365      -23.8015926812        6.2350750625  LPSA20    1               0.0000000000
     21285       685  ECLIPA    H58R          -28.0819289530      -24.4146608966        6.2095761879  LPSA20    1               0.0000000000
     21286       685  ECLIPA    H58S          -27.5723910997      -22.8046305290        6.5224540661  LPSA20    1               0.0000000000
     21287       685  ECLIPA    C59           -26.4128156345      -23.9316342612        4.8667186835  LPSA20    1               0.0000000000
     21288       685  ECLIPA    H59R          -26.0633409982      -24.9588979977        4.6589989540  LPSA20    1               0.0000000000
     21289       685  ECLIPA    H59S          -25.5736683951      -23.2413955866        5.0825555512  LPSA20    1               0.0000000000
     21290       685  ECLIPA    C510          -27.3461275028      -23.6493551292        3.6752379292  LPSA20    1               0.0000000000
     21291       685  ECLIPA    H510R         -28.0202010699      -22.7328917675        3.7937959224  LPSA20    1               0.0000000000
     21292       685  ECLIPA    H510S         -28.0722241223      -24.5569452302        3.4613250382  LPSA20    1               0.0000000000
     21293       685  ECLIPA    C511          -26.6656258197      -23.4801593146        2.3004848829  LPSA20    1               0.0000000000
     21294       685  ECLIPA    H511R         -26.2849090706      -22.4412593901        2.2679211996  LPSA20    1               0.0000000000
     21295       685  ECLIPA    H511S         -25.7511432709      -24.1331319525        2.1940961976  LPSA20    1               0.0000000000
     21296       685  ECLIPA    C512          -27.5622891066      -23.6476721987        1.0189424135  LPSA20    1               0.0000000000
     21297       685  ECLIPA    H512R         -26.9171248414      -23.7254669077        0.0815295424  LPSA20    1               0.0000000000
     21298       685  ECLIPA    H512S         -28.1681631869      -24.5574005559        1.1129704346  LPSA20    1               0.0000000000
     21299       685  ECLIPA    C513          -28.4503174595      -22.3751000568        0.6457389972  LPSA20    1               0.0000000000
     21300       685  ECLIPA    H513R         -27.8068155908      -21.4524771341        0.5010832175  LPSA20    1               0.0000000000
     21301       685  ECLIPA    H513S         -29.0953478458      -22.1491321095        1.4088770719  LPSA20    1               0.0000000000
     21302       685  ECLIPA    C514          -29.1706574158      -22.5927241047       -0.6567184026  LPSA20    1               0.0000000000
     21303       685  ECLIPA    H514R         -29.7531639502      -23.5133024005       -0.6273993866  LPSA20    1               0.0000000000
     21304       685  ECLIPA    H514S         -29.9007444952      -21.7816131502       -0.7024724270  LPSA20    1               0.0000000000
     21305       685  ECLIPA    H514T         -28.4369915046      -22.6171483895       -1.5427815912  LPSA20    1               0.0000000000
     21306       685  ECLIPA    C33           -29.6767456986      -19.0721274979       14.4880792826  LPSA20    1               0.0000000000
     21307       685  ECLIPA    H33R          -30.6118656633      -18.5524347065       14.8828993596  LPSA20    1               0.0000000000
     21308       685  ECLIPA    O33           -29.2663317186      -20.0058346553       15.4699768821  LPSA20    1               0.0000000000
     21309       685  ECLIPA    HO33          -29.3229709689      -19.5986986954       16.2926205744  LPSA20    1               0.0000000000
     21310       685  ECLIPA    C34           -30.1063834221      -19.8649385552       13.2255459338  LPSA20    1               0.0000000000
     21311       685  ECLIPA    H34R          -29.2418330014      -20.3633595436       12.8010908313  LPSA20    1               0.0000000000
     21312       685  ECLIPA    H34S          -30.4159983323      -19.1395862198       12.3772221142  LPSA20    1               0.0000000000
     21313       685  ECLIPA    C35           -31.2105515563      -20.9190339695       13.4256256262  LPSA20    1               0.0000000000
     21314       685  ECLIPA    H35R          -32.1264818345      -20.3987517821       13.6963698038  LPSA20    1               0.0000000000
     21315       685  ECLIPA    H35S          -30.9307346047      -21.5663220022       14.2668166019  LPSA20    1               0.0000000000
     21316       685  ECLIPA    C36           -31.6344784567      -21.7338520789       12.1865608177  LPSA20    1               0.0000000000
     21317       685  ECLIPA    H36R          -30.6182036543      -21.7716199578       11.7430812241  LPSA20    1               0.0000000000
     21318       685  ECLIPA    H36S          -32.3586865495      -21.2192853966       11.4785220412  LPSA20    1               0.0000000000
     21319       685  ECLIPA    C37           -31.9778996148      -23.1721142035       12.5255831563  LPSA20    1               0.0000000000
     21320       685  ECLIPA    H37R          -33.1500841486      -23.1465653291       12.6765215637  LPSA20    1               0.0000000000
     21321       685  ECLIPA    H37S          -31.5850519958      -23.4785409056       13.5128993321  LPSA20    1               0.0000000000
     21322       685  ECLIPA    C38           -31.6690446519      -24.2319569682       11.4317274953  LPSA20    1               0.0000000000
     21323       685  ECLIPA    H38R          -30.6098860694      -24.5377515103       11.4067421357  LPSA20    1               0.0000000000
     21324       685  ECLIPA    H38S          -32.1934298508      -25.1600193277       11.7230999881  LPSA20    1               0.0000000000
     21325       685  ECLIPA    C39           -32.0207237915      -23.7167588617       10.0213367345  LPSA20    1               0.0000000000
     21326       685  ECLIPA    H39R          -31.5018347290      -22.7436415395        9.8128797222  LPSA20    1               0.0000000000
     21327       685  ECLIPA    H39S          -33.1410781788      -23.6751588161        9.9697980947  LPSA20    1               0.0000000000
     21328       685  ECLIPA    C310          -31.7041340651      -24.6585376786        8.8401719124  LPSA20    1               0.0000000000
     21329       685  ECLIPA    H310R         -32.3802198011      -25.5660485184        9.0626900142  LPSA20    1               0.0000000000
     21330       685  ECLIPA    H310S         -30.6246044529      -24.9849929670        8.8945759064  LPSA20    1               0.0000000000
     21331       685  ECLIPA    C311          -31.7185238571      -23.9446907332        7.5676235846  LPSA20    1               0.0000000000
     21332       685  ECLIPA    H311R         -32.5477367444      -23.1924847496        7.5507520616  LPSA20    1               0.0000000000
     21333       685  ECLIPA    H311S         -30.7718725036      -23.3884885595        7.2851462164  LPSA20    1               0.0000000000
     21334       685  ECLIPA    C312          -31.8471035374      -24.8573430526        6.3280121142  LPSA20    1               0.0000000000
     21335       685  ECLIPA    H312R         -31.2996377560      -25.8206564010        6.4861373960  LPSA20    1               0.0000000000
     21336       685  ECLIPA    H312S         -32.9347367224      -25.0759164822        6.1820758986  LPSA20    1               0.0000000000
     21337       685  ECLIPA    C313          -31.3498658108      -24.2207473103        4.9895779706  LPSA20    1               0.0000000000
     21338       685  ECLIPA    H313R         -32.0860258111      -23.5068830505        4.7825120466  LPSA20    1               0.0000000000
     21339       685  ECLIPA    H313S         -30.3716994709      -23.6890933225        5.1572698764  LPSA20    1               0.0000000000
     21340       685  ECLIPA    C314          -31.2046458046      -25.1269709529        3.8116661598  LPSA20    1               0.0000000000
     21341       685  ECLIPA    H314R         -32.1907114557      -25.6260406050        3.6067793993  LPSA20    1               0.0000000000
     21342       685  ECLIPA    H314S         -30.8628606713      -24.6586580932        2.8849361441  LPSA20    1               0.0000000000
     21343       685  ECLIPA    H314T         -30.4767879908      -25.9812119512        4.0446347774  LPSA20    1               0.0000000000
     21344       685  ECLIPA    C11           -24.0278229620      -20.4518900262       11.2900808200  LPSA20    1               0.0000000000
     21345       685  ECLIPA    O11           -24.0785862196      -21.6664153322       11.1394597694  LPSA20    1               0.0000000000
     21346       685  ECLIPA    C12           -23.1231208934      -19.6786266111       10.2853014675  LPSA20    1               0.0000000000
     21347       685  ECLIPA    H12R          -22.0383001631      -19.8717272076       10.4852637814  LPSA20    1               0.0000000000
     21348       685  ECLIPA    H12S          -23.3596118417      -18.6074502892       10.5222272274  LPSA20    1               0.0000000000
     21349       685  ECLIPA    C13           -23.4016830366      -19.9395301394        8.8110583416  LPSA20    1               0.0000000000
     21350       685  ECLIPA    H13R          -23.5618016897      -21.0603514277        8.5839874118  LPSA20    1               0.0000000000
     21351       685  ECLIPA    O13           -22.1846483308      -19.5355574067        8.1311342176  LPSA20    1               0.0000000000
     21352       685  ECLIPA    HO13          -22.1156158101      -19.9801337504        7.3064966676  LPSA20    1               0.0000000000
     21353       685  ECLIPA    C14           -24.6599911649      -19.1813280924        8.4581579993  LPSA20    1               0.0000000000
     21354       685  ECLIPA    H14R          -24.7105987463      -18.1521606424        8.9706443184  LPSA20    1               0.0000000000
     21355       685  ECLIPA    H14S          -25.5198775338      -19.8307483042        8.7243868424  LPSA20    1               0.0000000000
     21356       685  ECLIPA    C15           -24.8183769310      -18.8966952824        6.9526486677  LPSA20    1               0.0000000000
     21357       685  ECLIPA    H15R          -23.9325794633      -18.4343240318        6.5500123177  LPSA20    1               0.0000000000
     21358       685  ECLIPA    H15S          -25.6921605585      -18.2473131775        6.8782608049  LPSA20    1               0.0000000000
     21359       685  ECLIPA    C16           -25.0319720348      -20.2119499930        6.1622847334  LPSA20    1               0.0000000000
     21360       685  ECLIPA    H16R          -26.1114202184      -20.5950719084        6.2733383262  LPSA20    1               0.0000000000
     21361       685  ECLIPA    H16S          -24.5200113445      -21.0160730065        6.7182496574  LPSA20    1               0.0000000000
     21362       685  ECLIPA    C17           -24.6867619708      -20.0862156567        4.6801229578  LPSA20    1               0.0000000000
     21363       685  ECLIPA    H17R          -25.1720956617      -19.0948454287        4.4246758429  LPSA20    1               0.0000000000
     21364       685  ECLIPA    H17S          -25.1272114139      -20.8269695046        4.0046542873  LPSA20    1               0.0000000000
     21365       685  ECLIPA    C18           -23.2003529521      -20.0532992454        4.4504458171  LPSA20    1               0.0000000000
     21366       685  ECLIPA    H18R          -22.8972914931      -19.2648460958        5.0865821920  LPSA20    1               0.0000000000
     21367       685  ECLIPA    H18S          -22.7786370983      -21.0473743120        4.7749867078  LPSA20    1               0.0000000000
     21368       685  ECLIPA    C19           -22.8439097519      -19.7841283183        3.0097966450  LPSA20    1               0.0000000000
     21369       685  ECLIPA    H19R          -21.7750945490      -19.6472659445        2.9245509529  LPSA20    1               0.0000000000
     21370       685  ECLIPA    H19S          -23.3863688610      -18.8589400059        2.6238151240  LPSA20    1               0.0000000000
     21371       685  ECLIPA    C110          -23.1814977578      -20.9941654861        2.1045801788  LPSA20    1               0.0000000000
     21372       685  ECLIPA    H110R         -22.7977129548      -21.9584748138        2.4416701971  LPSA20    1               0.0000000000
     21373       685  ECLIPA    H110S         -24.2919885681      -20.9622028774        2.1583327743  LPSA20    1               0.0000000000
     21374       685  ECLIPA    C111          -22.7344500803      -20.6950376612        0.7563571155  LPSA20    1               0.0000000000
     21375       685  ECLIPA    H111R         -22.9503906324      -19.6491726178        0.3999767799  LPSA20    1               0.0000000000
     21376       685  ECLIPA    H111S         -21.6769643822      -20.7337007933        0.7977177860  LPSA20    1               0.0000000000
     21377       685  ECLIPA    C112          -23.1944194455      -21.7183705687       -0.2937360943  LPSA20    1               0.0000000000
     21378       685  ECLIPA    H112R         -22.8004457004      -22.6463543049        0.1973446929  LPSA20    1               0.0000000000
     21379       685  ECLIPA    H112S         -24.2683455265      -21.9064677929       -0.2177998937  LPSA20    1               0.0000000000
     21380       685  ECLIPA    C113          -22.9135686750      -21.3023884181       -1.7468031795  LPSA20    1               0.0000000000
     21381       685  ECLIPA    H113R         -23.5466047614      -20.4152752259       -1.9802017524  LPSA20    1               0.0000000000
     21382       685  ECLIPA    H113S         -21.8921234475      -20.9234394547       -1.8531093719  LPSA20    1               0.0000000000
     21383       685  ECLIPA    C114          -22.9858258537      -22.3441972109       -2.8344928043  LPSA20    1               0.0000000000
     21384       685  ECLIPA    H114R         -22.4513160769      -23.2888001554       -2.7829422503  LPSA20    1               0.0000000000
     21385       685  ECLIPA    H114S         -24.0595210181      -22.6426048392       -2.9951089580  LPSA20    1               0.0000000000
     21386       685  ECLIPA    H114T         -22.4799050126      -21.9559656739       -3.7399523103  LPSA20    1               0.0000000000
     21387       686  AKDO      C1            -28.7022222407      -24.3696329115       22.4410509549  LPSA20    2               0.0000000000
     21388       686  AKDO      O11           -29.2009886278      -25.5460548240       22.4913720772  LPSA20    2               0.0000000000
     21389       686  AKDO      O12           -29.2233202303      -23.2771276773       22.0800765534  LPSA20    2               0.0000000000
     21390       686  AKDO      C2            -27.2414650203      -24.2685686094       22.8913181237  LPSA20    2               0.0000000000
     21391       686  AKDO      C6            -25.4790116974      -25.5585243152       23.8039205188  LPSA20    2               0.0000000000
     21392       686  AKDO      H6            -24.8834533136      -25.3725671600       22.9487387861  LPSA20    2               0.0000000000
     21393       686  AKDO      O6            -26.9135033234      -25.5056699776       23.4267274814  LPSA20    2               0.0000000000
     21394       686  AKDO      C3            -27.0272309621      -23.2674679761       23.9587385105  LPSA20    2               0.0000000000
     21395       686  AKDO      H31           -27.6639932985      -23.3575741964       24.7868435866  LPSA20    2               0.0000000000
     21396       686  AKDO      H32           -27.1613733756      -22.2134806336       23.4151264596  LPSA20    2               0.0000000000
     21397       686  AKDO      C4            -25.5615793679      -23.2673952501       24.3842593775  LPSA20    2               0.0000000000
     21398       686  AKDO      H4            -24.8866348409      -23.1375031149       23.5563617270  LPSA20    2               0.0000000000
     21399       686  AKDO      O4            -25.3472318052      -22.2343973252       25.3355834555  LPSA20    2               0.0000000000
     21400       686  AKDO      C5            -25.1237248381      -24.5516147176       24.9292437177  LPSA20    2               0.0000000000
     21401       686  AKDO      H5            -24.0052816229      -24.5854468929       25.0107888161  LPSA20    2               0.0000000000
     21402       686  AKDO      O5            -25.8539871036      -24.7795234420       26.2083878813  LPSA20    2               0.0000000000
     21403       686  AKDO      C7            -25.0083202869      -27.0333462479       24.1981149098  LPSA20    2               0.0000000000
     21404       686  AKDO      H7            -25.5505261106      -27.3294116567       25.0939202098  LPSA20    2               0.0000000000
     21405       686  AKDO      O7            -23.5665299887      -27.1177509247       24.3482682347  LPSA20    2               0.0000000000
     21406       686  AKDO      HO7           -23.2268890241      -27.1278045955       23.4945166536  LPSA20    2               0.0000000000
     21407       686  AKDO      C8            -25.4018443272      -27.9456441312       22.9864433882  LPSA20    2               0.0000000000
     21408       686  AKDO      H81           -26.5112299064      -27.8435384540       22.9153150275  LPSA20    2               0.0000000000
     21409       686  AKDO      H82           -24.8219581232      -27.5450287865       22.0745354517  LPSA20    2               0.0000000000
     21410       686  AKDO      O8            -25.0577968184      -29.3466666888       23.3537996748  LPSA20    2               0.0000000000
     21411       686  AKDO      HO8           -25.7177949493      -29.9460219478       22.9179804014  LPSA20    2               0.0000000000
     21412       687  AKDO      C1            -24.1695712643      -20.8609210579       23.8027969005  LPSA20    3               1.0000000000
     21413       687  AKDO      O11           -24.6557635861      -20.6720677540       22.6471489042  LPSA20    3               1.0000000000
     21414       687  AKDO      O12           -22.9531948636      -21.0160487789       24.0656860145  LPSA20    3               1.0000000000
     21415       687  AKDO      C2            -25.0876549551      -20.8831489631       25.0166033796  LPSA20    3               1.0000000000
     21416       687  AKDO      C6            -27.2938950831      -20.2949085006       25.7688829792  LPSA20    3               1.0000000000
     21417       687  AKDO      H6            -27.5484301341      -21.3841158132       25.9810553331  LPSA20    3               1.0000000000
     21418       687  AKDO      O6            -26.3618110465      -20.2174177297       24.7076657818  LPSA20    3               1.0000000000
     21419       687  AKDO      C3            -24.5114393968      -20.2655379928       26.3187707743  LPSA20    3               1.0000000000
     21420       687  AKDO      H31           -24.2824584133      -19.1336191337       26.1504935106  LPSA20    3               1.0000000000
     21421       687  AKDO      H32           -23.5611750128      -20.7441706084       26.5929217108  LPSA20    3               1.0000000000
     21422       687  AKDO      C4            -25.5482926333      -20.4077027752       27.4036122013  LPSA20    3               1.0000000000
     21423       687  AKDO      H4            -25.8722127280      -21.4529747339       27.4051754129  LPSA20    3               1.0000000000
     21424       687  AKDO      O4            -25.1311628249      -20.0868531204       28.7388570077  LPSA20    3               1.0000000000
     21425       687  AKDO      HO4           -25.2274061649      -20.7879821835       29.3717785514  LPSA20    3               1.0000000000
     21426       687  AKDO      C5            -26.7240595526      -19.7130367567       27.0369167275  LPSA20    3               1.0000000000
     21427       687  AKDO      H5            -27.4626848343      -19.7538824946       27.9236884022  LPSA20    3               1.0000000000
     21428       687  AKDO      O5            -26.4486251883      -18.3120940253       26.8495261943  LPSA20    3               1.0000000000
     21429       687  AKDO      HO5           -25.7967844184      -18.2010874348       26.1887877298  LPSA20    3               1.0000000000
     21430       687  AKDO      C7            -28.5408913101      -19.5715326479       25.3258859863  LPSA20    3               1.0000000000
     21431       687  AKDO      H7            -28.3377479025      -18.4778161179       25.1324849511  LPSA20    3               1.0000000000
     21432       687  AKDO      O7            -29.5472927556      -19.7113269352       26.3661029982  LPSA20    3               1.0000000000
     21433       687  AKDO      HO7           -30.2919896190      -19.1060326795       26.1647669547  LPSA20    3               1.0000000000
     21434       687  AKDO      C8            -29.0678140243      -20.2896042856       24.1539635864  LPSA20    3               1.0000000000
     21435       687  AKDO      H81           -28.3288122842      -20.2918245783       23.3419478721  LPSA20    3               1.0000000000
     21436       687  AKDO      H82           -29.3809531732      -21.3363194474       24.2853144505  LPSA20    3               1.0000000000
     21437       687  AKDO      O8            -30.2042971323      -19.6214688683       23.6541307456  LPSA20    3               1.0000000000
     21438       687  AKDO      HO8           -29.7167692348      -18.8807333907       23.2473452835  LPSA20    3               1.0000000000
     21439       688  AHEP      C1            -25.1915005899      -25.4321403308       27.2793229502  LPSA20    4               2.0000000000
     21440       688  AHEP      H1            -25.3575035263      -26.4746398664       26.8517192453  LPSA20    4               2.0000000000
     21441       688  AHEP      C5            -23.3533351661      -24.0368169212       28.0185271385  LPSA20    4               2.0000000000
     21442       688  AHEP      H5            -24.0083509751      -23.1971198619       27.5619054335  LPSA20    4               2.0000000000
     21443       688  AHEP      O5            -23.7788597488      -25.2450560019       27.3942805697  LPSA20    4               2.0000000000
     21444       688  AHEP      C2            -25.7391975790      -25.4842528117       28.6827861277  LPSA20    4               2.0000000000
     21445       688  AHEP      H2            -26.8288771896      -25.5802390099       28.7442425996  LPSA20    4               2.0000000000
     21446       688  AHEP      O2            -25.2170410065      -26.5814435331       29.3407203943  LPSA20    4               2.0000000000
     21447       688  AHEP      HO2           -25.8907107646      -26.9898556854       29.8507927467  LPSA20    4               2.0000000000
     21448       688  AHEP      C3            -25.3496048661      -24.2267196412       29.4857672188  LPSA20    4               2.0000000000
     21449       688  AHEP      H3            -25.8863301625      -23.3036491861       29.2269906369  LPSA20    4               2.0000000000
     21450       688  AHEP      O3            -25.6999409669      -24.3837604780       30.7882097304  LPSA20    4               2.0000000000
     21451       688  AHEP      C4            -23.8518164507      -24.0618871642       29.4546205599  LPSA20    4               2.0000000000
     21452       688  AHEP      H4            -23.2655169000      -24.8574919803       29.9788637739  LPSA20    4               2.0000000000
     21453       688  AHEP      O4            -23.5193532974      -22.8257436225       30.0145912217  LPSA20    4               2.0000000000
     21454       688  AHEP      P4            -22.7835487114      -22.6820825327       31.4978499249  LPSA20    4               2.0000000000
     21455       688  AHEP      OP42          -23.2657174281      -21.4503252283       32.1560374192  LPSA20    4               2.0000000000
     21456       688  AHEP      OP43          -21.3584623586      -22.5797114676       31.0397938518  LPSA20    4               2.0000000000
     21457       688  AHEP      OP44          -22.9843099840      -23.9997666726       32.3098937101  LPSA20    4               2.0000000000
     21458       688  AHEP      C6            -21.8194491844      -23.7782197947       27.7982482844  LPSA20    4               2.0000000000
     21459       688  AHEP      H6            -21.6498403751      -22.6954950386       28.0833143566  LPSA20    4               2.0000000000
     21460       688  AHEP      O6            -21.1096707341      -24.6203671194       28.7103505027  LPSA20    4               2.0000000000
     21461       688  AHEP      HO6           -20.4190773026      -24.1182576277       29.2203787365  LPSA20    4               2.0000000000
     21462       688  AHEP      C7            -21.3505257984      -23.9686607892       26.3054198206  LPSA20    4               2.0000000000
     21463       688  AHEP      H71           -20.2777675825      -23.6103982943       26.1576126064  LPSA20    4               2.0000000000
     21464       688  AHEP      H72           -22.0985379941      -23.5037241931       25.6323487339  LPSA20    4               2.0000000000
     21465       688  AHEP      O7            -21.3032325158      -25.3537304745       25.9755159574  LPSA20    4               2.0000000000
     21466       688  AHEP      HO7           -20.4716012003      -25.7107023536       26.3256794122  LPSA20    4               2.0000000000
     21467       689  AHEP      C1            -26.6265496266      -23.4813690984       31.4342177374  LPSA20    5               3.0000000000
     21468       689  AHEP      H1            -26.5840877222      -22.4569867650       30.9794447437  LPSA20    5               3.0000000000
     21469       689  AHEP      C5            -28.1917311685      -25.2116176504       31.9165413065  LPSA20    5               3.0000000000
     21470       689  AHEP      H5            -27.3469977833      -25.9144134518       31.6031509785  LPSA20    5               3.0000000000
     21471       689  AHEP      O5            -27.9809224923      -23.9502794357       31.3013865768  LPSA20    5               3.0000000000
     21472       689  AHEP      C2            -26.3886563164      -23.3066336589       32.9718957084  LPSA20    5               3.0000000000
     21473       689  AHEP      H2            -25.2994152156      -23.0017990411       33.0921707216  LPSA20    5               3.0000000000
     21474       689  AHEP      O2            -27.2091345012      -22.2660548065       33.4691025827  LPSA20    5               3.0000000000
     21475       689  AHEP      HO2           -26.6864233459      -21.4891045984       33.6403503244  LPSA20    5               3.0000000000
     21476       689  AHEP      C3            -26.5687588221      -24.6545586159       33.7004304811  LPSA20    5               3.0000000000
     21477       689  AHEP      H3            -25.8436093458      -25.3913245711       33.3375632548  LPSA20    5               3.0000000000
     21478       689  AHEP      O3            -26.4019713786      -24.6283093901       35.1462238331  LPSA20    5               3.0000000000
     21479       689  AHEP      C4            -27.9718282064      -25.0908119265       33.4524658705  LPSA20    5               3.0000000000
     21480       689  AHEP      H4            -28.7192844366      -24.3455648357       33.8188816395  LPSA20    5               3.0000000000
     21481       689  AHEP      O4            -28.1584034254      -26.3942583780       34.0881196202  LPSA20    5               3.0000000000
     21482       689  AHEP      P4            -29.2006729270      -26.5752436659       35.2810123301  LPSA20    5               3.0000000000
     21483       689  AHEP      OP42          -28.9677089242      -27.9668231566       35.8202965042  LPSA20    5               3.0000000000
     21484       689  AHEP      OP43          -30.5931835179      -26.4366866515       34.6107506294  LPSA20    5               3.0000000000
     21485       689  AHEP      OP44          -28.9626909017      -25.4403842521       36.2417033353  LPSA20    5               3.0000000000
     21486       689  AHEP      C6            -29.5390390504      -25.8524211186       31.5493607386  LPSA20    5               3.0000000000
     21487       689  AHEP      H6            -29.6311386732      -26.8744706309       31.9533288164  LPSA20    5               3.0000000000
     21488       689  AHEP      O6            -30.6118538020      -25.0574186046       32.0428602265  LPSA20    5               3.0000000000
     21489       689  AHEP      HO6           -30.8112294698      -24.2256652446       31.5367188277  LPSA20    5               3.0000000000
     21490       689  AHEP      C7            -29.5927260208      -26.1160111621       30.0822725317  LPSA20    5               3.0000000000
     21491       689  AHEP      H71           -30.1946819052      -27.0363860120       29.9169108581  LPSA20    5               3.0000000000
     21492       689  AHEP      H72           -28.6039005606      -26.2900788776       29.6179339851  LPSA20    5               3.0000000000
     21493       689  AHEP      O7            -30.3525518227      -25.0382090519       29.4957736452  LPSA20    5               3.0000000000
     21494       690  AHEP      C1            -29.5767894940      -24.1150031990       28.7926622005  LPSA20    6               4.0000000000
     21495       690  AHEP      H1            -28.4679998497      -24.2546824801       29.0422981953  LPSA20    6               4.0000000000
     21496       690  AHEP      C5            -31.0613864783      -24.1016294775       26.9237617191  LPSA20    6               4.0000000000
     21497       690  AHEP      H5            -31.7071281037      -24.7938129270       27.4818042043  LPSA20    6               4.0000000000
     21498       690  AHEP      O5            -29.6995265758      -24.2519900136       27.3547530115  LPSA20    6               4.0000000000
     21499       690  AHEP      C2            -29.9503966844      -22.7289135409       29.2397872647  LPSA20    6               4.0000000000
     21500       690  AHEP      H2            -29.7481339496      -22.6746122018       30.3523091474  LPSA20    6               4.0000000000
     21501       690  AHEP      O2            -29.0879386169      -21.7465819835       28.7267108980  LPSA20    6               4.0000000000
     21502       690  AHEP      HO2           -28.5824793589      -21.4727672479       29.4669064354  LPSA20    6               4.0000000000
     21503       690  AHEP      C3            -31.4293719423      -22.4867939349       28.8468391403  LPSA20    6               4.0000000000
     21504       690  AHEP      H3            -32.0322102082      -23.1930023085       29.4311808254  LPSA20    6               4.0000000000
     21505       690  AHEP      O3            -31.9377280824      -21.1149793791       29.2225362108  LPSA20    6               4.0000000000
     21506       690  AHEP      HO3           -32.4441722393      -21.0512292581       29.9865592523  LPSA20    6               4.0000000000
     21507       690  AHEP      C4            -31.5164831758      -22.6838195762       27.2761740859  LPSA20    6               4.0000000000
     21508       690  AHEP      H4            -31.0001234783      -21.8654657535       26.7944950683  LPSA20    6               4.0000000000
     21509       690  AHEP      O4            -32.8575981891      -22.5114325916       26.7938835778  LPSA20    6               4.0000000000
     21510       690  AHEP      HO4           -33.3280742072      -23.3557684229       27.1589530594  LPSA20    6               4.0000000000
     21511       690  AHEP      C6            -31.2763592672      -24.4876668658       25.4906533340  LPSA20    6               4.0000000000
     21512       690  AHEP      H6            -32.3490433438      -24.4241455110       25.3442628137  LPSA20    6               4.0000000000
     21513       690  AHEP      O6            -30.7483396321      -23.4701922981       24.6375675438  LPSA20    6               4.0000000000
     21514       690  AHEP      HO6           -30.1317463547      -23.8379922844       23.9977784313  LPSA20    6               4.0000000000
     21515       690  AHEP      C7            -30.8733568219      -25.8997056139       25.1799756221  LPSA20    6               4.0000000000
     21516       690  AHEP      H71           -31.2338767620      -26.1291408232       24.1408078076  LPSA20    6               4.0000000000
     21517       690  AHEP      H72           -31.3876475317      -26.5324302288       25.9252229174  LPSA20    6               4.0000000000
     21518       690  AHEP      O7            -29.4972636612      -26.1296382660       25.2517430265  LPSA20    6               4.0000000000
     21519       690  AHEP      HO7           -29.3329263194      -26.3034180789       26.2011285002  LPSA20    6               4.0000000000
     21520       691  AGLC      C1            -25.0868705305      -24.8065274911       35.6520976122  LPSA20    7               4.0000000000
     21521       691  AGLC      H1            -24.6448712776      -25.7624999726       35.2047739589  LPSA20    7               4.0000000000
     21522       691  AGLC      C5            -24.6248512283      -22.5368838089       36.0987679218  LPSA20    7               4.0000000000
     21523       691  AGLC      H5            -25.6504841726      -22.2432751045       35.8327124756  LPSA20    7               4.0000000000
     21524       691  AGLC      O5            -24.2574313730      -23.7014105616       35.4366254460  LPSA20    7               4.0000000000
     21525       691  AGLC      C2            -25.0952629176      -25.0201414320       37.1582745954  LPSA20    7               4.0000000000
     21526       691  AGLC      H2            -23.9966646372      -25.0831542127       37.4887389927  LPSA20    7               4.0000000000
     21527       691  AGLC      O2            -25.5781186391      -26.3333334639       37.5024056006  LPSA20    7               4.0000000000
     21528       691  AGLC      HO2           -26.5161500754      -26.2262736559       37.6430208865  LPSA20    7               4.0000000000
     21529       691  AGLC      C3            -25.4999986079      -23.9047489242       37.9903802326  LPSA20    7               4.0000000000
     21530       691  AGLC      H3            -26.5228112874      -23.6982102834       37.6727250444  LPSA20    7               4.0000000000
     21531       691  AGLC      O3            -25.6319007241      -24.1488848073       39.4204481292  LPSA20    7               4.0000000000
     21532       691  AGLC      C4            -24.5542219895      -22.8092317371       37.5928595998  LPSA20    7               4.0000000000
     21533       691  AGLC      H4            -23.4881547499      -23.0505537641       37.9560286200  LPSA20    7               4.0000000000
     21534       691  AGLC      O4            -25.0766831294      -21.6205030364       38.2243117391  LPSA20    7               4.0000000000
     21535       691  AGLC      HO4           -24.4214690436      -21.0817309796       38.6132003238  LPSA20    7               4.0000000000
     21536       691  AGLC      C6            -23.8332339834      -21.3352957632       35.5245160098  LPSA20    7               4.0000000000
     21537       691  AGLC      H61           -23.9705932410      -21.3683529835       34.4135318240  LPSA20    7               4.0000000000
     21538       691  AGLC      H62           -24.1076272999      -20.3164026244       35.8722646349  LPSA20    7               4.0000000000
     21539       691  AGLC      O6            -22.4116297229      -21.6246813051       35.6892983147  LPSA20    7               4.0000000000
     21540       691  AGLC      HO6           -22.2456889566      -21.1180028362       36.4386090630  LPSA20    7               4.0000000000
     21541       692  AGLC      C1            -26.9145295296      -24.0700435205       39.9328324507  LPSA20    8               5.0000000000
     21542       692  AGLC      H1            -27.4028422051      -23.1417406978       39.5884769495  LPSA20    8               5.0000000000
     21543       692  AGLC      C5            -27.3902597396      -26.4903431811       40.2153373402  LPSA20    8               5.0000000000
     21544       692  AGLC      H5            -26.3822607459      -26.7046321679       39.8400606936  LPSA20    8               5.0000000000
     21545       692  AGLC      O5            -27.7722171246      -25.2202929922       39.6195505863  LPSA20    8               5.0000000000
     21546       692  AGLC      C2            -26.8882136366      -23.9657874408       41.4170311384  LPSA20    8               5.0000000000
     21547       692  AGLC      H2            -27.9521062470      -23.7371328339       41.6529594578  LPSA20    8               5.0000000000
     21548       692  AGLC      O2            -26.2317852725      -22.8184186130       41.9438754185  LPSA20    8               5.0000000000
     21549       692  AGLC      C3            -26.4602279395      -25.1975880502       42.1297388169  LPSA20    8               5.0000000000
     21550       692  AGLC      H3            -25.4375281581      -25.3173709218       41.6567950186  LPSA20    8               5.0000000000
     21551       692  AGLC      O3            -26.3656255891      -24.9473661091       43.5370978028  LPSA20    8               5.0000000000
     21552       692  AGLC      C4            -27.3881901535      -26.2570690417       41.7603093222  LPSA20    8               5.0000000000
     21553       692  AGLC      H4            -28.3931252047      -26.0003699902       42.0401368658  LPSA20    8               5.0000000000
     21554       692  AGLC      O4            -27.0475810669      -27.4689467372       42.3914819843  LPSA20    8               5.0000000000
     21555       692  AGLC      HO4           -26.1254785788      -27.5513290574       42.3800652601  LPSA20    8               5.0000000000
     21556       692  AGLC      C6            -28.1730874766      -27.7354372807       39.7357334439  LPSA20    8               5.0000000000
     21557       692  AGLC      H61           -28.3193750280      -27.7821919856       38.6468043611  LPSA20    8               5.0000000000
     21558       692  AGLC      H62           -27.7475311474      -28.6774567437       40.0276014644  LPSA20    8               5.0000000000
     21559       692  AGLC      O6            -29.4429608026      -27.8642996648       40.3040784562  LPSA20    8               5.0000000000
     21560       692  AGLC      HO6           -29.4103539793      -28.2242075649       41.2121845210  LPSA20    8               5.0000000000
     21561       693  AGAL      C1            -26.5621011819      -21.5527633898       41.4573847493  LPSA20    9               6.0000000000
     21562       693  AGAL      H1            -26.6073475916      -21.5690272248       40.3420235153  LPSA20    9               6.0000000000
     21563       693  AGAL      C5            -27.8693244460      -20.7480653908       43.2125447641  LPSA20    9               6.0000000000
     21564       693  AGAL      H5            -27.4526485173      -21.6916854281       43.7424973645  LPSA20    9               6.0000000000
     21565       693  AGAL      O5            -27.8494203457      -20.9807330691       41.8451689838  LPSA20    9               6.0000000000
     21566       693  AGAL      C2            -25.4599528093      -20.6006197159       41.8393925249  LPSA20    9               6.0000000000
     21567       693  AGAL      H2            -25.6665434204      -19.6300545377       41.4115621152  LPSA20    9               6.0000000000
     21568       693  AGAL      O2            -24.2259466461      -20.9014448532       41.1608705954  LPSA20    9               6.0000000000
     21569       693  AGAL      C3            -25.4491279209      -20.3210060155       43.3264191845  LPSA20    9               6.0000000000
     21570       693  AGAL      H3            -25.1896121004      -21.2877763016       43.9424563891  LPSA20    9               6.0000000000
     21571       693  AGAL      O3            -24.3872607306      -19.5196408239       43.7491515633  LPSA20    9               6.0000000000
     21572       693  AGAL      HO3           -23.6484923273      -19.7279170429       43.1585960960  LPSA20    9               6.0000000000
     21573       693  AGAL      C4            -26.7761930149      -19.7620137752       43.6505755014  LPSA20    9               6.0000000000
     21574       693  AGAL      H4            -26.9308998331      -19.6087992116       44.7734818408  LPSA20    9               6.0000000000
     21575       693  AGAL      O4            -27.0647206053      -18.5373261589       43.0499075873  LPSA20    9               6.0000000000
     21576       693  AGAL      HO4           -27.6480270331      -18.0627287826       43.6622427513  LPSA20    9               6.0000000000
     21577       693  AGAL      C6            -29.2601276515      -20.6166532562       43.8349081587  LPSA20    9               6.0000000000
     21578       693  AGAL      H61           -29.9226382348      -21.4994311198       43.6417203355  LPSA20    9               6.0000000000
     21579       693  AGAL      H62           -29.2679739035      -20.5410248512       44.9292747136  LPSA20    9               6.0000000000
     21580       693  AGAL      O6            -29.9034426570      -19.4545312797       43.4062227539  LPSA20    9               6.0000000000
     21581       693  AGAL      HO6           -30.5138760604      -19.7160143101       42.6923548993  LPSA20    9               6.0000000000
     21582       694  AGAL      C1            -22.9109172087      -21.0251620635       41.7517281777  LPSA20    10              7.0000000000
     21583       694  AGAL      H1            -22.5814204514      -19.9814053717       41.8429972083  LPSA20    10              7.0000000000
     21584       694  AGAL      C5            -23.0332600885      -23.0401948729       43.0613392294  LPSA20    10              7.0000000000
     21585       694  AGAL      H5            -24.1230951513      -23.1355111128       42.6233508762  LPSA20    10              7.0000000000
     21586       694  AGAL      O5            -22.6782471602      -21.6442174346       43.0470213554  LPSA20    10              7.0000000000
     21587       694  AGAL      C2            -22.0461288924      -21.7762815310       40.7227968417  LPSA20    10              7.0000000000
     21588       694  AGAL      H2            -20.9527156636      -21.5675614671       41.0433947026  LPSA20    10              7.0000000000
     21589       694  AGAL      O2            -21.8885057154      -21.0979698508       39.5532095562  LPSA20    10              7.0000000000
     21590       694  AGAL      HO2           -20.9696514145      -20.9938104706       39.3379401176  LPSA20    10              7.0000000000
     21591       694  AGAL      C3            -22.3523427430      -23.2310499145       40.6928251787  LPSA20    10              7.0000000000
     21592       694  AGAL      H3            -23.4166141968      -23.2573678559       40.4679648945  LPSA20    10              7.0000000000
     21593       694  AGAL      O3            -21.6146883106      -23.9788745263       39.7732034444  LPSA20    10              7.0000000000
     21594       694  AGAL      HO3           -22.2115567285      -24.1962962959       39.0151094934  LPSA20    10              7.0000000000
     21595       694  AGAL      C4            -22.1367165500      -23.8025106800       42.0524071915  LPSA20    10              7.0000000000
     21596       694  AGAL      H4            -22.4541529650      -24.8615995869       42.1099272557  LPSA20    10              7.0000000000
     21597       694  AGAL      O4            -20.8123057230      -23.7480872761       42.4965010455  LPSA20    10              7.0000000000
     21598       694  AGAL      HO4           -20.6370903151      -22.8269579662       42.5675127347  LPSA20    10              7.0000000000
     21599       694  AGAL      C6            -23.1007056634      -23.7108941859       44.3959537205  LPSA20    10              7.0000000000
     21600       694  AGAL      H61           -23.7101258898      -23.1582210402       45.1044438806  LPSA20    10              7.0000000000
     21601       694  AGAL      H62           -23.6920783508      -24.7398557881       44.2564473849  LPSA20    10              7.0000000000
     21602       694  AGAL      O6            -21.8904857233      -24.0378555708       45.1112340130  LPSA20    10              7.0000000000
     21603       694  AGAL      HO6           -21.8700566223      -23.5002540456       45.9237589285  LPSA20    10              7.0000000000
     21604       695  BGLC      C1            -27.3709521522      -25.2005337910       44.5018065681  LPSA20    11              6.0000000000
     21605       695  BGLC      H1            -27.3375175859      -26.2764935311       44.5883763758  LPSA20    11              6.0000000000
     21606       695  BGLC      C5            -29.7738144475      -24.8593199517       45.1248117688  LPSA20    11              6.0000000000
     21607       695  BGLC      H5            -29.9474367931      -25.9613313949       45.3871201921  LPSA20    11              6.0000000000
     21608       695  BGLC      O5            -28.6802772095      -24.6435739234       44.0830650888  LPSA20    11              6.0000000000
     21609       695  BGLC      C2            -26.9892322003      -24.5316356498       45.7977571702  LPSA20    11              6.0000000000
     21610       695  BGLC      H2            -26.8099945061      -23.4289756527       45.7293388291  LPSA20    11              6.0000000000
     21611       695  BGLC      O2            -25.6938089414      -25.0357564819       46.0886391483  LPSA20    11              6.0000000000
     21612       695  BGLC      HO2           -25.1240291729      -24.3155229911       46.2788110113  LPSA20    11              6.0000000000
     21613       695  BGLC      C3            -27.9825008753      -24.6847722777       46.8736276645  LPSA20    11              6.0000000000
     21614       695  BGLC      H3            -28.0026210303      -25.8091625242       47.1984917368  LPSA20    11              6.0000000000
     21615       695  BGLC      O3            -27.5068795173      -23.9656375041       48.0056213318  LPSA20    11              6.0000000000
     21616       695  BGLC      C4            -29.2714072065      -24.1877978156       46.4390836423  LPSA20    11              6.0000000000
     21617       695  BGLC      H4            -29.1156671988      -23.0818624514       46.2001611147  LPSA20    11              6.0000000000
     21618       695  BGLC      O4            -30.2370134313      -24.2310869183       47.4766894645  LPSA20    11              6.0000000000
     21619       695  BGLC      HO4           -30.0101961013      -23.5536645523       48.1247908570  LPSA20    11              6.0000000000
     21620       695  BGLC      C6            -31.1260880090      -24.4310512497       44.5291127165  LPSA20    11              6.0000000000
     21621       695  BGLC      H61           -31.9088878291      -24.2310660521       45.2481190913  LPSA20    11              6.0000000000
     21622       695  BGLC      H62           -30.9266827780      -23.5339367311       43.8913252379  LPSA20    11              6.0000000000
     21623       695  BGLC      O6            -31.6869347124      -25.3619581631       43.5637942269  LPSA20    11              6.0000000000
     21624       695  BGLC      HO6           -32.4350302079      -25.6887018376       44.0054369298  LPSA20    11              6.0000000000
     21625       696  BGLCNA    C1            -27.4118725301      -24.5523945749       49.3238540420  LPSA20    12              7.0000000000
     21626       696  BGLCNA    H1            -26.3989490697      -25.0760082995       49.3874222992  LPSA20    12              7.0000000000
     21627       696  BGLCNA    C5            -28.2806172876      -26.1591442304       50.8763077070  LPSA20    12              7.0000000000
     21628       696  BGLCNA    H5            -27.2371985274      -26.7026383539       50.9814236466  LPSA20    12              7.0000000000
     21629       696  BGLCNA    O5            -28.4556967145      -25.5164968249       49.5875345322  LPSA20    12              7.0000000000
     21630       696  BGLCNA    C2            -27.5130681980      -23.4495839063       50.3245054808  LPSA20    12              7.0000000000
     21631       696  BGLCNA    H2            -28.6368548879      -23.1175473475       50.3375086743  LPSA20    12              7.0000000000
     21632       696  BGLCNA    N             -26.5200937476      -22.3968135123       50.0347611965  LPSA20    12              7.0000000000
     21633       696  BGLCNA    HN            -25.6663853590      -22.7996855923       49.9972643287  LPSA20    12              7.0000000000
     21634       696  BGLCNA    C             -26.8802468439      -21.1577632171       49.8903426450  LPSA20    12              7.0000000000
     21635       696  BGLCNA    O             -28.0434620729      -20.8346754003       50.0855928044  LPSA20    12              7.0000000000
     21636       696  BGLCNA    CT            -25.7987113430      -20.1720641006       49.5677689528  LPSA20    12              7.0000000000
     21637       696  BGLCNA    HT1           -25.6259455317      -19.4566208546       50.3918503408  LPSA20    12              7.0000000000
     21638       696  BGLCNA    HT2           -26.1625766539      -19.4480094103       48.7104760971  LPSA20    12              7.0000000000
     21639       696  BGLCNA    HT3           -24.9143887987      -20.7680614790       49.2316245990  LPSA20    12              7.0000000000
     21640       696  BGLCNA    C3            -27.3284375208      -23.9682308213       51.6995695120  LPSA20    12              7.0000000000
     21641       696  BGLCNA    H3            -26.2329919805      -24.3930043052       51.8605307917  LPSA20    12              7.0000000000
     21642       696  BGLCNA    O3            -27.3649316009      -22.9404748432       52.7272334264  LPSA20    12              7.0000000000
     21643       696  BGLCNA    C4            -28.3660004018      -25.0135273966       51.9591692987  LPSA20    12              7.0000000000
     21644       696  BGLCNA    H4            -29.4543279886      -24.6301752660       51.9037868612  LPSA20    12              7.0000000000
     21645       696  BGLCNA    O4            -28.2460043597      -25.5619294818       53.2294962294  LPSA20    12              7.0000000000
     21646       696  BGLCNA    HO4           -27.4778054373      -26.2024507252       53.2834945119  LPSA20    12              7.0000000000
     21647       696  BGLCNA    C6            -29.3247971186      -27.2914761426       50.9528560558  LPSA20    12              7.0000000000
     21648       696  BGLCNA    H61           -29.3077766672      -27.7500745582       51.9144325068  LPSA20    12              7.0000000000
     21649       696  BGLCNA    H62           -30.2650540537      -26.7656468140       50.8287962869  LPSA20    12              7.0000000000
     21650       696  BGLCNA    O6            -29.1849399939      -28.1635498157       49.8597561973  LPSA20    12              7.0000000000
     21651       696  BGLCNA    HO6           -28.5784776068      -28.8121206550       50.1903398796  LPSA20    12              7.0000000000
     21652       697  AGAL      C1            -26.3924431535      -23.0764039316       53.8132743488  LPSA20    13              8.0000000000
     21653       697  AGAL      H1            -26.4167076088      -24.1210905838       54.1959401301  LPSA20    13              8.0000000000
     21654       697  AGAL      C5            -25.1174961324      -21.0977394418       53.2950732168  LPSA20    13              8.0000000000
     21655       697  AGAL      H5            -25.9027947140      -20.9177133593       52.5641412600  LPSA20    13              8.0000000000
     21656       697  AGAL      O5            -25.0680323118      -22.5197420441       53.4918445955  LPSA20    13              8.0000000000
     21657       697  AGAL      C2            -26.7765978255      -22.2966146944       55.1010141246  LPSA20    13              8.0000000000
     21658       697  AGAL      H2            -25.9097471875      -22.3131756353       55.7917211299  LPSA20    13              8.0000000000
     21659       697  AGAL      O2            -27.8816078541      -22.8673925193       55.7701983428  LPSA20    13              8.0000000000
     21660       697  AGAL      C3            -26.8162432737      -20.7626528289       54.8979691660  LPSA20    13              8.0000000000
     21661       697  AGAL      H3            -27.4560149480      -20.5485576850       54.0477453328  LPSA20    13              8.0000000000
     21662       697  AGAL      O3            -27.4470038076      -20.0748275655       55.9888739531  LPSA20    13              8.0000000000
     21663       697  AGAL      HO3           -27.9966955055      -19.3597923130       55.6848713412  LPSA20    13              8.0000000000
     21664       697  AGAL      C4            -25.5264572608      -20.2791459848       54.5514025965  LPSA20    13              8.0000000000
     21665       697  AGAL      H4            -25.5750898422      -19.1803714312       54.1954731349  LPSA20    13              8.0000000000
     21666       697  AGAL      O4            -24.5659162179      -20.4266075764       55.5743212917  LPSA20    13              8.0000000000
     21667       697  AGAL      HO4           -24.5563771204      -21.2703881470       56.0499681296  LPSA20    13              8.0000000000
     21668       697  AGAL      C6            -23.9507757737      -20.5041811048       52.5301443486  LPSA20    13              8.0000000000
     21669       697  AGAL      H61           -23.7629740318      -21.0989042654       51.6253596531  LPSA20    13              8.0000000000
     21670       697  AGAL      H62           -24.1587662620      -19.4172017686       52.3684678279  LPSA20    13              8.0000000000
     21671       697  AGAL      O6            -22.7656687161      -20.5362969085       53.2985910507  LPSA20    13              8.0000000000
     21672       697  AGAL      HO6           -22.7880603837      -19.8003328505       53.9299633642  LPSA20    13              8.0000000000
     21673       698  ARHM      C1            -27.7103194552      -23.4903615904       57.0117786358  LPSA20    14              9.0000000000
     21674       698  ARHM      H1            -26.6632949497      -23.8579992077       56.9981767125  LPSA20    14              9.0000000000
     21675       698  ARHM      C5            -29.9026754118      -24.2518789657       57.1930138837  LPSA20    14              9.0000000000
     21676       698  ARHM      H5            -30.1156348889      -23.7082743640       56.1976867078  LPSA20    14              9.0000000000
     21677       698  ARHM      O5            -28.5706339420      -24.6071072302       57.1718909996  LPSA20    14              9.0000000000
     21678       698  ARHM      C2            -27.9543342577      -22.4656099826       58.1413490634  LPSA20    14              9.0000000000
     21679       698  ARHM      H2            -27.3052069520      -21.6371197939       57.8875987320  LPSA20    14              9.0000000000
     21680       698  ARHM      O2            -27.7126013343      -22.9340970281       59.4330148990  LPSA20    14              9.0000000000
     21681       698  ARHM      C3            -29.3926844432      -22.0364669703       58.1095432995  LPSA20    14              9.0000000000
     21682       698  ARHM      H3            -29.6447646794      -21.7577810366       57.0440121713  LPSA20    14              9.0000000000
     21683       698  ARHM      O3            -29.6819167257      -20.8952527239       58.8567888868  LPSA20    14              9.0000000000
     21684       698  ARHM      HO3           -29.6608602718      -21.1990140221       59.8104957846  LPSA20    14              9.0000000000
     21685       698  ARHM      C4            -30.2088373001      -23.2546487534       58.3490442956  LPSA20    14              9.0000000000
     21686       698  ARHM      H4            -30.0040462947      -23.8168348177       59.2902338481  LPSA20    14              9.0000000000
     21687       698  ARHM      O4            -31.6097082567      -22.8763003107       58.4446785014  LPSA20    14              9.0000000000
     21688       698  ARHM      HO4           -32.0278579502      -22.9870207978       59.2969967688  LPSA20    14              9.0000000000
     21689       698  ARHM      C6            -30.7795499449      -25.5142528178       57.2492155848  LPSA20    14              9.0000000000
     21690       698  ARHM      H61           -30.4577887686      -26.3527765390       56.5358243550  LPSA20    14              9.0000000000
     21691       698  ARHM      H62           -30.7999575021      -25.8129453250       58.3170764683  LPSA20    14              9.0000000000
     21692       698  ARHM      H63           -31.8266259851      -25.4582608530       56.9421594120  LPSA20    14              9.0000000000
     21693       699  ARHM      C1            -26.5523955611      -23.5381309343       59.7267990175  LPSA20    15             10.0000000000
     21694       699  ARHM      H1            -25.7396490665      -23.2049076504       59.0458905905  LPSA20    15             10.0000000000
     21695       699  ARHM      C5            -27.4762075366      -25.6517620133       60.6468530148  LPSA20    15             10.0000000000
     21696       699  ARHM      H5            -28.5706890352      -25.4263901862       60.4457705401  LPSA20    15             10.0000000000
     21697       699  ARHM      O5            -26.6187062938      -24.9851483712       59.6688136410  LPSA20    15             10.0000000000
     21698       699  ARHM      C2            -26.1213739850      -23.1543495199       61.1407671534  LPSA20    15             10.0000000000
     21699       699  ARHM      H2            -26.1822923148      -22.0023913003       61.2133420761  LPSA20    15             10.0000000000
     21700       699  ARHM      O2            -24.7616913162      -23.6490953945       61.3234079317  LPSA20    15             10.0000000000
     21701       699  ARHM      C3            -27.0851582917      -23.7504483630       62.1677656617  LPSA20    15             10.0000000000
     21702       699  ARHM      H3            -28.1164105619      -23.4182219479       61.8628392879  LPSA20    15             10.0000000000
     21703       699  ARHM      O3            -26.8050990508      -23.0499954553       63.4092175029  LPSA20    15             10.0000000000
     21704       699  ARHM      C4            -27.0444009855      -25.1972213657       62.0487117432  LPSA20    15             10.0000000000
     21705       699  ARHM      H4            -25.9370106353      -25.5379454126       62.1496903561  LPSA20    15             10.0000000000
     21706       699  ARHM      O4            -27.8294321750      -25.9666559737       62.9635513464  LPSA20    15             10.0000000000
     21707       699  ARHM      HO4           -27.5009572696      -26.8530885964       62.9565205260  LPSA20    15             10.0000000000
     21708       699  ARHM      C6            -27.3904748524      -27.1473304367       60.4460959132  LPSA20    15             10.0000000000
     21709       699  ARHM      H61           -28.0826601718      -27.7459377185       61.0956562646  LPSA20    15             10.0000000000
     21710       699  ARHM      H62           -27.4276744782      -27.3756250807       59.3910198679  LPSA20    15             10.0000000000
     21711       699  ARHM      H63           -26.4342633480      -27.5770055331       60.8578185328  LPSA20    15             10.0000000000
     21712       700  BMANNA    C1            -24.0539954383      -23.3433317966       62.5145562334  LPSA20    16             11.0000000000
     21713       700  BMANNA    H1            -24.5336294593      -23.9860577135       63.3432051365  LPSA20    16             11.0000000000
     21714       700  BMANNA    C5            -23.4333326821      -21.8093134437       64.1851548173  LPSA20    16             11.0000000000
     21715       700  BMANNA    H5            -23.8439300287      -22.4455939995       64.9800677769  LPSA20    16             11.0000000000
     21716       700  BMANNA    O5            -24.1170600710      -21.9798499798       62.9158851071  LPSA20    16             11.0000000000
     21717       700  BMANNA    C2            -22.5895632156      -23.7808945332       62.2781089586  LPSA20    16             11.0000000000
     21718       700  BMANNA    H2            -22.6663132324      -24.8624773349       61.9912908466  LPSA20    16             11.0000000000
     21719       700  BMANNA    N             -21.8224548634      -23.1072730263       61.2264456342  LPSA20    16             11.0000000000
     21720       700  BMANNA    HN            -21.3670100414      -22.3186243070       61.5688724990  LPSA20    16             11.0000000000
     21721       700  BMANNA    C             -21.7812523141      -23.4770198401       59.9704010620  LPSA20    16             11.0000000000
     21722       700  BMANNA    O             -22.3551634909      -24.5221271099       59.5582221915  LPSA20    16             11.0000000000
     21723       700  BMANNA    CT            -21.0002513116      -22.5813020470       59.1331689300  LPSA20    16             11.0000000000
     21724       700  BMANNA    HT1           -20.0283893511      -22.9418018738       58.8344492748  LPSA20    16             11.0000000000
     21725       700  BMANNA    HT2           -20.8436899808      -21.5689486530       59.5043001239  LPSA20    16             11.0000000000
     21726       700  BMANNA    HT3           -21.5010453937      -22.4277456119       58.1231520073  LPSA20    16             11.0000000000
     21727       700  BMANNA    C3            -21.9003733280      -23.6374819041       63.6119771117  LPSA20    16             11.0000000000
     21728       700  BMANNA    H3            -22.4177651582      -24.2649033384       64.3839812837  LPSA20    16             11.0000000000
     21729       700  BMANNA    O3            -20.5796365925      -24.0975310850       63.6122488842  LPSA20    16             11.0000000000
     21730       700  BMANNA    HO3           -20.4476370302      -24.7418969440       64.2950500102  LPSA20    16             11.0000000000
     21731       700  BMANNA    C4            -21.9411329726      -22.1852734178       64.1045846713  LPSA20    16             11.0000000000
     21732       700  BMANNA    H4            -21.4195799396      -21.4969993799       63.4124605202  LPSA20    16             11.0000000000
     21733       700  BMANNA    O4            -21.3379819367      -21.9084077312       65.3816866120  LPSA20    16             11.0000000000
     21734       700  BMANNA    HO4           -21.0796745228      -20.9893564116       65.4353184152  LPSA20    16             11.0000000000
     21735       700  BMANNA    C6            -23.5811500116      -20.3877858047       64.7427751243  LPSA20    16             11.0000000000
     21736       700  BMANNA    H61           -23.5501391519      -20.4709522320       65.8875394407  LPSA20    16             11.0000000000
     21737       700  BMANNA    H62           -22.7464089014      -19.7525260970       64.4389269682  LPSA20    16             11.0000000000
     21738       700  BMANNA    O6            -24.8066618025      -19.7288545775       64.3660927576  LPSA20    16             11.0000000000
     21739       700  BMANNA    HO6           -24.4664550247      -18.9312001771       63.9036969990  LPSA20    16             11.0000000000
     21740       701  BGLCNA    C1            -27.8786385537      -22.7663367508       64.1715778089  LPSA20    17             11.0000000000
     21741       701  BGLCNA    H1            -28.7199877011      -23.5268028546       63.9082176002  LPSA20    17             11.0000000000
     21742       701  BGLCNA    C5            -29.6340616755      -21.1104263614       64.5563394407  LPSA20    17             11.0000000000
     21743       701  BGLCNA    H5            -30.4960042301      -21.8270602906       64.2825289487  LPSA20    17             11.0000000000
     21744       701  BGLCNA    O5            -28.4879681468      -21.5008733031       63.7849982893  LPSA20    17             11.0000000000
     21745       701  BGLCNA    C2            -27.4397170765      -22.7610712582       65.5899343931  LPSA20    17             11.0000000000
     21746       701  BGLCNA    H2            -26.6334173857      -21.9870519383       65.8249043900  LPSA20    17             11.0000000000
     21747       701  BGLCNA    N             -26.7649896091      -23.9599881057       65.8849826081  LPSA20    17             11.0000000000
     21748       701  BGLCNA    HN            -27.0634448325      -24.8119686720       65.4150135415  LPSA20    17             11.0000000000
     21749       701  BGLCNA    C             -25.8521006420      -24.2185088563       66.8043620798  LPSA20    17             11.0000000000
     21750       701  BGLCNA    O             -25.3368486458      -23.3304037081       67.4729873017  LPSA20    17             11.0000000000
     21751       701  BGLCNA    CT            -25.4814633953      -25.6428834571       66.9728872304  LPSA20    17             11.0000000000
     21752       701  BGLCNA    HT1           -24.5309558974      -26.0187895835       66.5529393721  LPSA20    17             11.0000000000
     21753       701  BGLCNA    HT2           -26.3677336229      -26.2497132130       66.7043805047  LPSA20    17             11.0000000000
     21754       701  BGLCNA    HT3           -25.3819440632      -25.8979846208       68.1408097225  LPSA20    17             11.0000000000
     21755       701  BGLCNA    C3            -28.6774684300      -22.4671517081       66.4076579941  LPSA20    17             11.0000000000
     21756       701  BGLCNA    H3            -29.3870240829      -23.2840423495       66.0441361901  LPSA20    17             11.0000000000
     21757       701  BGLCNA    O3            -28.3451859051      -22.7221834752       67.8205355914  LPSA20    17             11.0000000000
     21758       701  BGLCNA    C4            -29.1833860839      -21.0766909909       66.0496966154  LPSA20    17             11.0000000000
     21759       701  BGLCNA    H4            -28.3468579119      -20.2958310893       66.1123142204  LPSA20    17             11.0000000000
     21760       701  BGLCNA    O4            -30.2059582829      -20.6335404044       66.9186044206  LPSA20    17             11.0000000000
     21761       701  BGLCNA    HO4           -30.5835981826      -19.7850342032       66.7204061560  LPSA20    17             11.0000000000
     21762       701  BGLCNA    C6            -30.0971595362      -19.7065665566       64.1200051697  LPSA20    17             11.0000000000
     21763       701  BGLCNA    H61           -31.1684591855      -19.6542020224       64.1272946536  LPSA20    17             11.0000000000
     21764       701  BGLCNA    H62           -29.7046893332      -18.9070521662       64.8212395067  LPSA20    17             11.0000000000
     21765       701  BGLCNA    O6            -29.6668807796      -19.3749469296       62.7926115083  LPSA20    17             11.0000000000
     21766       701  BGLCNA    HO6           -30.0167489109      -20.0174985864       62.1856770532  LPSA20    17             11.0000000000
     21767       702  AGAL      C1            -29.4158141952      -23.2865729782       68.6198653987  LPSA20    18             12.0000000000
     21768       702  AGAL      H1            -30.1619562319      -22.4588288817       68.8082567594  LPSA20    18             12.0000000000
     21769       702  AGAL      C5            -29.1973577969      -25.5554918497       67.8636918791  LPSA20    18             12.0000000000
     21770       702  AGAL      H5            -28.2557396853      -25.2380377143       67.4068928888  LPSA20    18             12.0000000000
     21771       702  AGAL      O5            -30.0609412634      -24.3678860838       67.9834320655  LPSA20    18             12.0000000000
     21772       702  AGAL      C2            -28.8923962667      -23.8392009381       70.0000206359  LPSA20    18             12.0000000000
     21773       702  AGAL      H2            -29.8594655971      -24.2313101653       70.3908489884  LPSA20    18             12.0000000000
     21774       702  AGAL      O2            -28.5260894106      -22.7908193875       70.8342757016  LPSA20    18             12.0000000000
     21775       702  AGAL      C3            -27.9885475707      -25.0152129703       69.8682924558  LPSA20    18             12.0000000000
     21776       702  AGAL      H3            -27.1576569334      -24.7500589401       69.0958348126  LPSA20    18             12.0000000000
     21777       702  AGAL      O3            -27.3830161271      -25.3664577991       71.0758896640  LPSA20    18             12.0000000000
     21778       702  AGAL      HO3           -26.4431171136      -25.5224622005       70.9682873819  LPSA20    18             12.0000000000
     21779       702  AGAL      C4            -28.7065974815      -26.0936609599       69.1634745928  LPSA20    18             12.0000000000
     21780       702  AGAL      H4            -28.1008888574      -26.9935459698       68.9039691178  LPSA20    18             12.0000000000
     21781       702  AGAL      O4            -29.8042053684      -26.5902449304       69.9734134928  LPSA20    18             12.0000000000
     21782       702  AGAL      HO4           -29.4264921416      -27.1681595519       70.7236544006  LPSA20    18             12.0000000000
     21783       702  AGAL      C6            -29.7552496347      -26.3974129680       66.8042742825  LPSA20    18             12.0000000000
     21784       702  AGAL      H61           -29.7267000412      -25.8059866021       65.8877991861  LPSA20    18             12.0000000000
     21785       702  AGAL      H62           -29.0280055913      -27.2402062631       66.6499463921  LPSA20    18             12.0000000000
     21786       702  AGAL      O6            -31.0109105995      -26.8153193876       66.9803033045  LPSA20    18             12.0000000000
     21787       702  AGAL      HO6           -31.5218869031      -26.4054513096       67.6707071977  LPSA20    18             12.0000000000
     21788       703  ARHM      C1            -29.0070561803      -23.0377133753       72.1803514454  LPSA20    19             13.0000000000
     21789       703  ARHM      H1            -29.2200795866      -24.0786956889       72.3185909119  LPSA20    19             13.0000000000
     21790       703  ARHM      C5            -30.3397902615      -21.0776000890       72.2512180912  LPSA20    19             13.0000000000
     21791       703  ARHM      H5            -29.9727088452      -20.8687882681       71.2133247196  LPSA20    19             13.0000000000
     21792       703  ARHM      O5            -30.3146486531      -22.4964388983       72.4162684983  LPSA20    19             13.0000000000
     21793       703  ARHM      C2            -27.9986608764      -22.4712814991       73.1100514097  LPSA20    19             13.0000000000
     21794       703  ARHM      H2            -26.9950796475      -22.7668081281       72.9420985559  LPSA20    19             13.0000000000
     21795       703  ARHM      O2            -28.3269415312      -22.8088991802       74.4131644751  LPSA20    19             13.0000000000
     21796       703  ARHM      C3            -28.0547829488      -20.9170692295       72.9859276785  LPSA20    19             13.0000000000
     21797       703  ARHM      H3            -27.8457773990      -20.6745890016       71.9471750908  LPSA20    19             13.0000000000
     21798       703  ARHM      O3            -27.0833028845      -20.3173530775       73.7644258584  LPSA20    19             13.0000000000
     21799       703  ARHM      HO3           -27.1597759704      -20.6981251610       74.6464134549  LPSA20    19             13.0000000000
     21800       703  ARHM      C4            -29.3932766515      -20.3660712803       73.2443334127  LPSA20    19             13.0000000000
     21801       703  ARHM      H4            -29.6457572576      -20.6623870889       74.2703943704  LPSA20    19             13.0000000000
     21802       703  ARHM      O4            -29.4931140054      -18.9787824569       73.1708570575  LPSA20    19             13.0000000000
     21803       703  ARHM      HO4           -29.3101072282      -18.7459917350       72.2126258713  LPSA20    19             13.0000000000
     21804       703  ARHM      C6            -31.7786458854      -20.5331243428       72.3031700958  LPSA20    19             13.0000000000
     21805       703  ARHM      H61           -32.2404599955      -21.1112627994       71.5186681997  LPSA20    19             13.0000000000
     21806       703  ARHM      H62           -32.3307997905      -20.6982908257       73.2001761489  LPSA20    19             13.0000000000
     21807       703  ARHM      H63           -31.8474436181      -19.4631425212       72.0875448643  LPSA20    19             13.0000000000
     21808       704  ARHM      C1            -28.0160553631      -24.1329257234       74.6981797177  LPSA20    20             14.0000000000
     21809       704  ARHM      H1            -27.3716862616      -24.6168896954       73.8936196974  LPSA20    20             14.0000000000
     21810       704  ARHM      C5            -29.9434882741      -24.7194980028       75.9960310464  LPSA20    20             14.0000000000
     21811       704  ARHM      H5            -30.2476744484      -23.6582724505       75.8071112250  LPSA20    20             14.0000000000
     21812       704  ARHM      O5            -29.1096752844      -25.0346074995       74.8741575474  LPSA20    20             14.0000000000
     21813       704  ARHM      C2            -27.1352504884      -24.1943058598       75.9438944127  LPSA20    20             14.0000000000
     21814       704  ARHM      H2            -26.2980639217      -23.3934963815       75.7904987900  LPSA20    20             14.0000000000
     21815       704  ARHM      O2            -26.5870301092      -25.5045875113       76.2145535291  LPSA20    20             14.0000000000
     21816       704  ARHM      C3            -28.0101555329      -23.8615922876       77.0746584307  LPSA20    20             14.0000000000
     21817       704  ARHM      H3            -28.4285966416      -22.7938696098       76.9570890266  LPSA20    20             14.0000000000
     21818       704  ARHM      O3            -27.1531842907      -23.8220094664       78.2431898216  LPSA20    20             14.0000000000
     21819       704  ARHM      C4            -29.1584770612      -24.8038477497       77.2147849866  LPSA20    20             14.0000000000
     21820       704  ARHM      H4            -28.8539478888      -25.8275715187       77.2882629629  LPSA20    20             14.0000000000
     21821       704  ARHM      O4            -29.8778114934      -24.4879875533       78.4294019453  LPSA20    20             14.0000000000
     21822       704  ARHM      HO4           -30.6991577549      -24.7640877841       78.0714846557  LPSA20    20             14.0000000000
     21823       704  ARHM      C6            -31.1473585353      -25.5657554335       75.9818768401  LPSA20    20             14.0000000000
     21824       704  ARHM      H61           -31.0379262842      -26.6896373394       76.0487105533  LPSA20    20             14.0000000000
     21825       704  ARHM      H62           -31.8482245372      -25.2321456039       76.7492574554  LPSA20    20             14.0000000000
     21826       704  ARHM      H63           -31.7529329539      -25.5058852916       75.0059134709  LPSA20    20             14.0000000000
     21827       705  BMANNA    C1            -25.4406817538      -25.6043620282       75.4501725836  LPSA20    21             15.0000000000
     21828       705  BMANNA    H1            -25.3796812435      -24.7610755459       74.6495731600  LPSA20    21             15.0000000000
     21829       705  BMANNA    C5            -24.3541622216      -26.7301515740       73.6578092950  LPSA20    21             15.0000000000
     21830       705  BMANNA    H5            -24.1928081879      -25.7428192606       73.0422409194  LPSA20    21             15.0000000000
     21831       705  BMANNA    O5            -25.5238130969      -26.7588624891       74.5460975074  LPSA20    21             15.0000000000
     21832       705  BMANNA    C2            -24.2335673798      -25.6909967656       76.3268603500  LPSA20    21             15.0000000000
     21833       705  BMANNA    H2            -24.2966339759      -24.7442396712       76.8663433126  LPSA20    21             15.0000000000
     21834       705  BMANNA    N             -24.3123785178      -26.8115330656       77.2602735953  LPSA20    21             15.0000000000
     21835       705  BMANNA    HN            -24.4955677563      -27.6788521041       76.8630196157  LPSA20    21             15.0000000000
     21836       705  BMANNA    C             -23.8799429096      -26.7881782398       78.6142451918  LPSA20    21             15.0000000000
     21837       705  BMANNA    O             -23.2210635469      -25.8364726280       79.0340579138  LPSA20    21             15.0000000000
     21838       705  BMANNA    CT            -24.2047144114      -28.0024324936       79.5125915666  LPSA20    21             15.0000000000
     21839       705  BMANNA    HT1           -23.4552731982      -28.8010093708       79.3040814335  LPSA20    21             15.0000000000
     21840       705  BMANNA    HT2           -25.2600238080      -28.2598844235       79.3224353366  LPSA20    21             15.0000000000
     21841       705  BMANNA    HT3           -24.1025602095      -27.7186895907       80.6000991146  LPSA20    21             15.0000000000
     21842       705  BMANNA    C3            -23.0364357758      -25.6896809451       75.4428482744  LPSA20    21             15.0000000000
     21843       705  BMANNA    H3            -23.1132482080      -24.7024718772       75.0091666053  LPSA20    21             15.0000000000
     21844       705  BMANNA    O3            -21.8225705034      -25.7400006392       76.1769203835  LPSA20    21             15.0000000000
     21845       705  BMANNA    HO3           -21.8635539098      -26.4932730301       76.7354970047  LPSA20    21             15.0000000000
     21846       705  BMANNA    C4            -23.0900372475      -26.8533800738       74.4866217523  LPSA20    21             15.0000000000
     21847       705  BMANNA    H4            -23.0103194067      -27.9314331500       75.0002820064  LPSA20    21             15.0000000000
     21848       705  BMANNA    O4            -21.9959828232      -26.8776353277       73.6152290754  LPSA20    21             15.0000000000
     21849       705  BMANNA    HO4           -21.4379465480      -27.6716159819       73.7703874424  LPSA20    21             15.0000000000
     21850       705  BMANNA    C6            -24.4337810454      -27.7405849666       72.6348027846  LPSA20    21             15.0000000000
     21851       705  BMANNA    H61           -23.6563585778      -27.6377323663       71.8494922130  LPSA20    21             15.0000000000
     21852       705  BMANNA    H62           -24.0962088052      -28.7265064194       73.0558617198  LPSA20    21             15.0000000000
     21853       705  BMANNA    O6            -25.6838424989      -27.9877822299       72.0654385618  LPSA20    21             15.0000000000
     21854       705  BMANNA    HO6           -26.2969234825      -28.1630492660       72.7784055652  LPSA20    21             15.0000000000
     21855       706  BGLCNA    C1            -27.3602362651      -22.8690157297       79.2248726046  LPSA20    22             15.0000000000
     21856       706  BGLCNA    H1            -28.4178795198      -22.4762221683       79.2753119810  LPSA20    22             15.0000000000
     21857       706  BGLCNA    C5            -26.8144037651      -20.7004368919       80.1145289529  LPSA20    22             15.0000000000
     21858       706  BGLCNA    H5            -27.9627690985      -20.4759814967       80.0727605020  LPSA20    22             15.0000000000
     21859       706  BGLCNA    O5            -26.5798867691      -21.7183222869       79.0803056561  LPSA20    22             15.0000000000
     21860       706  BGLCNA    C2            -27.0512222045      -23.4950103650       80.5602818744  LPSA20    22             15.0000000000
     21861       706  BGLCNA    H2            -25.9359790984      -23.7460246941       80.4633107900  LPSA20    22             15.0000000000
     21862       706  BGLCNA    N             -27.8544744080      -24.6907331149       80.7025670875  LPSA20    22             15.0000000000
     21863       706  BGLCNA    HN            -28.7945955067      -24.6078189905       80.4501896382  LPSA20    22             15.0000000000
     21864       706  BGLCNA    C             -27.4696973410      -25.7832879106       81.3295640408  LPSA20    22             15.0000000000
     21865       706  BGLCNA    O             -26.3397879560      -25.8670933945       81.8448112003  LPSA20    22             15.0000000000
     21866       706  BGLCNA    CT            -28.4479520303      -26.8981798662       81.4359073222  LPSA20    22             15.0000000000
     21867       706  BGLCNA    HT1           -28.2398283490      -27.4641885942       80.5353412834  LPSA20    22             15.0000000000
     21868       706  BGLCNA    HT2           -29.4619934776      -26.4655827174       81.2752873926  LPSA20    22             15.0000000000
     21869       706  BGLCNA    HT3           -28.4668693599      -27.4227560594       82.3679651303  LPSA20    22             15.0000000000
     21870       706  BGLCNA    C3            -27.2572140276      -22.5069377834       81.6855161512  LPSA20    22             15.0000000000
     21871       706  BGLCNA    H3            -28.3174443099      -22.1518331051       81.6419517197  LPSA20    22             15.0000000000
     21872       706  BGLCNA    O3            -27.0657840298      -23.2426294973       82.8729300216  LPSA20    22             15.0000000000
     21873       706  BGLCNA    C4            -26.3939341778      -21.2598288227       81.4704242134  LPSA20    22             15.0000000000
     21874       706  BGLCNA    H4            -25.3965994868      -21.6090998950       81.4144045074  LPSA20    22             15.0000000000
     21875       706  BGLCNA    O4            -26.5157752584      -20.3187637654       82.5140850489  LPSA20    22             15.0000000000
     21876       706  BGLCNA    HO4           -25.6359782529      -19.9545890925       82.7130071916  LPSA20    22             15.0000000000
     21877       706  BGLCNA    C6            -25.9905246478      -19.4800737250       79.7284495560  LPSA20    22             15.0000000000
     21878       706  BGLCNA    H61           -25.9214883062      -18.8948763692       80.6924177192  LPSA20    22             15.0000000000
     21879       706  BGLCNA    H62           -24.9487374978      -19.7606974122       79.4648784538  LPSA20    22             15.0000000000
     21880       706  BGLCNA    O6            -26.5983232764      -18.6360161187       78.8100863794  LPSA20    22             15.0000000000
     21881       706  BGLCNA    HO6           -26.7938263703      -19.1340432067       78.0328486455  LPSA20    22             15.0000000000
     21882       707  AGAL      C1            -27.5854974972      -22.7713151381       84.0628261254  LPSA20    23             16.0000000000
     21883       707  AGAL      H1            -26.9767777734      -21.9376921746       84.5106287163  LPSA20    23             16.0000000000
     21884       707  AGAL      C5            -29.8691222956      -23.3737683636       83.7583018441  LPSA20    23             16.0000000000
     21885       707  AGAL      H5            -29.5185247191      -23.9711089559       82.8366412438  LPSA20    23             16.0000000000
     21886       707  AGAL      O5            -28.9470742532      -22.3350913747       83.9976212264  LPSA20    23             16.0000000000
     21887       707  AGAL      C2            -27.4928057968      -23.8331672710       85.1427633740  LPSA20    23             16.0000000000
     21888       707  AGAL      H2            -27.9050954585      -23.3658420702       86.0076373284  LPSA20    23             16.0000000000
     21889       707  AGAL      O2            -26.1752573961      -24.1759339223       85.5000844886  LPSA20    23             16.0000000000
     21890       707  AGAL      C3            -28.4181380237      -24.9790057839       84.9194901020  LPSA20    23             16.0000000000
     21891       707  AGAL      H3            -28.2043920205      -25.3324482971       83.8641570193  LPSA20    23             16.0000000000
     21892       707  AGAL      O3            -28.2182391651      -26.0916747869       85.7108298168  LPSA20    23             16.0000000000
     21893       707  AGAL      HO3           -28.1250365038      -25.7287923942       86.6206525111  LPSA20    23             16.0000000000
     21894       707  AGAL      C4            -29.8145959600      -24.4336635800       84.8901212015  LPSA20    23             16.0000000000
     21895       707  AGAL      H4            -30.5749381024      -25.2113386715       84.6506069022  LPSA20    23             16.0000000000
     21896       707  AGAL      O4            -30.3110182965      -23.9118108000       86.1132943683  LPSA20    23             16.0000000000
     21897       707  AGAL      HO4           -30.8294207758      -23.2290492591       85.8278371007  LPSA20    23             16.0000000000
     21898       707  AGAL      C6            -31.2034168329      -22.8257491310       83.3278962909  LPSA20    23             16.0000000000
     21899       707  AGAL      H61           -31.0606874601      -22.0636928744       82.6074235255  LPSA20    23             16.0000000000
     21900       707  AGAL      H62           -31.7944704031      -23.5517098491       82.7620574208  LPSA20    23             16.0000000000
     21901       707  AGAL      O6            -31.8600013497      -22.2406262989       84.3845202183  LPSA20    23             16.0000000000
     21902       707  AGAL      HO6           -32.6892267714      -21.8375668141       84.1740981585  LPSA20    23             16.0000000000
     21903       708  ARHM      C1            -25.3155247538      -23.3670715125       86.2818185944  LPSA20    24             17.0000000000
     21904       708  ARHM      H1            -25.7728709994      -22.4003450379       86.3680542693  LPSA20    24             17.0000000000
     21905       708  ARHM      C5            -23.2116065819      -24.3144605726       85.6157638072  LPSA20    24             17.0000000000
     21906       708  ARHM      H5            -23.7554177578      -25.0053760231       85.0070975499  LPSA20    24             17.0000000000
     21907       708  ARHM      O5            -23.9238610083      -23.1063832442       85.8657410059  LPSA20    24             17.0000000000
     21908       708  ARHM      C2            -25.3057922413      -24.0816844026       87.5921581840  LPSA20    24             17.0000000000
     21909       708  ARHM      H2            -26.2909103903      -24.3808958157       87.8984046741  LPSA20    24             17.0000000000
     21910       708  ARHM      O2            -24.5898126934      -23.3530167847       88.6075763533  LPSA20    24             17.0000000000
     21911       708  ARHM      C3            -24.5040332788      -25.3798879589       87.4133527752  LPSA20    24             17.0000000000
     21912       708  ARHM      H3            -25.0572992430      -25.9551723042       86.6640279609  LPSA20    24             17.0000000000
     21913       708  ARHM      O3            -24.5348464429      -26.2678380675       88.5620392964  LPSA20    24             17.0000000000
     21914       708  ARHM      HO3           -23.8039146689      -25.9719452336       89.1463757531  LPSA20    24             17.0000000000
     21915       708  ARHM      C4            -23.0833733407      -25.1024075583       86.9402325015  LPSA20    24             17.0000000000
     21916       708  ARHM      H4            -22.5968227351      -24.3770244890       87.7071552895  LPSA20    24             17.0000000000
     21917       708  ARHM      O4            -22.2611432839      -26.2447304572       86.8379508285  LPSA20    24             17.0000000000
     21918       708  ARHM      HO4           -21.3490028370      -26.0885208951       87.0219124236  LPSA20    24             17.0000000000
     21919       708  ARHM      C6            -21.8098532974      -24.0747526845       84.9175891319  LPSA20    24             17.0000000000
     21920       708  ARHM      H61           -21.5287991247      -24.9821157512       84.3853494017  LPSA20    24             17.0000000000
     21921       708  ARHM      H62           -21.9615297771      -23.2736436913       84.2649634992  LPSA20    24             17.0000000000
     21922       708  ARHM      H63           -21.0473926737      -23.7048811542       85.6811466487  LPSA20    24             17.0000000000
     21923       709  ARHM      C1            -25.4029119192      -22.3231247161       89.1588742089  LPSA20    25             18.0000000000
     21924       709  ARHM      H1            -26.1722825935      -22.0695946397       88.4722246341  LPSA20    25             18.0000000000
     21925       709  ARHM      C5            -23.5956497599      -21.1226898209       90.1670531641  LPSA20    25             18.0000000000
     21926       709  ARHM      H5            -22.8591061579      -21.8276286570       89.8870230824  LPSA20    25             18.0000000000
     21927       709  ARHM      O5            -24.6948688018      -21.0698414737       89.2315309535  LPSA20    25             18.0000000000
     21928       709  ARHM      C2            -25.9240209839      -22.7681677989       90.4685713243  LPSA20    25             18.0000000000
     21929       709  ARHM      H2            -26.3578028972      -23.8167982923       90.3413143991  LPSA20    25             18.0000000000
     21930       709  ARHM      O2            -26.9514420466      -21.8387177283       90.9328696740  LPSA20    25             18.0000000000
     21931       709  ARHM      C3            -24.7123617684      -22.7643230684       91.4562257518  LPSA20    25             18.0000000000
     21932       709  ARHM      H3            -23.9808843077      -23.5169308434       91.0689171631  LPSA20    25             18.0000000000
     21933       709  ARHM      O3            -25.2211661807      -23.2212240165       92.6920647463  LPSA20    25             18.0000000000
     21934       709  ARHM      C4            -24.0601748369      -21.4975272453       91.5960769721  LPSA20    25             18.0000000000
     21935       709  ARHM      H4            -24.8086521179      -20.6495549781       91.8876801091  LPSA20    25             18.0000000000
     21936       709  ARHM      O4            -23.0445022602      -21.6597486869       92.5862492282  LPSA20    25             18.0000000000
     21937       709  ARHM      HO4           -23.0312768426      -20.8231448846       93.0149361445  LPSA20    25             18.0000000000
     21938       709  ARHM      C6            -22.8168180680      -19.8088122183       90.2083352735  LPSA20    25             18.0000000000
     21939       709  ARHM      H61           -22.5472065861      -19.4506317005       89.1912344565  LPSA20    25             18.0000000000
     21940       709  ARHM      H62           -23.3935849320      -18.9615687182       90.6686969550  LPSA20    25             18.0000000000
     21941       709  ARHM      H63           -21.8405988924      -19.8738830965       90.8233913566  LPSA20    25             18.0000000000
     21942       710  BMANNA    C1            -28.2037757637      -22.0133328184       90.3138108879  LPSA20    26             19.0000000000
     21943       710  BMANNA    H1            -28.3014394712      -23.0336691106       89.8388342826  LPSA20    26             19.0000000000
     21944       710  BMANNA    C5            -29.7743894331      -21.3820655330       88.6312665858  LPSA20    26             19.0000000000
     21945       710  BMANNA    H5            -29.6888311944      -22.3696101317       88.1771240033  LPSA20    26             19.0000000000
     21946       710  BMANNA    O5            -28.5078797719      -21.0881173411       89.2346891933  LPSA20    26             19.0000000000
     21947       710  BMANNA    C2            -29.2128620611      -21.8949588207       91.3475147821  LPSA20    26             19.0000000000
     21948       710  BMANNA    H2            -28.9372025653      -22.6971256339       92.1081287357  LPSA20    26             19.0000000000
     21949       710  BMANNA    N             -29.1335671578      -20.5342032566       91.9238920796  LPSA20    26             19.0000000000
     21950       710  BMANNA    HN            -29.2205972939      -19.8065873748       91.3050515894  LPSA20    26             19.0000000000
     21951       710  BMANNA    C             -29.0540238721      -20.2610911857       93.1798471680  LPSA20    26             19.0000000000
     21952       710  BMANNA    O             -28.8431026280      -21.1716366525       94.0003587425  LPSA20    26             19.0000000000
     21953       710  BMANNA    CT            -29.2402082269      -18.8277475649       93.6758917343  LPSA20    26             19.0000000000
     21954       710  BMANNA    HT1           -29.0377565138      -18.1943737475       92.8666282051  LPSA20    26             19.0000000000
     21955       710  BMANNA    HT2           -28.8104878124      -18.4583329312       94.6620984389  LPSA20    26             19.0000000000
     21956       710  BMANNA    HT3           -30.3188550447      -18.7303139535       93.8484898219  LPSA20    26             19.0000000000
     21957       710  BMANNA    C3            -30.5599353430      -22.2470825069       90.7100883268  LPSA20    26             19.0000000000
     21958       710  BMANNA    H3            -30.4960763676      -23.3001947401       90.3384445889  LPSA20    26             19.0000000000
     21959       710  BMANNA    O3            -31.5609733702      -22.2506311597       91.7636866611  LPSA20    26             19.0000000000
     21960       710  BMANNA    HO3           -31.3649561571      -23.0565089230       92.2265744207  LPSA20    26             19.0000000000
     21961       710  BMANNA    C4            -30.8220867120      -21.3297817140       89.6481622736  LPSA20    26             19.0000000000
     21962       710  BMANNA    H4            -30.8911202544      -20.2323709560       89.9013799111  LPSA20    26             19.0000000000
     21963       710  BMANNA    O4            -32.0800243869      -21.5902602485       89.0416847738  LPSA20    26             19.0000000000
     21964       710  BMANNA    HO4           -32.7582684974      -21.1583097558       89.5591157304  LPSA20    26             19.0000000000
     21965       710  BMANNA    C6            -29.8426131768      -20.4419088085       87.3900617492  LPSA20    26             19.0000000000
     21966       710  BMANNA    H61           -28.8524526865      -20.3095542097       86.9191763972  LPSA20    26             19.0000000000
     21967       710  BMANNA    H62           -30.5053944115      -20.8090266774       86.6504270337  LPSA20    26             19.0000000000
     21968       710  BMANNA    O6            -30.3207566675      -19.1458592538       87.7329108337  LPSA20    26             19.0000000000
     21969       710  BMANNA    HO6           -31.1444135860      -19.2183554545       88.1688153196  LPSA20    26             19.0000000000
     21970       711  BGLCNA    C1            -24.6217402172      -24.1558987522       93.4616184899  LPSA20    27             19.0000000000
     21971       711  BGLCNA    H1            -23.5429767573      -24.0369381598       93.4392217979  LPSA20    27             19.0000000000
     21972       711  BGLCNA    C5            -24.1672577575      -26.4321405217       93.9656603721  LPSA20    27             19.0000000000
     21973       711  BGLCNA    H5            -23.0833753870      -26.1494769599       93.9564344452  LPSA20    27             19.0000000000
     21974       711  BGLCNA    O5            -24.8147343687      -25.5272923292       93.0607755266  LPSA20    27             19.0000000000
     21975       711  BGLCNA    C2            -25.1443105404      -23.9203328352       94.8806799918  LPSA20    27             19.0000000000
     21976       711  BGLCNA    H2            -26.2187528342      -24.1731055071       94.8757458582  LPSA20    27             19.0000000000
     21977       711  BGLCNA    N             -24.9857358171      -22.5262169089       95.2501113516  LPSA20    27             19.0000000000
     21978       711  BGLCNA    HN            -24.0306214094      -22.1128166676       95.0827132934  LPSA20    27             19.0000000000
     21979       711  BGLCNA    C             -26.0452676740      -21.9606992084       95.9523160909  LPSA20    27             19.0000000000
     21980       711  BGLCNA    O             -26.9825618040      -22.5960655197       96.5238801166  LPSA20    27             19.0000000000
     21981       711  BGLCNA    CT            -25.9890840223      -20.4034387928       96.0293745529  LPSA20    27             19.0000000000
     21982       711  BGLCNA    HT1           -25.1765319702      -20.0038285562       95.3635606282  LPSA20    27             19.0000000000
     21983       711  BGLCNA    HT2           -25.9143408835      -20.0052307920       97.0167906789  LPSA20    27             19.0000000000
     21984       711  BGLCNA    HT3           -27.0354238754      -20.0236198520       95.7039804309  LPSA20    27             19.0000000000
     21985       711  BGLCNA    C3            -24.4669821889      -24.8593965112       95.7540348103  LPSA20    27             19.0000000000
     21986       711  BGLCNA    H3            -23.3568728059      -24.7239851059       95.7401190096  LPSA20    27             19.0000000000
     21987       711  BGLCNA    O3            -25.0064592876      -24.5232270018       97.0775356047  LPSA20    27             19.0000000000
     21988       711  BGLCNA    C4            -24.6985438173      -26.3281887912       95.3486864533  LPSA20    27             19.0000000000
     21989       711  BGLCNA    H4            -25.7933468163      -26.5321226291       95.3090014479  LPSA20    27             19.0000000000
     21990       711  BGLCNA    O4            -24.0741675093      -27.2020793389       96.2156872787  LPSA20    27             19.0000000000
     21991       711  BGLCNA    HO4           -23.1664970234      -27.0885829303       96.0162444362  LPSA20    27             19.0000000000
     21992       711  BGLCNA    C6            -24.2573747109      -27.8405542006       93.2852949846  LPSA20    27             19.0000000000
     21993       711  BGLCNA    H61           -23.5725647799      -28.4749005788       93.8557506920  LPSA20    27             19.0000000000
     21994       711  BGLCNA    H62           -25.2637748264      -28.2837526263       93.4725180191  LPSA20    27             19.0000000000
     21995       711  BGLCNA    O6            -23.9285977247      -27.7750217240       91.9076175409  LPSA20    27             19.0000000000
     21996       711  BGLCNA    HO6           -24.0264083085      -28.6754654478       91.5273290588  LPSA20    27             19.0000000000
     21997       712  AGAL      C1            -24.3162150580      -24.9877990862       98.2622020222  LPSA20    28             20.0000000000
     21998       712  AGAL      H1            -24.4222069805      -26.0383627181       98.3007149491  LPSA20    28             20.0000000000
     21999       712  AGAL      C5            -22.5591807892      -23.3196258721       98.1710438288  LPSA20    28             20.0000000000
     22000       712  AGAL      H5            -23.2723354568      -22.6749484215       97.4646141937  LPSA20    28             20.0000000000
     22001       712  AGAL      O5            -22.9161579921      -24.7611205411       98.1147365872  LPSA20    28             20.0000000000
     22002       712  AGAL      C2            -24.7202910898      -24.3867720577       99.6197190629  LPSA20    28             20.0000000000
     22003       712  AGAL      H2            -24.0483141984      -24.9102854594      100.2965066153  LPSA20    28             20.0000000000
     22004       712  AGAL      O2            -26.0345135806      -24.6641680146      100.0788731798  LPSA20    28             20.0000000000
     22005       712  AGAL      C3            -24.3790194656      -22.9347316514       99.7396972452  LPSA20    28             20.0000000000
     22006       712  AGAL      H3            -24.8585568902      -22.3995738467       98.8607737785  LPSA20    28             20.0000000000
     22007       712  AGAL      O3            -24.8133286292      -22.2057976996      100.9043404272  LPSA20    28             20.0000000000
     22008       712  AGAL      HO3           -25.4275551579      -21.5282450551      100.5606486229  LPSA20    28             20.0000000000
     22009       712  AGAL      C4            -22.9309768924      -22.7619804047       99.5102226768  LPSA20    28             20.0000000000
     22010       712  AGAL      H4            -22.7275247541      -21.7181496825       99.4798298294  LPSA20    28             20.0000000000
     22011       712  AGAL      O4            -22.1313232187      -23.3666758997      100.4757933835  LPSA20    28             20.0000000000
     22012       712  AGAL      HO4           -21.8490468055      -22.6814685350      101.0376442747  LPSA20    28             20.0000000000
     22013       712  AGAL      C6            -21.1639191101      -22.9851162236       97.6362902244  LPSA20    28             20.0000000000
     22014       712  AGAL      H61           -21.1157624127      -23.2455822662       96.5809275898  LPSA20    28             20.0000000000
     22015       712  AGAL      H62           -20.8042948003      -21.8991770953       97.7651048223  LPSA20    28             20.0000000000
     22016       712  AGAL      O6            -20.1945737256      -23.7284708774       98.3456070822  LPSA20    28             20.0000000000
     22017       712  AGAL      HO6           -20.0764178461      -24.5891502578       97.9416813930  LPSA20    28             20.0000000000
     22018       713  ARHM      C1            -25.9767625089      -25.0178933374      101.4808913342  LPSA20    29             21.0000000000
     22019       713  ARHM      H1            -25.0918102645      -24.5219627149      101.9964955809  LPSA20    29             21.0000000000
     22020       713  ARHM      C5            -26.9720917624      -27.1184475657      101.1486206043  LPSA20    29             21.0000000000
     22021       713  ARHM      H5            -27.0544887580      -26.7894221265      100.0935446791  LPSA20    29             21.0000000000
     22022       713  ARHM      O5            -25.8965189386      -26.4004514829      101.6833506475  LPSA20    29             21.0000000000
     22023       713  ARHM      C2            -27.1536391280      -24.4531905703      102.1437305515  LPSA20    29             21.0000000000
     22024       713  ARHM      H2            -27.2837838756      -23.4171558632      101.9067628034  LPSA20    29             21.0000000000
     22025       713  ARHM      O2            -27.0831713076      -24.5780756324      103.5748524404  LPSA20    29             21.0000000000
     22026       713  ARHM      C3            -28.3586724790      -25.1880382531      101.6289418068  LPSA20    29             21.0000000000
     22027       713  ARHM      H3            -28.4852683209      -24.9553370934      100.4952263366  LPSA20    29             21.0000000000
     22028       713  ARHM      O3            -29.5016486506      -24.6108941123      102.1995749427  LPSA20    29             21.0000000000
     22029       713  ARHM      HO3           -30.1190810821      -25.2608289548      102.2092645043  LPSA20    29             21.0000000000
     22030       713  ARHM      C4            -28.2967388031      -26.6390281390      101.8247918557  LPSA20    29             21.0000000000
     22031       713  ARHM      H4            -28.2827977332      -26.9159345014      102.9338171738  LPSA20    29             21.0000000000
     22032       713  ARHM      O4            -29.4108313136      -27.4255832874      101.3452167393  LPSA20    29             21.0000000000
     22033       713  ARHM      HO4           -29.7419774088      -27.1554814517      100.4362974805  LPSA20    29             21.0000000000
     22034       713  ARHM      C6            -26.5910336197      -28.6079549109      101.2162231226  LPSA20    29             21.0000000000
     22035       713  ARHM      H61           -25.5319155600      -28.6170528867      100.7685423143  LPSA20    29             21.0000000000
     22036       713  ARHM      H62           -26.5250369013      -28.9142282834      102.3013153741  LPSA20    29             21.0000000000
     22037       713  ARHM      H63           -27.2989569853      -29.1805180689      100.6072571094  LPSA20    29             21.0000000000
     22038       714  ARHM      C1            -26.6520133941      -23.5385877256      104.3945976075  LPSA20    30             22.0000000000
     22039       714  ARHM      H1            -27.2971936930      -22.6518009219      104.2094096401  LPSA20    30             22.0000000000
     22040       714  ARHM      C5            -24.3423009175      -24.2966816253      104.5143062533  LPSA20    30             22.0000000000
     22041       714  ARHM      H5            -24.7869970904      -25.1467351133      103.8668162917  LPSA20    30             22.0000000000
     22042       714  ARHM      O5            -25.2594688045      -23.2098078964      104.2052433351  LPSA20    30             22.0000000000
     22043       714  ARHM      C2            -26.8364637774      -23.9391483207      105.8471183130  LPSA20    30             22.0000000000
     22044       714  ARHM      H2            -27.8270751312      -24.2032398381      106.0289718167  LPSA20    30             22.0000000000
     22045       714  ARHM      O2            -26.3933860327      -22.8488121728      106.5813641610  LPSA20    30             22.0000000000
     22046       714  ARHM      C3            -25.9302433064      -25.0201083602      106.2079894766  LPSA20    30             22.0000000000
     22047       714  ARHM      H3            -26.0656368147      -25.8161200231      105.5270001340  LPSA20    30             22.0000000000
     22048       714  ARHM      O3            -26.1657438381      -25.5636357624      107.5373891676  LPSA20    30             22.0000000000
     22049       714  ARHM      C4            -24.4610918342      -24.6550751934      105.9708288384  LPSA20    30             22.0000000000
     22050       714  ARHM      H4            -24.1404323778      -23.7801433490      106.5400372406  LPSA20    30             22.0000000000
     22051       714  ARHM      O4            -23.5510762273      -25.6084290405      106.2997755749  LPSA20    30             22.0000000000
     22052       714  ARHM      HO4           -23.3869652602      -26.3446924364      105.6964454668  LPSA20    30             22.0000000000
     22053       714  ARHM      C6            -22.9442392539      -23.9317711832      104.0930490251  LPSA20    30             22.0000000000
     22054       714  ARHM      H61           -22.3143638068      -24.8565862906      104.2143179997  LPSA20    30             22.0000000000
     22055       714  ARHM      H62           -22.9319008783      -23.7778037082      103.0019050467  LPSA20    30             22.0000000000
     22056       714  ARHM      H63           -22.5137357641      -23.0397603893      104.6493652223  LPSA20    30             22.0000000000
     22057       715  BMANNA    C1            -27.3784701930      -21.9093599362      106.9502319096  LPSA20    31             23.0000000000
     22058       715  BMANNA    H1            -28.3188293529      -22.4685807666      107.1550799008  LPSA20    31             23.0000000000
     22059       715  BMANNA    C5            -28.7123674399      -20.0148581470      106.2136717625  LPSA20    31             23.0000000000
     22060       715  BMANNA    H5            -29.5515598651      -20.6418395736      106.5467054000  LPSA20    31             23.0000000000
     22061       715  BMANNA    O5            -27.6451379616      -20.9477727158      105.8742289322  LPSA20    31             23.0000000000
     22062       715  BMANNA    C2            -26.9341261620      -21.1580779030      108.0830629221  LPSA20    31             23.0000000000
     22063       715  BMANNA    H2            -26.8524780394      -21.8968303685      108.9031915743  LPSA20    31             23.0000000000
     22064       715  BMANNA    N             -25.6343631937      -20.6418208473      107.8252935315  LPSA20    31             23.0000000000
     22065       715  BMANNA    HN            -25.3750708382      -20.4920144331      106.8111160773  LPSA20    31             23.0000000000
     22066       715  BMANNA    C             -24.7405393168      -20.3966966069      108.7868858964  LPSA20    31             23.0000000000
     22067       715  BMANNA    O             -24.9545687463      -20.6728713554      109.9536662434  LPSA20    31             23.0000000000
     22068       715  BMANNA    CT            -23.4201876807      -19.7621194273      108.3237946568  LPSA20    31             23.0000000000
     22069       715  BMANNA    HT1           -23.6455037764      -19.0472498019      107.5739831696  LPSA20    31             23.0000000000
     22070       715  BMANNA    HT2           -22.7850546986      -20.5653098549      107.9347099034  LPSA20    31             23.0000000000
     22071       715  BMANNA    HT3           -22.8493998684      -19.3626920453      109.1768357935  LPSA20    31             23.0000000000
     22072       715  BMANNA    C3            -27.9991018494      -20.1923800931      108.4884560283  LPSA20    31             23.0000000000
     22073       715  BMANNA    H3            -29.0026346608      -20.7212424122      108.6988550870  LPSA20    31             23.0000000000
     22074       715  BMANNA    O3            -27.7050353345      -19.5719119575      109.7404994872  LPSA20    31             23.0000000000
     22075       715  BMANNA    HO3           -27.0677096429      -20.2066959025      110.0111610137  LPSA20    31             23.0000000000
     22076       715  BMANNA    C4            -28.2353165524      -19.2022913247      107.4199857710  LPSA20    31             23.0000000000
     22077       715  BMANNA    H4            -27.2940345508      -18.5706186155      107.0572414185  LPSA20    31             23.0000000000
     22078       715  BMANNA    O4            -29.1923197894      -18.2464741840      107.8525671122  LPSA20    31             23.0000000000
     22079       715  BMANNA    HO4           -30.0123582340      -18.6682208999      108.1943429300  LPSA20    31             23.0000000000
     22080       715  BMANNA    C6            -29.0994629761      -19.0859530352      105.0512686782  LPSA20    31             23.0000000000
     22081       715  BMANNA    H61           -30.0865798414      -18.5430512200      105.3397811046  LPSA20    31             23.0000000000
     22082       715  BMANNA    H62           -28.3614949411      -18.3098487186      104.8698551944  LPSA20    31             23.0000000000
     22083       715  BMANNA    O6            -29.2973223494      -19.8151831490      103.8241467834  LPSA20    31             23.0000000000
     22084       715  BMANNA    HO6           -30.1212665226      -20.3802990214      103.8134147631  LPSA20    31             23.0000000000
     22085       716  BGLCNA    C1            -25.6229313888      -24.8686801307      108.6103969990  LPSA20    32             23.0000000000
     22086       716  BGLCNA    H1            -25.6372782588      -23.7463105596      108.4325564695  LPSA20    32             23.0000000000
     22087       716  BGLCNA    C5            -23.6514198319      -24.3983160425      109.9277617404  LPSA20    32             23.0000000000
     22088       716  BGLCNA    H5            -23.7526573807      -23.3214410022      109.5374749077  LPSA20    32             23.0000000000
     22089       716  BGLCNA    O5            -24.2796092527      -25.2224418843      108.9423333575  LPSA20    32             23.0000000000
     22090       716  BGLCNA    C2            -26.4300385695      -25.0587091986      109.8194522937  LPSA20    32             23.0000000000
     22091       716  BGLCNA    H2            -26.2445430788      -26.0671492836      110.1044894257  LPSA20    32             23.0000000000
     22092       716  BGLCNA    N             -27.8203839465      -24.8507579631      109.5956973249  LPSA20    32             23.0000000000
     22093       716  BGLCNA    HN            -27.9363105355      -24.1316962350      108.8809076996  LPSA20    32             23.0000000000
     22094       716  BGLCNA    C             -28.8848304981      -25.5250705671      110.0864625708  LPSA20    32             23.0000000000
     22095       716  BGLCNA    O             -28.7688615182      -26.4138490381      110.9304085025  LPSA20    32             23.0000000000
     22096       716  BGLCNA    CT            -30.2826878666      -25.1008722402      109.5841031968  LPSA20    32             23.0000000000
     22097       716  BGLCNA    HT1           -29.9742590832      -24.4975238536      108.6281101354  LPSA20    32             23.0000000000
     22098       716  BGLCNA    HT2           -30.8204864043      -24.4157094669      110.1898124037  LPSA20    32             23.0000000000
     22099       716  BGLCNA    HT3           -30.9270130851      -25.9722495144      109.3122359934  LPSA20    32             23.0000000000
     22100       716  BGLCNA    C3            -25.8964346400      -24.1573635072      110.8930231790  LPSA20    32             23.0000000000
     22101       716  BGLCNA    H3            -25.8621692545      -23.1986085212      110.4606187373  LPSA20    32             23.0000000000
     22102       716  BGLCNA    O3            -26.7229640040      -24.0769408060      112.0657798240  LPSA20    32             23.0000000000
     22103       716  BGLCNA    C4            -24.4813861635      -24.5856074508      111.1707572500  LPSA20    32             23.0000000000
     22104       716  BGLCNA    H4            -24.5227038220      -25.6492114122      111.5318289610  LPSA20    32             23.0000000000
     22105       716  BGLCNA    O4            -23.9067793586      -23.8337250105      112.2070236435  LPSA20    32             23.0000000000
     22106       716  BGLCNA    HO4           -24.0444832676      -24.2405356379      113.0745323218  LPSA20    32             23.0000000000
     22107       716  BGLCNA    C6            -22.1788160228      -24.7387473119      110.0229508171  LPSA20    32             23.0000000000
     22108       716  BGLCNA    H61           -21.6221090035      -24.0091260071      110.7194343748  LPSA20    32             23.0000000000
     22109       716  BGLCNA    H62           -22.0603970344      -25.7559784986      110.5717638480  LPSA20    32             23.0000000000
     22110       716  BGLCNA    O6            -21.5276149025      -24.6703506522      108.7709294272  LPSA20    32             23.0000000000
     22111       716  BGLCNA    HO6           -21.9045663172      -23.9259403426      108.2360311317  LPSA20    32             23.0000000000
     22112       717  AGAL      C1            -26.7793772077      -22.7636468030      112.6842874521  LPSA20    33             24.0000000000
     22113       717  AGAL      H1            -25.7758795926      -22.3397625561      112.5979959475  LPSA20    33             24.0000000000
     22114       717  AGAL      C5            -29.0793884147      -22.4137578005      112.2149219831  LPSA20    33             24.0000000000
     22115       717  AGAL      H5            -29.0055212446      -23.4635174133      111.8792915250  LPSA20    33             24.0000000000
     22116       717  AGAL      O5            -27.7767720391      -21.8861727621      112.0726784748  LPSA20    33             24.0000000000
     22117       717  AGAL      C2            -27.1600918110      -22.9730575105      114.1482787662  LPSA20    33             24.0000000000
     22118       717  AGAL      H2            -27.2956375050      -21.9050794632      114.5751854976  LPSA20    33             24.0000000000
     22119       717  AGAL      O2            -26.0425642179      -23.4864264603      114.8486222260  LPSA20    33             24.0000000000
     22120       717  AGAL      C3            -28.5627228881      -23.5086778065      114.2945545625  LPSA20    33             24.0000000000
     22121       717  AGAL      H3            -28.6670367247      -24.5035215879      113.7405815065  LPSA20    33             24.0000000000
     22122       717  AGAL      O3            -28.8919713150      -23.8858866599      115.5672660328  LPSA20    33             24.0000000000
     22123       717  AGAL      HO3           -28.7598701277      -23.2517617337      116.2400186851  LPSA20    33             24.0000000000
     22124       717  AGAL      C4            -29.5646216474      -22.5646688479      113.6708488317  LPSA20    33             24.0000000000
     22125       717  AGAL      H4            -30.5731757003      -22.9955604441      113.6729875792  LPSA20    33             24.0000000000
     22126       717  AGAL      O4            -29.7115411100      -21.2448300647      114.2435538900  LPSA20    33             24.0000000000
     22127       717  AGAL      HO4           -29.0609653999      -21.0526724220      114.9085525172  LPSA20    33             24.0000000000
     22128       717  AGAL      C6            -30.0696857734      -21.7340888527      111.2992528405  LPSA20    33             24.0000000000
     22129       717  AGAL      H61           -29.6944733153      -21.9498982360      110.2783408757  LPSA20    33             24.0000000000
     22130       717  AGAL      H62           -31.1167585253      -22.0885068561      111.3458027743  LPSA20    33             24.0000000000
     22131       717  AGAL      O6            -30.2259409499      -20.3544333655      111.4129476537  LPSA20    33             24.0000000000
     22132       717  AGAL      HO6           -29.5994164064      -19.8386977861      110.8444757795  LPSA20    33             24.0000000000
     22133       718  ARHM      C1            -25.7133309685      -22.7968588302      116.0109133884  LPSA20    34             25.0000000000
     22134       718  ARHM      H1            -26.5949451577      -22.5826377651      116.6389743656  LPSA20    34             25.0000000000
     22135       718  ARHM      C5            -23.8765028089      -21.5341718025      115.0727799907  LPSA20    34             25.0000000000
     22136       718  ARHM      H5            -24.1437352662      -21.9340730798      114.0209633333  LPSA20    34             25.0000000000
     22137       718  ARHM      O5            -25.0985809741      -21.4975252911      115.8926868953  LPSA20    34             25.0000000000
     22138       718  ARHM      C2            -24.8091696457      -23.7351749040      116.7601555753  LPSA20    34             25.0000000000
     22139       718  ARHM      H2            -25.1798901541      -24.7903049016      116.8710959342  LPSA20    34             25.0000000000
     22140       718  ARHM      O2            -24.4767611160      -23.3049960760      118.1592972339  LPSA20    34             25.0000000000
     22141       718  ARHM      C3            -23.4954195017      -23.8368053930      115.9988665506  LPSA20    34             25.0000000000
     22142       718  ARHM      H3            -23.6563293021      -24.1996531709      114.9724172480  LPSA20    34             25.0000000000
     22143       718  ARHM      O3            -22.4908007290      -24.6979728538      116.5878695042  LPSA20    34             25.0000000000
     22144       718  ARHM      HO3           -21.9895958254      -25.2036924112      115.9559434517  LPSA20    34             25.0000000000
     22145       718  ARHM      C4            -22.8261339355      -22.4497058777      115.7987835878  LPSA20    34             25.0000000000
     22146       718  ARHM      H4            -22.6903344361      -21.9082802890      116.7495315617  LPSA20    34             25.0000000000
     22147       718  ARHM      O4            -21.6174605460      -22.5194929867      115.1362621200  LPSA20    34             25.0000000000
     22148       718  ARHM      HO4           -20.9093227859      -22.8309341987      115.6953140327  LPSA20    34             25.0000000000
     22149       718  ARHM      C6            -23.2895252650      -20.0956698690      114.8413279703  LPSA20    34             25.0000000000
     22150       718  ARHM      H61           -22.9483766690      -19.5840968973      115.7172490283  LPSA20    34             25.0000000000
     22151       718  ARHM      H62           -22.2858173701      -20.2253049396      114.3996926230  LPSA20    34             25.0000000000
     22152       718  ARHM      H63           -23.8540487242      -19.4335116518      114.1590834060  LPSA20    34             25.0000000000
     22153       719  ARHM      C1            -25.5715153839      -23.1173317336      119.0795908573  LPSA20    35             26.0000000000
     22154       719  ARHM      H1            -26.3625714738      -23.9536371424      118.8787348947  LPSA20    35             26.0000000000
     22155       719  ARHM      C5            -25.2947026404      -20.7092424030      119.2408916176  LPSA20    35             26.0000000000
     22156       719  ARHM      H5            -24.3767085801      -20.7400412266      118.5254732223  LPSA20    35             26.0000000000
     22157       719  ARHM      O5            -26.2462340576      -21.7975172992      118.9290334222  LPSA20    35             26.0000000000
     22158       719  ARHM      C2            -25.0759097649      -23.2723227721      120.5365485050  LPSA20    35             26.0000000000
     22159       719  ARHM      H2            -24.6693116100      -24.3085111645      120.7134209997  LPSA20    35             26.0000000000
     22160       719  ARHM      O2            -26.1304285741      -23.1203374162      121.4126203716  LPSA20    35             26.0000000000
     22161       719  ARHM      C3            -24.0333339685      -22.1822978066      120.8720061906  LPSA20    35             26.0000000000
     22162       719  ARHM      H3            -23.1792060096      -22.3370816227      120.1344793452  LPSA20    35             26.0000000000
     22163       719  ARHM      O3            -23.4736080042      -22.3776489114      122.1540075829  LPSA20    35             26.0000000000
     22164       719  ARHM      HO3           -24.1483989636      -22.7453653733      122.7288731339  LPSA20    35             26.0000000000
     22165       719  ARHM      C4            -24.7036640694      -20.8498157657      120.6788917534  LPSA20    35             26.0000000000
     22166       719  ARHM      H4            -25.6069829669      -20.6931844108      121.3307119103  LPSA20    35             26.0000000000
     22167       719  ARHM      O4            -23.7060016063      -19.8465604977      120.9693790153  LPSA20    35             26.0000000000
     22168       719  ARHM      HO4           -22.8285300082      -20.0265603595      120.5581709812  LPSA20    35             26.0000000000
     22169       719  ARHM      C6            -25.9395262716      -19.3310507133      118.8642347863  LPSA20    35             26.0000000000
     22170       719  ARHM      H61           -26.1031719306      -19.2501008572      117.7433556958  LPSA20    35             26.0000000000
     22171       719  ARHM      H62           -26.8654186740      -19.3578353148      119.4176110492  LPSA20    35             26.0000000000
     22172       719  ARHM      H63           -25.1592171107      -18.5412943272      119.0633705917  LPSA20    35             26.0000000000
     22173       720  BMANNA    C1            -27.0667616881      -24.1549495275      121.4471464502  LPSA20    36             27.0000000000
     22174       720  BMANNA    H1            -26.6231120795      -25.1173198827      121.0972061898  LPSA20    36             27.0000000000
     22175       720  BMANNA    C5            -29.1047966298      -25.2442313959      120.7299884793  LPSA20    36             27.0000000000
     22176       720  BMANNA    H5            -28.4812737031      -26.0951487378      120.4610684421  LPSA20    36             27.0000000000
     22177       720  BMANNA    O5            -28.2869932691      -24.0325751090      120.6641532654  LPSA20    36             27.0000000000
     22178       720  BMANNA    C2            -27.4897385190      -24.3706651672      122.8920138725  LPSA20    36             27.0000000000
     22179       720  BMANNA    H2            -26.5662539697      -24.5558268148      123.4719477421  LPSA20    36             27.0000000000
     22180       720  BMANNA    N             -28.1166024276      -23.1679887927      123.4395449790  LPSA20    36             27.0000000000
     22181       720  BMANNA    HN            -28.7677859682      -22.6520588303      122.8746519580  LPSA20    36             27.0000000000
     22182       720  BMANNA    C             -28.0747994255      -22.9055304895      124.7737151700  LPSA20    36             27.0000000000
     22183       720  BMANNA    O             -27.4088403962      -23.5118758396      125.6190347561  LPSA20    36             27.0000000000
     22184       720  BMANNA    CT            -28.9341242282      -21.8185659200      125.3570716528  LPSA20    36             27.0000000000
     22185       720  BMANNA    HT1           -29.9191665116      -21.8140602244      124.8802869227  LPSA20    36             27.0000000000
     22186       720  BMANNA    HT2           -28.5348668193      -20.7814088479      125.1731404614  LPSA20    36             27.0000000000
     22187       720  BMANNA    HT3           -29.0511668302      -21.8286206664      126.4547536948  LPSA20    36             27.0000000000
     22188       720  BMANNA    C3            -28.3765706049      -25.5863701581      122.9763638711  LPSA20    36             27.0000000000
     22189       720  BMANNA    H3            -27.8360885954      -26.4804630603      122.6403873786  LPSA20    36             27.0000000000
     22190       720  BMANNA    O3            -28.7711842630      -25.8820060661      124.3414054450  LPSA20    36             27.0000000000
     22191       720  BMANNA    HO3           -28.4662041287      -26.7011470939      124.7171830083  LPSA20    36             27.0000000000
     22192       720  BMANNA    C4            -29.5759364847      -25.4517881632      122.1146940524  LPSA20    36             27.0000000000
     22193       720  BMANNA    H4            -30.2097045394      -24.6517658524      122.4263894750  LPSA20    36             27.0000000000
     22194       720  BMANNA    O4            -30.4220506229      -26.5952562020      122.2172873890  LPSA20    36             27.0000000000
     22195       720  BMANNA    HO4           -30.5502637748      -26.5657755557      123.1985163392  LPSA20    36             27.0000000000
     22196       720  BMANNA    C6            -30.1956990645      -25.1388531534      119.7412642597  LPSA20    36             27.0000000000
     22197       720  BMANNA    H61           -29.8038407894      -25.0660318881      118.6946701192  LPSA20    36             27.0000000000
     22198       720  BMANNA    H62           -30.6507432102      -26.1335063525      119.7045442506  LPSA20    36             27.0000000000
     22199       720  BMANNA    O6            -31.1726148439      -24.0934764469      120.0914698020  LPSA20    36             27.0000000000
     22200       720  BMANNA    HO6           -31.8295810945      -24.5278469983      120.6476247167  LPSA20    36             27.0000000000
     22201       721  ECLIPA    HB6S          -20.5986850217       30.5135918125       20.4612168218  LPSA21    1               0.0000000000
     22202       721  ECLIPA    OB6           -20.0357667258       31.9885793888       21.7140249152  LPSA21    1               0.0000000000
     22203       721  ECLIPA    CB6           -20.9754130768       31.4704071985       20.7042159014  LPSA21    1               0.0000000000
     22204       721  ECLIPA    HB6R          -21.9897219649       31.5309307530       21.0541931349  LPSA21    1               0.0000000000
     22205       721  ECLIPA    CB5           -21.0140078451       32.3711365710       19.3988764877  LPSA21    1               0.0000000000
     22206       721  ECLIPA    OB5           -19.5951443582       32.4553064751       18.9716901872  LPSA21    1               0.0000000000
     22207       721  ECLIPA    HB5           -21.3186353546       33.3649517614       19.7771798410  LPSA21    1               0.0000000000
     22208       721  ECLIPA    CB1           -19.4899473256       33.2563788513       17.7717324898  LPSA21    1               0.0000000000
     22209       721  ECLIPA    HB1           -19.8542832840       34.2992666410       17.9003641080  LPSA21    1               0.0000000000
     22210       721  ECLIPA    OA6           -18.1689341797       33.2884900524       17.3217246577  LPSA21    1               0.0000000000
     22211       721  ECLIPA    CA6           -17.3029945962       32.1615182862       17.5745106853  LPSA21    1               0.0000000000
     22212       721  ECLIPA    HA6R          -17.9359852284       31.2631466455       17.7226451425  LPSA21    1               0.0000000000
     22213       721  ECLIPA    HA6S          -16.6057767249       32.4471224103       18.4598965841  LPSA21    1               0.0000000000
     22214       721  ECLIPA    CB4           -21.9436705018       31.7807628930       18.3206521937  LPSA21    1               0.0000000000
     22215       721  ECLIPA    HB4           -21.6112774518       30.7683773584       18.0085584641  LPSA21    1               0.0000000000
     22216       721  ECLIPA    OB4           -23.2545901616       31.9545058644       18.9017319965  LPSA21    1               0.0000000000
     22217       721  ECLIPA    PB            -24.1121998248       30.6589471819       19.3234616795  LPSA21    1               0.0000000000
     22218       721  ECLIPA    OPB4          -24.9458254101       31.0498363202       20.5579515876  LPSA21    1               0.0000000000
     22219       721  ECLIPA    OPB3          -22.9833372408       29.6549343805       19.6614545037  LPSA21    1               0.0000000000
     22220       721  ECLIPA    OPB2          -24.8992980252       30.2109546130       18.0829495795  LPSA21    1               0.0000000000
     22221       721  ECLIPA    CB3           -21.7757692522       32.6587739222       17.0955893951  LPSA21    1               0.0000000000
     22222       721  ECLIPA    OB3           -22.4845978693       32.2324444285       15.9186528231  LPSA21    1               0.0000000000
     22223       721  ECLIPA    HB3           -21.9265394769       33.7567642958       17.3284540628  LPSA21    1               0.0000000000
     22224       721  ECLIPA    C71           -23.6594688882       32.7180114801       15.6929469039  LPSA21    1               0.0000000000
     22225       721  ECLIPA    O71           -24.1890913345       33.6195379645       16.3832172580  LPSA21    1               0.0000000000
     22226       721  ECLIPA    C72           -24.1669002315       32.1193568056       14.3548430386  LPSA21    1               0.0000000000
     22227       721  ECLIPA    H72R          -23.4428930909       32.3574719749       13.5774555414  LPSA21    1               0.0000000000
     22228       721  ECLIPA    H72S          -25.2492938714       32.5136647309       14.1464415926  LPSA21    1               0.0000000000
     22229       721  ECLIPA    CB2           -20.2934834501       32.6529082552       16.6720734084  LPSA21    1               0.0000000000
     22230       721  ECLIPA    HB2           -20.0036717154       31.5158187324       16.5298168153  LPSA21    1               0.0000000000
     22231       721  ECLIPA    NB2           -20.0378779149       33.4567461096       15.4577284722  LPSA21    1               0.0000000000
     22232       721  ECLIPA    HNB2          -19.8911159323       34.4351395835       15.5965609326  LPSA21    1               0.0000000000
     22233       721  ECLIPA    CA4           -15.8880151204       33.2041053577       15.7929312798  LPSA21    1               0.0000000000
     22234       721  ECLIPA    HA4           -16.7281284320       33.8798998338       15.4903430209  LPSA21    1               0.0000000000
     22235       721  ECLIPA    OA4           -15.1356170302       33.8084085646       16.8012065728  LPSA21    1               0.0000000000
     22236       721  ECLIPA    HOA4          -15.5894499899       33.8582469691       17.5928838569  LPSA21    1               0.0000000000
     22237       721  ECLIPA    CA5           -16.4435682855       31.9627969945       16.3547806008  LPSA21    1               0.0000000000
     22238       721  ECLIPA    HA5           -15.6964956591       31.0962701688       16.5880746347  LPSA21    1               0.0000000000
     22239       721  ECLIPA    OA5           -17.3158726453       31.3931513259       15.3689671688  LPSA21    1               0.0000000000
     22240       721  ECLIPA    CA1           -16.6058732570       31.1253010070       14.1076640156  LPSA21    1               0.0000000000
     22241       721  ECLIPA    HA1           -17.4835970586       31.0211018056       13.4118188108  LPSA21    1               0.0000000000
     22242       721  ECLIPA    OA1           -15.8685565183       29.9188921311       14.1359876212  LPSA21    1               0.0000000000
     22243       721  ECLIPA    OPA2          -15.7188591524       28.3637948341       15.9734101064  LPSA21    1               0.0000000000
     22244       721  ECLIPA    OPA3          -17.9774919168       28.6659749851       14.8300177673  LPSA21    1               0.0000000000
     22245       721  ECLIPA    OPA4          -16.1621966502       27.5027593772       13.6615320840  LPSA21    1               0.0000000000
     22246       721  ECLIPA    PA            -16.4875003818       28.5755352224       14.6765383084  LPSA21    1               0.0000000000
     22247       721  ECLIPA    CA3           -15.0786536434       32.9898738167       14.5219348229  LPSA21    1               0.0000000000
     22248       721  ECLIPA    HA3           -14.1419727413       32.3406628830       14.7377032538  LPSA21    1               0.0000000000
     22249       721  ECLIPA    OA3           -14.5171768858       34.2611564210       14.2498111976  LPSA21    1               0.0000000000
     22250       721  ECLIPA    C31           -15.2858033951       35.1145719970       13.5006246295  LPSA21    1               0.0000000000
     22251       721  ECLIPA    O31           -15.4472550383       35.0736354986       12.2941239937  LPSA21    1               0.0000000000
     22252       721  ECLIPA    C32           -15.4756700659       36.4251018657       14.2780289507  LPSA21    1               0.0000000000
     22253       721  ECLIPA    H32R          -14.9781065252       37.2371941609       13.7149713840  LPSA21    1               0.0000000000
     22254       721  ECLIPA    H32S          -15.0476318234       36.3318767852       15.2729523512  LPSA21    1               0.0000000000
     22255       721  ECLIPA    CA2           -16.0138607735       32.3748649684       13.4984733916  LPSA21    1               0.0000000000
     22256       721  ECLIPA    HA2           -16.8712371525       33.0454854070       13.3982259915  LPSA21    1               0.0000000000
     22257       721  ECLIPA    NA2           -15.3637559309       32.0820049810       12.2035087571  LPSA21    1               0.0000000000
     22258       721  ECLIPA    HNA2          -14.4701652808       32.4428046990       12.0865030408  LPSA21    1               0.0000000000
     22259       721  ECLIPA    C73           -24.3143368610       30.6199592915       14.3319064372  LPSA21    1               0.0000000000
     22260       721  ECLIPA    H73R          -24.7910708312       30.2281173834       15.2227416964  LPSA21    1               0.0000000000
     22261       721  ECLIPA    O73           -22.9724722458       30.0766123087       14.2644256719  LPSA21    1               0.0000000000
     22262       721  ECLIPA    C81           -22.5846821066       28.9341880122       14.8555734565  LPSA21    1               0.0000000000
     22263       721  ECLIPA    O81           -23.3791734685       28.3662176157       15.6690894779  LPSA21    1               0.0000000000
     22264       721  ECLIPA    C82           -21.2039142746       28.4680914154       14.3536111794  LPSA21    1               0.0000000000
     22265       721  ECLIPA    H82R          -20.8829440105       27.5595684421       14.8531840528  LPSA21    1               0.0000000000
     22266       721  ECLIPA    H82S          -20.4220180951       29.2416324612       14.5323473422  LPSA21    1               0.0000000000
     22267       721  ECLIPA    C83           -21.2536941263       28.2238058243       12.8301722806  LPSA21    1               0.0000000000
     22268       721  ECLIPA    H83R          -21.1404713385       29.2065259822       12.2351841548  LPSA21    1               0.0000000000
     22269       721  ECLIPA    H83S          -22.2713126198       27.9098841825       12.5911296392  LPSA21    1               0.0000000000
     22270       721  ECLIPA    C84           -20.1166467779       27.3235010226       12.3050927261  LPSA21    1               0.0000000000
     22271       721  ECLIPA    H84R          -20.3453481113       26.2856560599       12.5767117503  LPSA21    1               0.0000000000
     22272       721  ECLIPA    H84S          -19.2334544624       27.7436389089       12.7369555497  LPSA21    1               0.0000000000
     22273       721  ECLIPA    C85           -19.9758064266       27.4396543217       10.7695484051  LPSA21    1               0.0000000000
     22274       721  ECLIPA    H85R          -20.0591208526       28.5119787200       10.5503608829  LPSA21    1               0.0000000000
     22275       721  ECLIPA    H85S          -20.8510280285       26.9570939062       10.2367999955  LPSA21    1               0.0000000000
     22276       721  ECLIPA    C86           -18.5655861318       26.9827081593       10.3034592726  LPSA21    1               0.0000000000
     22277       721  ECLIPA    H86R          -18.5227791625       25.8860938976        9.9932223571  LPSA21    1               0.0000000000
     22278       721  ECLIPA    H86S          -17.8333659455       27.0971625793       11.0807540114  LPSA21    1               0.0000000000
     22279       721  ECLIPA    C87           -17.9942019388       27.8898928923        9.1601018854  LPSA21    1               0.0000000000
     22280       721  ECLIPA    H87R          -17.0370145699       27.5219829204        8.8049419625  LPSA21    1               0.0000000000
     22281       721  ECLIPA    H87S          -17.7837068544       28.9258589168        9.5406723883  LPSA21    1               0.0000000000
     22282       721  ECLIPA    C88           -18.9803416176       28.0658679613        8.0318999685  LPSA21    1               0.0000000000
     22283       721  ECLIPA    H88R          -19.8138639785       28.7748438293        8.3479828359  LPSA21    1               0.0000000000
     22284       721  ECLIPA    H88S          -19.5973459114       27.1266229882        7.9254521495  LPSA21    1               0.0000000000
     22285       721  ECLIPA    C89           -18.3703932002       28.6377178306        6.7101000712  LPSA21    1               0.0000000000
     22286       721  ECLIPA    H89R          -17.3823469816       29.1191397230        6.8746682686  LPSA21    1               0.0000000000
     22287       721  ECLIPA    H89S          -18.9652711594       29.3919082779        6.2317001698  LPSA21    1               0.0000000000
     22288       721  ECLIPA    C810          -18.2426673840       27.4794809328        5.7047246593  LPSA21    1               0.0000000000
     22289       721  ECLIPA    H810R         -19.0821072178       26.8288478080        6.0108430704  LPSA21    1               0.0000000000
     22290       721  ECLIPA    H810S         -17.3037974094       26.9822807881        5.8554647029  LPSA21    1               0.0000000000
     22291       721  ECLIPA    C811          -18.3446309552       27.8620625562        4.2179945741  LPSA21    1               0.0000000000
     22292       721  ECLIPA    H811R         -17.9591632466       27.1835346919        3.5081125689  LPSA21    1               0.0000000000
     22293       721  ECLIPA    H811S         -17.8520883897       28.9042802228        4.1819101877  LPSA21    1               0.0000000000
     22294       721  ECLIPA    C812          -19.7521931026       28.2525598508        3.7413673409  LPSA21    1               0.0000000000
     22295       721  ECLIPA    H812R         -19.6378116698       28.6690328792        2.6403157337  LPSA21    1               0.0000000000
     22296       721  ECLIPA    H812S         -20.2791706687       28.9172637668        4.4144737196  LPSA21    1               0.0000000000
     22297       721  ECLIPA    C813          -20.7495951183       27.0811099403        3.6785234959  LPSA21    1               0.0000000000
     22298       721  ECLIPA    H813R         -20.3354424410       26.3546336210        2.9398073555  LPSA21    1               0.0000000000
     22299       721  ECLIPA    H813S         -20.9051621851       26.4985254373        4.6616087352  LPSA21    1               0.0000000000
     22300       721  ECLIPA    C814          -22.1101170175       27.4698814557        3.1377409857  LPSA21    1               0.0000000000
     22301       721  ECLIPA    H814R         -22.1140901291       28.1327328728        2.1719074593  LPSA21    1               0.0000000000
     22302       721  ECLIPA    H814S         -22.6659633033       28.0092970309        3.9166242729  LPSA21    1               0.0000000000
     22303       721  ECLIPA    H814T         -22.7131847214       26.5650808237        2.8964685373  LPSA21    1               0.0000000000
     22304       721  ECLIPA    C74           -25.0415715916       29.9687558472       13.1792855021  LPSA21    1               0.0000000000
     22305       721  ECLIPA    H74R          -26.0866333842       30.2102907258       12.9935747315  LPSA21    1               0.0000000000
     22306       721  ECLIPA    H74S          -24.9937481977       28.8170840742       13.3086690609  LPSA21    1               0.0000000000
     22307       721  ECLIPA    C75           -24.2508816435       30.1741065511       11.8151371119  LPSA21    1               0.0000000000
     22308       721  ECLIPA    H75R          -24.3975317593       29.2071801172       11.2107603889  LPSA21    1               0.0000000000
     22309       721  ECLIPA    H75S          -23.1671306422       30.2903827289       12.0082837783  LPSA21    1               0.0000000000
     22310       721  ECLIPA    C76           -24.7213231232       31.3573255088       10.9251453624  LPSA21    1               0.0000000000
     22311       721  ECLIPA    H76R          -24.3030235017       32.3086221550       11.3555905686  LPSA21    1               0.0000000000
     22312       721  ECLIPA    H76S          -25.8766759056       31.5243162307       10.9731137071  LPSA21    1               0.0000000000
     22313       721  ECLIPA    C77           -24.3591070841       31.3139882742        9.4191603634  LPSA21    1               0.0000000000
     22314       721  ECLIPA    H77R          -24.8182720725       30.4333106130        9.0408775908  LPSA21    1               0.0000000000
     22315       721  ECLIPA    H77S          -23.2763910642       31.0864860243        9.2852383479  LPSA21    1               0.0000000000
     22316       721  ECLIPA    C78           -24.6940908660       32.6898977828        8.8297405752  LPSA21    1               0.0000000000
     22317       721  ECLIPA    H78R          -25.7014849215       32.9457848062        9.1562620580  LPSA21    1               0.0000000000
     22318       721  ECLIPA    H78S          -23.9551173414       33.3844224957        9.3169442960  LPSA21    1               0.0000000000
     22319       721  ECLIPA    C79           -24.3294381345       32.8187745945        7.2570767761  LPSA21    1               0.0000000000
     22320       721  ECLIPA    H79R          -23.3114656641       33.3100792015        7.1763205913  LPSA21    1               0.0000000000
     22321       721  ECLIPA    H79S          -25.0617623321       33.4831004334        6.7882549413  LPSA21    1               0.0000000000
     22322       721  ECLIPA    C710          -24.5185595431       31.5780395896        6.3785096220  LPSA21    1               0.0000000000
     22323       721  ECLIPA    H710R         -23.8705902273       30.8002431636        6.8460783027  LPSA21    1               0.0000000000
     22324       721  ECLIPA    H710S         -25.4916091149       31.2763245124        6.4843026416  LPSA21    1               0.0000000000
     22325       721  ECLIPA    C711          -24.0884515913       31.7657980562        4.9384125046  LPSA21    1               0.0000000000
     22326       721  ECLIPA    H711R         -24.7575595211       32.5446331556        4.5670708729  LPSA21    1               0.0000000000
     22327       721  ECLIPA    H711S         -23.0074128980       32.0573818135        4.9306188492  LPSA21    1               0.0000000000
     22328       721  ECLIPA    C712          -24.2485224342       30.4406894426        4.2148670498  LPSA21    1               0.0000000000
     22329       721  ECLIPA    H712R         -25.3045670908       30.1660210945        4.3130666899  LPSA21    1               0.0000000000
     22330       721  ECLIPA    H712S         -23.7066693747       29.7219624955        4.8522839389  LPSA21    1               0.0000000000
     22331       721  ECLIPA    C713          -23.6660433591       30.4998167999        2.7357390519  LPSA21    1               0.0000000000
     22332       721  ECLIPA    H713R         -22.5705423026       30.7144829914        2.8800411466  LPSA21    1               0.0000000000
     22333       721  ECLIPA    H713S         -23.8606411360       29.4615867168        2.2750064041  LPSA21    1               0.0000000000
     22334       721  ECLIPA    C714          -24.4588950680       31.5115969707        1.8879763961  LPSA21    1               0.0000000000
     22335       721  ECLIPA    H714R         -25.5046903558       31.1973552981        1.7626189762  LPSA21    1               0.0000000000
     22336       721  ECLIPA    H714S         -24.2913336708       32.5472153020        2.2081901572  LPSA21    1               0.0000000000
     22337       721  ECLIPA    H714T         -24.0036330195       31.3762217663        0.9249202435  LPSA21    1               0.0000000000
     22338       721  ECLIPA    C51           -20.2341220649       32.9299651485       14.2380633031  LPSA21    1               0.0000000000
     22339       721  ECLIPA    O51           -20.2518923137       31.6851294836       14.1304636378  LPSA21    1               0.0000000000
     22340       721  ECLIPA    C52           -20.5189787342       33.8763830224       13.0157035712  LPSA21    1               0.0000000000
     22341       721  ECLIPA    H52R          -21.5571130457       34.1507819598       12.8950255930  LPSA21    1               0.0000000000
     22342       721  ECLIPA    H52S          -19.9228310969       34.7369986118       13.2222025935  LPSA21    1               0.0000000000
     22343       721  ECLIPA    C53           -19.8633792531       33.1988117470       11.7526064304  LPSA21    1               0.0000000000
     22344       721  ECLIPA    H53R          -19.0393190529       32.5408650892       12.0082431084  LPSA21    1               0.0000000000
     22345       721  ECLIPA    O53           -19.5743572057       34.2727933092       10.8431816314  LPSA21    1               0.0000000000
     22346       721  ECLIPA    C61           -18.3131970714       34.4914729042       10.5090573566  LPSA21    1               0.0000000000
     22347       721  ECLIPA    O61           -17.3707731112       33.8566085348       10.8659713306  LPSA21    1               0.0000000000
     22348       721  ECLIPA    C62           -18.2443899876       35.7077076305        9.5765835255  LPSA21    1               0.0000000000
     22349       721  ECLIPA    H62R          -18.3149995001       36.6133801253       10.2152837125  LPSA21    1               0.0000000000
     22350       721  ECLIPA    H62S          -19.2206934323       35.7413847082        9.0470049452  LPSA21    1               0.0000000000
     22351       721  ECLIPA    C63           -16.9799139294       35.6747636232        8.6803029234  LPSA21    1               0.0000000000
     22352       721  ECLIPA    H63R          -16.8982214703       34.6513448417        8.2798705976  LPSA21    1               0.0000000000
     22353       721  ECLIPA    H63S          -16.0175376990       35.8792835946        9.3252199642  LPSA21    1               0.0000000000
     22354       721  ECLIPA    C64           -16.9173892307       36.6007413780        7.5279067597  LPSA21    1               0.0000000000
     22355       721  ECLIPA    H64R          -15.9189756676       36.5647671558        6.9620099216  LPSA21    1               0.0000000000
     22356       721  ECLIPA    H64S          -17.0879364687       37.6518591888        7.9657393466  LPSA21    1               0.0000000000
     22357       721  ECLIPA    C65           -18.1009005492       36.3034772056        6.5414948800  LPSA21    1               0.0000000000
     22358       721  ECLIPA    H65R          -18.9565148501       36.4757756793        7.2423230371  LPSA21    1               0.0000000000
     22359       721  ECLIPA    H65S          -18.0285844766       35.2530753194        6.1828980290  LPSA21    1               0.0000000000
     22360       721  ECLIPA    C66           -18.2013879988       37.1966265472        5.2222643966  LPSA21    1               0.0000000000
     22361       721  ECLIPA    H66R          -18.3213398686       38.2303047871        5.5395647249  LPSA21    1               0.0000000000
     22362       721  ECLIPA    H66S          -19.1733066794       36.7917562075        4.8113963288  LPSA21    1               0.0000000000
     22363       721  ECLIPA    C67           -17.1301471489       37.0629273522        4.1696839457  LPSA21    1               0.0000000000
     22364       721  ECLIPA    H67R          -16.1217309987       37.1552511071        4.5058181646  LPSA21    1               0.0000000000
     22365       721  ECLIPA    H67S          -17.3047807302       37.8143333181        3.3478820057  LPSA21    1               0.0000000000
     22366       721  ECLIPA    C68           -17.0800073699       35.7108095720        3.5077075145  LPSA21    1               0.0000000000
     22367       721  ECLIPA    H68R          -18.0009556061       35.3220914603        3.0112508411  LPSA21    1               0.0000000000
     22368       721  ECLIPA    H68S          -16.7320739142       35.0836904188        4.3087918325  LPSA21    1               0.0000000000
     22369       721  ECLIPA    C69           -16.1503119191       35.7631045384        2.2963532923  LPSA21    1               0.0000000000
     22370       721  ECLIPA    H69R          -15.3477582514       36.5254333356        2.3203210098  LPSA21    1               0.0000000000
     22371       721  ECLIPA    H69S          -16.7576472712       36.1254532301        1.4693744207  LPSA21    1               0.0000000000
     22372       721  ECLIPA    C610          -15.5466907548       34.4539272526        1.9396251084  LPSA21    1               0.0000000000
     22373       721  ECLIPA    H610R         -16.3059328512       33.6327390500        2.0603347121  LPSA21    1               0.0000000000
     22374       721  ECLIPA    H610S         -14.7353664726       34.1880522037        2.6933643884  LPSA21    1               0.0000000000
     22375       721  ECLIPA    C611          -14.8549388850       34.4478206834        0.5312153135  LPSA21    1               0.0000000000
     22376       721  ECLIPA    H611R         -14.0763647927       35.2343103843        0.5735373188  LPSA21    1               0.0000000000
     22377       721  ECLIPA    H611S         -14.2128853344       33.5966541654        0.3609598123  LPSA21    1               0.0000000000
     22378       721  ECLIPA    C612          -15.8846385679       34.5749861097       -0.5788949292  LPSA21    1               0.0000000000
     22379       721  ECLIPA    H612R         -16.4929692451       33.6275382166       -0.6060949542  LPSA21    1               0.0000000000
     22380       721  ECLIPA    H612S         -16.6058554039       35.3577893339       -0.3132441764  LPSA21    1               0.0000000000
     22381       721  ECLIPA    H612T         -15.4203878200       34.7266755717       -1.5574606966  LPSA21    1               0.0000000000
     22382       721  ECLIPA    C54           -21.0041882829       32.3394467139       11.1776054589  LPSA21    1               0.0000000000
     22383       721  ECLIPA    H54R          -21.8538317188       33.0266011502       10.8869876633  LPSA21    1               0.0000000000
     22384       721  ECLIPA    H54S          -21.4239666282       31.6836757096       11.9574517429  LPSA21    1               0.0000000000
     22385       721  ECLIPA    C55           -20.7175455657       31.4263216834        9.9916770240  LPSA21    1               0.0000000000
     22386       721  ECLIPA    H55R          -21.5040036443       30.6653471380        9.7856946516  LPSA21    1               0.0000000000
     22387       721  ECLIPA    H55S          -19.7606284816       30.8444262818       10.2436295858  LPSA21    1               0.0000000000
     22388       721  ECLIPA    C56           -20.6922872634       32.2795707091        8.7515486822  LPSA21    1               0.0000000000
     22389       721  ECLIPA    H56R          -19.8798405167       33.0644494403        8.8382497819  LPSA21    1               0.0000000000
     22390       721  ECLIPA    H56S          -21.5743220472       32.7732805751        8.4741334449  LPSA21    1               0.0000000000
     22391       721  ECLIPA    C57           -20.1503924768       31.5962375326        7.4395707935  LPSA21    1               0.0000000000
     22392       721  ECLIPA    H57R          -20.6879453306       30.6817068821        7.1827428724  LPSA21    1               0.0000000000
     22393       721  ECLIPA    H57S          -19.0911918902       31.2719294156        7.5196553379  LPSA21    1               0.0000000000
     22394       721  ECLIPA    C58           -20.1556071097       32.6235357886        6.2350750625  LPSA21    1               0.0000000000
     22395       721  ECLIPA    H58R          -21.1137243290       33.2129311824        6.2095761879  LPSA21    1               0.0000000000
     22396       721  ECLIPA    H58S          -19.4406758603       33.4425731424        6.5224540661  LPSA21    1               0.0000000000
     22397       721  ECLIPA    C59           -19.9619713386       31.9118858145        4.8667186835  LPSA21    1               0.0000000000
     22398       721  ECLIPA    H59R          -20.7403372078       31.1558766349        4.6589989540  LPSA21    1               0.0000000000
     22399       721  ECLIPA    H59S          -18.9787005932       31.4495264752        5.0825555512  LPSA21    1               0.0000000000
     22400       721  ECLIPA    C510          -20.1069209563       32.8761171976        3.6752379292  LPSA21    1               0.0000000000
     22401       721  ECLIPA    H510R         -19.5677779910       33.8779181409        3.7937959224  LPSA21    1               0.0000000000
     22402       721  ECLIPA    H510S         -21.2381201181       33.1431837597        3.4613250382  LPSA21    1               0.0000000000
     22403       721  ECLIPA    C511          -19.6624074852       32.3337911532        2.3004848829  LPSA21    1               0.0000000000
     22404       721  ECLIPA    H511R         -18.5605888976       32.4350536648        2.2679211996  LPSA21    1               0.0000000000
     22405       721  ECLIPA    H511S         -19.8604520522       31.2277034770        2.1940961976  LPSA21    1               0.0000000000
     22406       721  ECLIPA    C512          -20.1980411522       33.0721421478        1.0189424135  LPSA21    1               0.0000000000
     22407       721  ECLIPA    H512R         -19.9918301600       32.4558905980        0.0815295424  LPSA21    1               0.0000000000
     22408       721  ECLIPA    H512S         -21.2796482723       33.2296703127        1.1129704346  LPSA21    1               0.0000000000
     22409       721  ECLIPA    C513          -19.4288460852       34.4198710378        0.6457389972  LPSA21    1               0.0000000000
     22410       721  ECLIPA    H513R         -18.3194624211       34.2338721182        0.5010832175  LPSA21    1               0.0000000000
     22411       721  ECLIPA    H513S         -19.5011240249       35.0995044772        1.4088770719  LPSA21    1               0.0000000000
     22412       721  ECLIPA    C514          -19.9341883974       34.9774363044       -0.6567184026  LPSA21    1               0.0000000000
     22413       721  ECLIPA    H514R         -21.0155838538       35.1092017331       -0.6273993866  LPSA21    1               0.0000000000
     22414       721  ECLIPA    H514S         -19.5142379569       35.9846948369       -0.7024724270  LPSA21    1               0.0000000000
     22415       721  ECLIPA    H514T         -19.6418275139       34.3040958787       -1.5427815912  LPSA21    1               0.0000000000
     22416       721  ECLIPA    C33           -16.9701970152       36.9435189334       14.4880792826  LPSA21    1               0.0000000000
     22417       721  ECLIPA    H33R          -16.9014164400       38.0111327111       14.8828993596  LPSA21    1               0.0000000000
     22418       721  ECLIPA    O33           -17.6379169104       36.1725462800       15.4699768821  LPSA21    1               0.0000000000
     22419       721  ECLIPA    HO33          -17.2943403746       36.3982072171       16.2926205744  LPSA21    1               0.0000000000
     22420       721  ECLIPA    C34           -17.8706385362       36.9919236171       13.2255459338  LPSA21    1               0.0000000000
     22421       721  ECLIPA    H34R          -17.9504439780       35.9971864644       12.8010908313  LPSA21    1               0.0000000000
     22422       721  ECLIPA    H34S          -17.3479692224       37.5825285539       12.3772221142  LPSA21    1               0.0000000000
     22423       721  ECLIPA    C35           -19.2962371260       37.5377927148       13.4256256262  LPSA21    1               0.0000000000
     22424       721  ECLIPA    H35R          -19.2186998711       38.5883210595       13.6963698038  LPSA21    1               0.0000000000
     22425       721  ECLIPA    H35S          -19.7611452944       37.0075666133       14.2668166019  LPSA21    1               0.0000000000
     22426       721  ECLIPA    C36           -20.2141146931       37.5716060265       12.1865608177  LPSA21    1               0.0000000000
     22427       721  ECLIPA    H36R          -19.8126916902       36.6372075786       11.7430812241  LPSA21    1               0.0000000000
     22428       721  ECLIPA    H36S          -20.0595747470       38.4464623789       11.4785220412  LPSA21    1               0.0000000000
     22429       721  ECLIPA    C37           -21.6607763081       37.2654913380       12.5255831563  LPSA21    1               0.0000000000
     22430       721  ECLIPA    H37R          -22.1400577687       38.3355187244       12.6765215637  LPSA21    1               0.0000000000
     22431       721  ECLIPA    H37S          -21.7692718670       36.7792246527       13.5128993321  LPSA21    1               0.0000000000
     22432       721  ECLIPA    C38           -22.4859860239       36.5322199020       11.4317274953  LPSA21    1               0.0000000000
     22433       721  ECLIPA    H38R          -22.3083484278       35.4442069934       11.4067421357  LPSA21    1               0.0000000000
     22434       721  ECLIPA    H38S          -23.5492342332       36.6082647935       11.7230999881  LPSA21    1               0.0000000000
     22435       721  ECLIPA    C39           -22.1712202305       37.0707640519       10.0213367345  LPSA21    1               0.0000000000
     22436       721  ECLIPA    H39R          -21.0696199995       37.0189942424        9.8128797222  LPSA21    1               0.0000000000
     22437       721  ECLIPA    H39S          -22.6137864010       38.1008415740        9.9697980947  LPSA21    1               0.0000000000
     22438       721  ECLIPA    C310          -22.8864433488       36.3811030585        8.8401719124  LPSA21    1               0.0000000000
     22439       721  ECLIPA    H310R         -23.9961376503       36.6030183665        9.0626900142  LPSA21    1               0.0000000000
     22440       721  ECLIPA    H310S         -22.7187424519       35.2658301555        8.8945759064  LPSA21    1               0.0000000000
     22441       721  ECLIPA    C311          -22.2476441265       36.7000389158        7.5676235846  LPSA21    1               0.0000000000
     22442       721  ECLIPA    H311R         -21.9233972980       37.7716133876        7.5507520616  LPSA21    1               0.0000000000
     22443       721  ECLIPA    H311S         -21.3394031881       36.0831045262        7.2851462164  LPSA21    1               0.0000000000
     22444       721  ECLIPA    C312          -23.1273382174       36.4250747426        6.3280121142  LPSA21    1               0.0000000000
     22445       721  ECLIPA    H312R         -23.7630710194       35.5175863439        6.4861373960  LPSA21    1               0.0000000000
     22446       721  ECLIPA    H312S         -23.7909497709       37.3140854260        6.1820758986  LPSA21    1               0.0000000000
     22447       721  ECLIPA    C313          -22.3390670059       36.2486434727        4.9895779706  LPSA21    1               0.0000000000
     22448       721  ECLIPA    H313R         -22.0095823939       37.2197117598        4.7825120466  LPSA21    1               0.0000000000
     22449       721  ECLIPA    H313S         -21.4394991149       35.5927143907        5.1572698764  LPSA21    1               0.0000000000
     22450       721  ECLIPA    C314          -23.0956099520       35.7290542972        3.8116661598  LPSA21    1               0.0000000000
     22451       721  ECLIPA    H314R         -23.9691230626       36.4060851914        3.6067793993  LPSA21    1               0.0000000000
     22452       721  ECLIPA    H314S         -22.5260062121       35.6209543835        2.8849361441  LPSA21    1               0.0000000000
     22453       721  ECLIPA    H314T         -23.5554841233       34.7053256092        4.0446347774  LPSA21    1               0.0000000000
     22454       721  ECLIPA    C11           -15.7958550377       31.2483460968       11.2900808200  LPSA21    1               0.0000000000
     22455       721  ECLIPA    O11           -16.9149438119       30.7736999731       11.1394597694  LPSA21    1               0.0000000000
     22456       721  ECLIPA    C12           -14.7094758505       30.7623395091       10.2853014675  LPSA21    1               0.0000000000
     22457       721  ECLIPA    H12R          -14.4190203268       29.6994380808       10.4852637814  LPSA21    1               0.0000000000
     22458       721  ECLIPA    H12S          -13.8430130117       31.4350867352       10.5222272274  LPSA21    1               0.0000000000
     22459       721  ECLIPA    C13           -15.0645880612       30.9022067193        8.8110583416  LPSA21    1               0.0000000000
     22460       721  ECLIPA    H13R          -16.1458811479       30.5665229339        8.5839874118  LPSA21    1               0.0000000000
     22461       721  ECLIPA    O13           -14.1780089681       29.9757376397        8.1311342176  LPSA21    1               0.0000000000
     22462       721  ECLIPA    HO13          -14.5501017781       29.7228333988        7.3064966676  LPSA21    1               0.0000000000
     22463       721  ECLIPA    C14           -14.9188218012       32.3640418287        8.4581579993  LPSA21    1               0.0000000000
     22464       721  ECLIPA    H14R          -14.0106499631       32.8508381722        8.9706443184  LPSA21    1               0.0000000000
     22465       721  ECLIPA    H14S          -15.8741009503       32.8626327694        8.7243868424  LPSA21    1               0.0000000000
     22466       721  ECLIPA    C15           -14.7295334888       32.6291301580        6.9526486677  LPSA21    1               0.0000000000
     22467       721  ECLIPA    H15R          -13.9321497716       32.0269644544        6.5500123177  LPSA21    1               0.0000000000
     22468       721  ECLIPA    H15S          -14.5172905924       33.6969072409        6.8782608049  LPSA21    1               0.0000000000
     22469       721  ECLIPA    C16           -16.0094171794       32.2584341087        6.1622847334  LPSA21    1               0.0000000000
     22470       721  ECLIPA    H16R          -16.8181917127       33.0695287624        6.2733383262  LPSA21    1               0.0000000000
     22471       721  ECLIPA    H16S          -16.5165367487       31.4512493023        6.7182496574  LPSA21    1               0.0000000000
     22472       721  ECLIPA    C17           -15.7478679774       32.0004202979        4.6801229578  LPSA21    1               0.0000000000
     22473       721  ECLIPA    H17R          -15.0601575131       32.8637962518        4.4246758429  LPSA21    1               0.0000000000
     22474       721  ECLIPA    H17S          -16.6059090004       32.0809036989        4.0046542873  LPSA21    1               0.0000000000
     22475       721  ECLIPA    C18           -15.0810949674       30.6715452044        4.4504458171  LPSA21    1               0.0000000000
     22476       721  ECLIPA    H18R          -14.2388378494       30.7356354866        5.0865821920  LPSA21    1               0.0000000000
     22477       721  ECLIPA    H18S          -15.7985140763       29.8644892450        4.7749867078  LPSA21    1               0.0000000000
     22478       721  ECLIPA    C19           -14.6851354837       30.4648550248        3.0097966450  LPSA21    1               0.0000000000
     22479       721  ECLIPA    H19R          -14.1034153599       29.5578274923        2.9245509529  LPSA21    1               0.0000000000
     22480       721  ECLIPA    H19S          -14.0817032311       31.3514805461        2.6238151240  LPSA21    1               0.0000000000
     22481       721  ECLIPA    C110          -15.9230941476       30.2512807858        2.1045801788  LPSA21    1               0.0000000000
     22482       721  ECLIPA    H110R         -16.6298758528       29.4912525785        2.4416701971  LPSA21    1               0.0000000000
     22483       721  ECLIPA    H110S         -16.3701405680       31.2683161569        2.1583327743  LPSA21    1               0.0000000000
     22484       721  ECLIPA    C111          -15.4612378625       29.9755674321        0.7563571155  LPSA21    1               0.0000000000
     22485       721  ECLIPA    H111R         -14.6088366438       30.6188995185        0.3999767799  LPSA21    1               0.0000000000
     22486       721  ECLIPA    H111S         -15.0429619060       29.0035509386        0.7977177860  LPSA21    1               0.0000000000
     22487       721  ECLIPA    C112          -16.5829569538       29.9525818592       -0.2937360943  LPSA21    1               0.0000000000
     22488       721  ECLIPA    H112R         -17.2525515121       29.1989159823        0.1973446929  LPSA21    1               0.0000000000
     22489       721  ECLIPA    H112S         -17.2131585419       30.8422693052       -0.2177998937  LPSA21    1               0.0000000000
     22490       721  ECLIPA    C113          -16.0867491583       29.8771091583       -1.7468031795  LPSA21    1               0.0000000000
     22491       721  ECLIPA    H113R         -15.5565367987       30.8292537673       -1.9802017524  LPSA21    1               0.0000000000
     22492       721  ECLIPA    H113S         -15.3066033425       29.1166322186       -1.8531093719  LPSA21    1               0.0000000000
     22493       721  ECLIPA    C114          -17.0589989019       29.4959043622       -2.8344928043  LPSA21    1               0.0000000000
     22494       721  ECLIPA    H114R         -17.6833792845       28.6081405635       -2.7829422503  LPSA21    1               0.0000000000
     22495       721  ECLIPA    H114S         -17.7887678356       30.3381072606       -2.9951089580  LPSA21    1               0.0000000000
     22496       721  ECLIPA    H114T         -16.4914053490       29.2051859718       -3.7399523103  LPSA21    1               0.0000000000
     22497       722  AKDO      C1            -21.3388813156       33.7926687210       22.4410509549  LPSA21    2               0.0000000000
     22498       722  AKDO      O11           -22.6155448202       33.7391269512       22.4913720772  LPSA21    2               0.0000000000
     22499       722  AKDO      O12           -20.5751221496       34.7317015947       22.0800765534  LPSA21    2               0.0000000000
     22500       722  AKDO      C2            -20.6215297887       32.5161764817       22.8913181237  LPSA21    2               0.0000000000
     22501       722  AKDO      C6            -21.0316772829       30.3709477127       23.8039205188  LPSA21    2               0.0000000000
     22502       722  AKDO      H6            -20.6084241005       29.9125520369       22.9487387861  LPSA21    2               0.0000000000
     22503       722  AKDO      O6            -21.5987054298       31.6896739492       23.4267274814  LPSA21    2               0.0000000000
     22504       722  AKDO      C3            -19.6252129180       32.7516576973       23.9587385105  LPSA21    2               0.0000000000
     22505       722  AKDO      H31           -19.9795228800       33.2883604595       24.7868435866  LPSA21    2               0.0000000000
     22506       722  AKDO      H32           -18.7304167750       33.3245655152       23.4151264596  LPSA21    2               0.0000000000
     22507       722  AKDO      C4            -18.9970104775       31.4274612261       24.3842593775  LPSA21    2               0.0000000000
     22508       722  AKDO      H4            -18.5903898267       30.8733116725       23.5563617270  LPSA21    2               0.0000000000
     22509       722  AKDO      O4            -17.9718255104       31.6765101645       25.3355834555  LPSA21    2               0.0000000000
     22510       722  AKDO      C5            -19.9696607350       30.4814761805       24.9292437177  LPSA21    2               0.0000000000
     22511       722  AKDO      H5            -19.5208953073       29.4564545063       25.0107888161  LPSA21    2               0.0000000000
     22512       722  AKDO      O5            -20.4885477531       31.0435986099       26.2083878813  LPSA21    2               0.0000000000
     22513       722  AKDO      C7            -22.1624653972       29.3136074752       24.1981149098  LPSA21    2               0.0000000000
     22514       722  AKDO      H7            -22.6623368499       29.6766094204       25.0939202098  LPSA21    2               0.0000000000
     22515       722  AKDO      O7            -21.6208152237       27.9747652504       24.3482682347  LPSA21    2               0.0000000000
     22516       722  AKDO      HO7           -21.4843383027       27.6635882731       23.4945166536  LPSA21    2               0.0000000000
     22517       722  AKDO      C8            -23.1553868957       29.2781744976       22.9864433882  LPSA21    2               0.0000000000
     22518       722  AKDO      H81           -23.5385848362       30.3242726150       22.9153150275  LPSA21    2               0.0000000000
     22519       722  AKDO      H82           -22.5449050179       28.9259351743       22.0745354517  LPSA21    2               0.0000000000
     22520       722  AKDO      O8            -24.2737726861       28.3668863330       23.3537996748  LPSA21    2               0.0000000000
     22521       722  AKDO      HO8           -25.0981513268       28.7063331122       22.9179804014  LPSA21    2               0.0000000000
     22522       723  AKDO      C1            -16.2261670679       31.2011176859       23.8027969005  LPSA21    3               1.0000000000
     22523       723  AKDO      O11           -16.2639048847       31.7213334117       22.6471489042  LPSA21    3               1.0000000000
     22524       723  AKDO      O12           -15.8450217237       30.0356287822       24.0656860145  LPSA21    3               1.0000000000
     22525       723  AKDO      C2            -16.6397148020       32.0210872065       25.0166033796  LPSA21    3               1.0000000000
     22526       723  AKDO      C6            -17.0537669461       34.2665455486       25.7688829792  LPSA21    3               1.0000000000
     22527       723  AKDO      H6            -18.1469607515       34.0297165686       25.9810553331  LPSA21    3               1.0000000000
     22528       723  AKDO      O6            -16.5842886307       33.4576107043       24.7076657818  LPSA21    3               1.0000000000
     22529       723  AKDO      C3            -15.8347488198       31.7651625150       26.3187707743  LPSA21    3               1.0000000000
     22530       723  AKDO      H31           -14.7139165482       32.0433847524       26.1504935106  LPSA21    3               1.0000000000
     22531       723  AKDO      H32           -15.8599407372       30.7014628640       26.5929217108  LPSA21    3               1.0000000000
     22532       723  AKDO      C4            -16.4075617182       32.6410396997       27.4036122013  LPSA21    3               1.0000000000
     22533       723  AKDO      H4            -17.4907960521       32.4857300950       27.4051754129  LPSA21    3               1.0000000000
     22534       723  AKDO      O4            -15.9389015411       32.4016667346       28.7388570077  LPSA21    3               1.0000000000
     22535       723  AKDO      HO4           -16.6136242824       32.1881392983       29.3717785514  LPSA21    3               1.0000000000
     22536       723  AKDO      C5            -16.2838259325       34.0010684425       27.0369167275  LPSA21    3               1.0000000000
     22537       723  AKDO      H5            -16.6372842359       34.6509168162       27.9236884022  LPSA21    3               1.0000000000
     22538       723  AKDO      O5            -14.9000198930       34.3526156950       26.8495261943  LPSA21    3               1.0000000000
     22539       723  AKDO      HO5           -14.5203640945       33.8112467570       26.1887877298  LPSA21    3               1.0000000000
     22540       723  AKDO      C7            -16.9346184638       35.7032347473       25.3258859863  LPSA21    3               1.0000000000
     22541       723  AKDO      H7            -15.8593755470       35.9884290005       25.1324849511  LPSA21    3               1.0000000000
     22542       723  AKDO      O7            -17.4922388269       36.5526144285       26.3661029982  LPSA21    3               1.0000000000
     22543       723  AKDO      HO7           -17.2645067174       37.4848658112       26.1647669547  LPSA21    3               1.0000000000
     22544       723  AKDO      C8            -17.8092259262       35.8715683752       24.1539635864  LPSA21    3               1.0000000000
     22545       723  AKDO      H81           -17.4945167778       35.2029229883       23.3419478721  LPSA21    3               1.0000000000
     22546       723  AKDO      H82           -18.8891437975       35.7058995860       24.2853144505  LPSA21    3               1.0000000000
     22547       723  AKDO      O8            -17.6926248173       37.1847336245       23.6541307456  LPSA21    3               1.0000000000
     22548       723  AKDO      HO8           -16.8144239007       37.0617066000       23.2473452835  LPSA21    3               1.0000000000
     22549       724  AHEP      C1            -20.7942692562       30.1653437796       27.2793229502  LPSA21    4               2.0000000000
     22550       724  AHEP      H1            -21.8073198660       29.8685429733       26.8517192453  LPSA21    4               2.0000000000
     22551       724  AHEP      C5            -18.7457980784       29.1025430569       28.0185271385  LPSA21    4               2.0000000000
     22552       724  AHEP      H5            -18.2678464507       30.0542253058       27.5619054335  LPSA21    4               2.0000000000
     22553       724  AHEP      O5            -20.0198192810       28.9691908095       27.3942805697  LPSA21    4               2.0000000000
     22554       724  AHEP      C2            -21.0760806950       30.6378583461       28.6827861277  LPSA21    4               2.0000000000
     22555       724  AHEP      H2            -21.6298107694       31.5812554039       28.7442425996  LPSA21    4               2.0000000000
     22556       724  AHEP      O2            -21.8436195565       29.6958609675       29.3407203943  LPSA21    4               2.0000000000
     22557       724  AHEP      HO2           -22.5013388839       30.1294929722       29.8507927467  LPSA21    4               2.0000000000
     22558       724  AHEP      C3            -19.7729212789       30.8248013676       29.4857672188  LPSA21    4               2.0000000000
     22559       724  AHEP      H3            -19.1689451773       31.7053386909       29.2269906369  LPSA21    4               2.0000000000
     22560       724  AHEP      O3            -20.0649530223       31.0740295139       30.7882097304  LPSA21    4               2.0000000000
     22561       724  AHEP      C4            -18.9820841884       29.5421803874       29.4546205599  LPSA21    4               2.0000000000
     22562       724  AHEP      H4            -19.4496479714       28.6714804992       29.9788637739  LPSA21    4               2.0000000000
     22563       724  AHEP      O4            -17.7227345787       29.7715734227       30.0145912217  LPSA21    4               2.0000000000
     22564       724  AHEP      P4            -17.2775906739       29.1683373152       31.4978499249  LPSA21    4               2.0000000000
     22565       724  AHEP      OP42          -16.3713321939       30.1318767778       32.1560374192  LPSA21    4               2.0000000000
     22566       724  AHEP      OP43          -16.5743459992       27.9246340244       31.0397938518  LPSA21    4               2.0000000000
     22567       724  AHEP      OP44          -18.5541691563       28.7850046148       32.3098937101  LPSA21    4               2.0000000000
     22568       724  AHEP      C6            -17.8547735024       27.8274925153       27.7982482844  LPSA21    4               2.0000000000
     22569       724  AHEP      H6            -16.8038337174       28.1382747766       28.0833143566  LPSA21    4               2.0000000000
     22570       724  AHEP      O6            -18.3114692480       26.8252816787       28.7103505027  LPSA21    4               2.0000000000
     22571       724  AHEP      HO6           -17.5618406374       26.4165150272       29.2203787365  LPSA21    4               2.0000000000
     22572       724  AHEP      C7            -17.8258711529       27.3221989684       26.3054198206  LPSA21    4               2.0000000000
     22573       724  AHEP      H71           -17.0424244303       26.5064947096       26.1576126064  LPSA21    4               2.0000000000
     22574       724  AHEP      H72           -17.7263741403       28.1972924650       25.6323487339  LPSA21    4               2.0000000000
     22575       724  AHEP      O7            -19.0570238492       26.6858675090       25.9755159574  LPSA21    4               2.0000000000
     22576       724  AHEP      HO7           -19.0231371137       25.7814941036       26.3256794122  LPSA21    4               2.0000000000
     22577       725  AHEP      C1            -19.6467535855       32.2979670291       31.4342177374  LPSA21    5               3.0000000000
     22578       725  AHEP      H1            -18.7030181939       32.6986236014       30.9794447437  LPSA21    5               3.0000000000
     22579       725  AHEP      C5            -21.8808390855       32.9705852636       31.9165413065  LPSA21    5               3.0000000000
     22580       725  AHEP      H5            -22.1537917836       31.9061637047       31.6031509785  LPSA21    5               3.0000000000
     22581       725  AHEP      O5            -20.6508635532       33.3206917900       31.3013865768  LPSA21    5               3.0000000000
     22582       725  AHEP      C2            -19.3869244238       32.1579152259       32.9718957084  LPSA21    5               3.0000000000
     22583       725  AHEP      H2            -18.6446861073       31.3044208783       33.0921707216  LPSA21    5               3.0000000000
     22584       725  AHEP      O2            -18.7983870148       33.3451862640       33.4691025827  LPSA21    5               3.0000000000
     22585       725  AHEP      HO2           -17.8723872598       33.2058914988       33.6403503244  LPSA21    5               3.0000000000
     22586       725  AHEP      C3            -20.6819719583       31.7429568115       33.7004304811  LPSA21    5               3.0000000000
     22587       725  AHEP      H3            -21.0368672291       30.7720216013       33.3375632548  LPSA21    5               3.0000000000
     22588       725  AHEP      O3            -20.5867752072       31.6035127304       35.1462238331  LPSA21    5               3.0000000000
     22589       725  AHEP      C4            -21.6774459955       32.8236751325       33.4524658705  LPSA21    5               3.0000000000
     22590       725  AHEP      H4            -21.3244479950       33.8183994431       33.8188816395  LPSA21    5               3.0000000000
     22591       725  AHEP      O4            -22.9350808751       32.4336270918       34.0881196202  LPSA21    5               3.0000000000
     22592       725  AHEP      P4            -23.5452896605       33.2977605460       35.2810123301  LPSA21    5               3.0000000000
     22593       725  AHEP      OP42          -24.7027508086       32.4908842257       35.8202965042  LPSA21    5               3.0000000000
     22594       725  AHEP      OP43          -24.0168928891       34.6152863282       34.6107506294  LPSA21    5               3.0000000000
     22595       725  AHEP      OP44          -22.4179429835       33.5691105104       36.2417033353  LPSA21    5               3.0000000000
     22596       725  AHEP      C6            -23.0372279851       33.9132582326       31.5493607386  LPSA21    5               3.0000000000
     22597       725  AHEP      H6            -24.0001289738       33.5584495068       31.9533288164  LPSA21    5               3.0000000000
     22598       725  AHEP      O6            -22.7787150125       35.2232702675       32.0428602265  LPSA21    5               3.0000000000
     22599       725  AHEP      HO6           -22.1126661288       35.7598736529       31.5367188277  LPSA21    5               3.0000000000
     22600       725  AHEP      C7            -23.2983923578       33.8487976072       30.0822725317  LPSA21    5               3.0000000000
     22601       725  AHEP      H71           -24.3879394394       33.9982228664       29.9169108581  LPSA21    5               3.0000000000
     22602       725  AHEP      H72           -23.0318813297       32.8807856071       29.6179339851  LPSA21    5               3.0000000000
     22603       725  AHEP      O7            -22.6502295530       34.9972215778       29.4957736452  LPSA21    5               3.0000000000
     22604       726  AHEP      C1            -21.4836361223       34.6919741290       28.7926622005  LPSA21    6               4.0000000000
     22605       726  AHEP      H1            -21.1346416266       33.6303114619       29.0422981953  LPSA21    6               4.0000000000
     22606       726  AHEP      C5            -22.1078090500       36.0390506742       26.9237617191  LPSA21    6               4.0000000000
     22607       726  AHEP      H5            -23.0099487503       36.3258330583       27.4818042043  LPSA21    6               4.0000000000
     22608       726  AHEP      O5            -21.6600064116       34.7441593730       27.3547530115  LPSA21    6               4.0000000000
     22609       726  AHEP      C2            -20.3914107647       35.6235698790       29.2397872647  LPSA21    6               4.0000000000
     22610       726  AHEP      H2            -20.2556650062       35.4640959364       30.3523091474  LPSA21    6               4.0000000000
     22611       726  AHEP      O2            -19.1342414629       35.2653317556       28.7267108980  LPSA21    6               4.0000000000
     22612       726  AHEP      HO2           -18.6702222032       34.9259946110       29.4669064354  LPSA21    6               4.0000000000
     22613       726  AHEP      C3            -20.8065006902       37.0636011533       28.8468391403  LPSA21    6               4.0000000000
     22614       726  AHEP      H3            -21.7029248548       37.3056093326       29.4311808254  LPSA21    6               4.0000000000
     22615       726  AHEP      O3            -19.7849225794       38.1108257254       29.2225362108  LPSA21    6               4.0000000000
     22616       726  AHEP      HO3           -19.9443714597       38.5957234636       29.9865592523  LPSA21    6               4.0000000000
     22617       726  AHEP      C4            -21.0218482985       37.0578672262       27.2761740859  LPSA21    6               4.0000000000
     22618       726  AHEP      H4            -20.0611621099       36.9420554684       26.7944950683  LPSA21    6               4.0000000000
     22619       726  AHEP      O4            -21.4408591975       38.3434552699       26.7938835778  LPSA21    6               4.0000000000
     22620       726  AHEP      HO4           -22.4053558889       38.4066756132       27.1589530594  LPSA21    6               4.0000000000
     22621       726  AHEP      C6            -22.5487280836       36.0678355815       25.4906533340  LPSA21    6               4.0000000000
     22622       726  AHEP      H6            -22.9510580365       37.0642374581       25.3442628137  LPSA21    6               4.0000000000
     22623       726  AHEP      O6            -21.4031376310       36.0268264868       24.6375675438  LPSA21    6               4.0000000000
     22624       726  AHEP      HO6           -21.4711933830       35.3121010050       23.9977784313  LPSA21    6               4.0000000000
     22625       726  AHEP      C7            -23.6518006732       35.0985599451       25.1799756221  LPSA21    6               4.0000000000
     22626       726  AHEP      H71           -24.0136058012       35.3259630934       24.1408078076  LPSA21    6               4.0000000000
     22627       726  AHEP      H72           -24.4438827163       35.2920577736       25.9252229174  LPSA21    6               4.0000000000
     22628       726  AHEP      O7            -23.2697920908       33.7567064307       25.2517430265  LPSA21    6               4.0000000000
     22629       726  AHEP      HO7           -23.3563731795       33.5337492591       26.2011285002  LPSA21    6               4.0000000000
     22630       727  AGLC      C1            -20.1841817012       30.3389296367       35.6520976122  LPSA21    7               4.0000000000
     22631       727  AGLC      H1            -20.8584819375       29.5298771562       35.2047739589  LPSA21    7               4.0000000000
     22632       727  AGLC      C5            -17.9355325654       30.8941965492       36.0987679218  LPSA21    7               4.0000000000
     22633       727  AGLC      H5            -18.1098120227       31.9466962776       35.8327124756  LPSA21    7               4.0000000000
     22634       727  AGLC      O5            -18.8302258275       30.0631466861       35.4366254460  LPSA21    7               4.0000000000
     22635       727  AGLC      C2            -20.3807803011       30.2549633433       37.1582745954  LPSA21    7               4.0000000000
     22636       727  AGLC      H2            -19.9668847544       29.2353657419       37.4887389927  LPSA21    7               4.0000000000
     22637       727  AGLC      O2            -21.7741978143       30.1284303665       37.5024056006  LPSA21    7               4.0000000000
     22638       727  AGLC      HO2           -22.0794821301       31.0218318801       37.6430208865  LPSA21    7               4.0000000000
     22639       727  AGLC      C3            -19.5464727216       31.0986708092       37.9903802326  LPSA21    7               4.0000000000
     22640       727  AGLC      H3            -19.7982119744       32.1113066451       37.6727250444  LPSA21    7               4.0000000000
     22641       727  AGLC      O3            -19.8235809034       31.1132156795       39.4204481292  LPSA21    7               4.0000000000
     22642       727  AGLC      C4            -18.1513313515       30.7136618785       37.5928595998  LPSA21    7               4.0000000000
     22643       727  AGLC      H4            -17.9124814808       29.6470380370       37.9560286200  LPSA21    7               4.0000000000
     22644       727  AGLC      O4            -17.3012177412       31.6951650196       38.2243117391  LPSA21    7               4.0000000000
     22645       727  AGLC      HO4           -16.5336268019       31.3340764189       38.6132003238  LPSA21    7               4.0000000000
     22646       727  AGLC      C6            -16.5106236860       30.6939307776       35.5245160098  LPSA21    7               4.0000000000
     22647       727  AGLC      H61           -16.5993594269       30.8038685498       34.4135318240  LPSA21    7               4.0000000000
     22648       727  AGLC      H62           -15.7076429915       31.3785159984       35.8722646349  LPSA21    7               4.0000000000
     22649       727  AGLC      O6            -16.1628264855       29.2854778062       35.6892983147  LPSA21    7               4.0000000000
     22650       727  AGLC      HO6           -15.6339210304       29.3526970613       36.4386090630  LPSA21    7               4.0000000000
     22651       728  AGLC      C1            -20.3020455385       32.3058699437       39.9328324507  LPSA21    8               5.0000000000
     22652       728  AGLC      H1            -19.6725936748       33.1449085311       39.5884769495  LPSA21    8               5.0000000000
     22653       728  AGLC      C5            -22.6926896315       31.6984240611       40.2153373402  LPSA21    8               5.0000000000
     22654       728  AGLC      H5            -22.4543016025       30.6958509272       39.8400606936  LPSA21    8               5.0000000000
     22655       728  AGLC      O5            -21.7088854956       32.5878330494       39.6195505863  LPSA21    8               5.0000000000
     22656       728  AGLC      C2            -20.1965711120       32.3267745301       41.4170311384  LPSA21    8               5.0000000000
     22657       728  AGLC      H2            -20.4459341111       33.3860046800       41.6529594578  LPSA21    8               5.0000000000
     22658       728  AGLC      O2            -18.8785878412       32.2254161460       41.9438754185  LPSA21    8               5.0000000000
     22659       728  AGLC      C3            -21.1260900248       31.4121712888       42.1297388169  LPSA21    8               5.0000000000
     22660       728  AGLC      H3            -20.7960146432       30.4368185210       41.6567950186  LPSA21    8               5.0000000000
     22661       728  AGLC      O3            -20.8594686645       31.4339353597       43.5370978028  LPSA21    8               5.0000000000
     22662       728  AGLC      C4            -22.4810376623       31.7965288583       41.7603093222  LPSA21    8               5.0000000000
     22663       728  AGLC      H4            -22.6797947483       32.8145094480       42.0401368658  LPSA21    8               5.0000000000
     22664       728  AGLC      O4            -23.4300032058       30.9694094619       42.3914819843  LPSA21    8               5.0000000000
     22665       728  AGLC      HO4           -23.1092492831       30.1009759489       42.3800652601  LPSA21    8               5.0000000000
     22666       728  AGLC      C6            -24.1531396358       31.8721029821       39.7357334439  LPSA21    8               5.0000000000
     22667       728  AGLC      H61           -24.2580775744       31.9842371838       38.6468043611  LPSA21    8               5.0000000000
     22668       728  AGLC      H62           -24.8218801823       31.0838866797       40.0276014644  LPSA21    8               5.0000000000
     22669       728  AGLC      O6            -24.8137995196       32.9642166650       40.3040784562  LPSA21    8               5.0000000000
     22670       728  AGLC      HO6           -25.1250047524       32.7805098208       41.2121845210  LPSA21    8               5.0000000000
     22671       729  AGAL      C1            -17.8766225182       33.0662831009       41.4573847493  LPSA21    9               6.0000000000
     22672       729  AGAL      H1            -17.9107083487       33.1001933660       40.3420235153  LPSA21    9               6.0000000000
     22673       729  AGAL      C5            -17.7098104439       34.5922402640       43.2125447641  LPSA21    9               6.0000000000
     22674       729  AGAL      H5            -18.3838030097       33.8113615118       43.7424973645  LPSA21    9               6.0000000000
     22675       729  AGAL      O5            -17.9114971716       34.4745419819       41.8451689838  LPSA21    9               6.0000000000
     22676       729  AGAL      C2            -16.5440037332       32.4785452473       41.8393925249  LPSA21    9               6.0000000000
     22677       729  AGAL      H2            -15.7556294100       33.0811582012       41.4115621152  LPSA21    9               6.0000000000
     22678       729  AGAL      O2            -16.2869415237       31.2346859327       41.1608705954  LPSA21    9               6.0000000000
     22679       729  AGAL      C3            -16.2867313351       32.5885993831       43.3264191845  LPSA21    9               6.0000000000
     22680       729  AGAL      H3            -17.0489946990       31.9397944731       43.9424563891  LPSA21    9               6.0000000000
     22681       729  AGAL      O3            -15.1076054569       31.9726365077       43.7491515633  LPSA21    9               6.0000000000
     22682       729  AGAL      HO3           -14.9791694457       31.2158922126       43.1585960960  LPSA21    9               6.0000000000
     22683       729  AGAL      C4            -16.3504199749       34.0271812701       43.6505755014  LPSA21    9               6.0000000000
     22684       729  AGAL      H4            -16.2782923798       34.2326235055       44.7734818408  LPSA21    9               6.0000000000
     22685       729  AGAL      O4            -15.3675599149       34.8127345978       43.0499075873  LPSA21    9               6.0000000000
     22686       729  AGAL      HO4           -15.1887460884       35.5431554858       43.6622427513  LPSA21    9               6.0000000000
     22687       729  AGAL      C6            -18.1871373901       35.9051613172       43.8349081587  LPSA21    9               6.0000000000
     22688       729  AGAL      H61           -19.2686673292       36.1254112217       43.6417203355  LPSA21    9               6.0000000000
     22689       729  AGAL      H62           -18.1221692180       35.9446626579       44.9292747136  LPSA21    9               6.0000000000
     22690       729  AGAL      O6            -17.4128577039       36.9844539800       43.4062227539  LPSA21    9               6.0000000000
     22691       729  AGAL      HO6           -17.9107241151       37.4239211026       42.6923548993  LPSA21    9               6.0000000000
     22692       730  AGAL      C1            -15.8351366427       29.9935248961       41.7517281777  LPSA21    10              7.0000000000
     22693       730  AGAL      H1            -14.7508813648       30.1431465422       41.8429972083  LPSA21    10              7.0000000000
     22694       730  AGAL      C5            -17.7081671832       29.2404766918       43.0613392294  LPSA21    10              7.0000000000
     22695       730  AGAL      H5            -18.2613585674       30.1843013271       42.6233508762  LPSA21    10              7.0000000000
     22696       730  AGAL      O5            -16.2947422076       29.5179961076       43.0470213554  LPSA21    10              7.0000000000
     22697       730  AGAL      C2            -16.1431551747       28.8902733968       40.7227968417  LPSA21    10              7.0000000000
     22698       730  AGAL      H2            -15.4859690511       27.9918175255       41.0433947026  LPSA21    10              7.0000000000
     22699       730  AGAL      O2            -15.4627424584       29.0385647885       39.5532095562  LPSA21    10              7.0000000000
     22700       730  AGAL      HO2           -14.9748387364       28.2530125236       39.3379401176  LPSA21    10              7.0000000000
     22701       730  AGAL      C3            -17.5887843259       28.5434675013       40.6928251787  LPSA21    10              7.0000000000
     22702       730  AGAL      H3            -18.0686793714       29.4937659317       40.4679648945  LPSA21    10              7.0000000000
     22703       730  AGAL      O3            -17.9483119095       27.5564945389       39.7732034444  LPSA21    10              7.0000000000
     22704       730  AGAL      HO3           -18.4005550598       28.0025889989       39.0151094934  LPSA21    10              7.0000000000
     22705       730  AGAL      C4            -18.0126923072       28.1037356681       42.0524071915  LPSA21    10              7.0000000000
     22706       730  AGAL      H4            -19.1056316401       27.9366464558       42.1099272557  LPSA21    10              7.0000000000
     22707       730  AGAL      O4            -17.3959153950       26.9304444910       42.4965010455  LPSA21    10              7.0000000000
     22708       730  AGAL      HO4           -16.4885755261       27.1669059187       42.5675127347  LPSA21    10              7.0000000000
     22709       730  AGAL      C6            -18.3430545021       29.0139715787       44.3959537205  LPSA21    10              7.0000000000
     22710       730  AGAL      H61           -18.1048902432       29.8014475491       45.1044438806  LPSA21    10              7.0000000000
     22711       730  AGAL      H62           -19.5261749025       29.1072976326       44.2564473849  LPSA21    10              7.0000000000
     22712       730  AGAL      O6            -18.1198006970       27.7804020471       45.1112340130  LPSA21    10              7.0000000000
     22713       730  AGAL      HO6           -17.6253181949       27.9923449715       45.9237589285  LPSA21    10              7.0000000000
     22714       731  BGLC      C1            -21.5190621093       32.2337552527       44.5018065681  LPSA21    11              6.0000000000
     22715       731  BGLC      H1            -22.4768710137       31.7424210129       44.5883763758  LPSA21    11              6.0000000000
     22716       731  BGLC      C5            -22.2405714209       34.5509946463       45.1248117688  LPSA21    11              6.0000000000
     22717       731  BGLC      H5            -23.3106569658       34.2355729189       45.3871201921  LPSA21    11              6.0000000000
     22718       731  BGLC      O5            -21.5769841367       33.6554378610       44.0830650888  LPSA21    11              6.0000000000
     22719       731  BGLC      C2            -20.7511130726       32.1755390854       45.7977571702  LPSA21    11              6.0000000000
     22720       731  BGLC      H2            -19.6780349748       32.4861652535       45.7293388291  LPSA21    11              6.0000000000
     22721       731  BGLC      O2            -20.6514084815       30.7890621734       46.0886391483  LPSA21    11              6.0000000000
     22722       731  BGLC      HO2           -19.7564804492       30.5829333718       46.2788110113  LPSA21    11              6.0000000000
     22723       731  BGLC      C3            -21.3151600113       33.0073350570       46.8736276645  LPSA21    11              6.0000000000
     22724       731  BGLC      H3            -22.3396782914       32.5436319831       47.1984917368  LPSA21    11              6.0000000000
     22725       731  BGLC      O3            -20.4615783046       32.8858082342       48.0056213318  LPSA21    11              6.0000000000
     22726       731  BGLC      C4            -21.4185284330       34.3848611425       46.4390836423  LPSA21    11              6.0000000000
     22727       731  BGLC      H4            -20.3525614579       34.7181213830       46.2001611147  LPSA21    11              6.0000000000
     22728       731  BGLC      O4            -21.8714719342       35.2387414107       47.4766894645  LPSA21    11              6.0000000000
     22729       731  BGLC      HO4           -21.1622080674       35.3241342109       48.1247908570  LPSA21    11              6.0000000000
     22730       731  BGLC      C6            -22.4331734311       35.9563281769       44.5291127165  LPSA21    11              6.0000000000
     22731       731  BGLC      H61           -22.5879710621       36.7493019034       45.2481190913  LPSA21    11              6.0000000000
     22732       731  BGLC      H62           -21.5371640406       36.1606418520       43.8913252379  LPSA21    11              6.0000000000
     22733       731  BGLC      O6            -23.5146180844       36.0640972267       43.5637942269  LPSA21    11              6.0000000000
     22734       731  BGLC      HO6           -24.1304460670       36.5999742601       44.0054369298  LPSA21    11              6.0000000000
     22735       732  BGLCNA    C1            -20.9510005896       32.5485012308       49.3238540420  LPSA21    12              7.0000000000
     22736       732  BGLCNA    H1            -20.9899793855       31.4089109874       49.3874222992  LPSA21    12              7.0000000000
     22737       732  BGLCNA    C5            -22.7750308075       32.6448115288       50.8763077070  LPSA21    12              7.0000000000
     22738       732  BGLCNA    H5            -22.8189022776       31.4691483689       50.9814236466  LPSA21    12              7.0000000000
     22739       732  BGLCNA    O5            -22.2694279474       33.0784176190       49.5875345322  LPSA21    12              7.0000000000
     22740       732  BGLCNA    C2            -19.9979721496       33.1125657010       50.3245054808  LPSA21    12              7.0000000000
     22741       732  BGLCNA    H2            -20.1795976543       34.2702171928       50.3375086743  LPSA21    12              7.0000000000
     22742       732  BGLCNA    N             -18.6212251872       32.6665930971       50.0347611965  LPSA21    12              7.0000000000
     22743       732  BGLCNA    HN            -18.6193480333       31.7226013588       49.9972643287  LPSA21    12              7.0000000000
     22744       732  BGLCNA    C             -17.6560849968       33.5230160648       49.8903426450  LPSA21    12              7.0000000000
     22745       732  BGLCNA    O             -17.8626937139       34.7124563719       50.0855928044  LPSA21    12              7.0000000000
     22746       732  BGLCNA    CT            -16.3019827003       32.9682830131       49.5677689528  LPSA21    12              7.0000000000
     22747       732  BGLCNA    HT1           -15.5815316210       33.1188064532       50.3918503408  LPSA21    12              7.0000000000
     22748       732  BGLCNA    HT2           -15.8037360031       33.6073474759       48.7104760971  LPSA21    12              7.0000000000
     22749       732  BGLCNA    HT3           -16.4614753994       31.9138631174       49.2316245990  LPSA21    12              7.0000000000
     22750       732  BGLCNA    C3            -20.3874462048       32.7234730773       51.6995695120  LPSA21    12              7.0000000000
     22751       732  BGLCNA    H3            -20.3017554482       31.5516836173       51.8605307917  LPSA21    12              7.0000000000
     22752       732  BGLCNA    O3            -19.4745009959       33.1969128455       52.7272334264  LPSA21    12              7.0000000000
     22753       732  BGLCNA    C4            -21.7765498512       33.2129347425       51.9591692987  LPSA21    12              7.0000000000
     22754       732  BGLCNA    H4            -21.8966145702       34.3605410581       51.9037868612  LPSA21    12              7.0000000000
     22755       732  BGLCNA    O4            -22.2206085072       32.8694877929       53.2294962294  LPSA21    12              7.0000000000
     22756       732  BGLCNA    HO4           -22.4700961583       31.9009048282       53.2834945119  LPSA21    12              7.0000000000
     22757       732  BGLCNA    C6            -24.2456073965       33.1029507814       50.9528560558  LPSA21    12              7.0000000000
     22758       732  BGLCNA    H61           -24.6526601566       32.8910303881       51.9144325068  LPSA21    12              7.0000000000
     22759       732  BGLCNA    H62           -24.1734839720       34.1778357978       50.8287962869  LPSA21    12              7.0000000000
     22760       732  BGLCNA    O6            -24.9735939580       32.6028427201       49.8597561973  LPSA21    12              7.0000000000
     22761       732  BGLCNA    HO6           -25.2996701767       31.7769401471       50.1903398796  LPSA21    12              7.0000000000
     22762       733  AGAL      C1            -19.1805330017       32.2600065984       53.8132743488  LPSA21    13              8.0000000000
     22763       733  AGAL      H1            -20.1348145927       31.8342066335       54.1959401301  LPSA21    13              8.0000000000
     22764       733  AGAL      C5            -16.8463880550       31.9560815458       53.2950732168  LPSA21    13              8.0000000000
     22765       733  AGAL      H5            -17.0202898005       32.7427590118       52.5641412600  LPSA21    13              8.0000000000
     22766       733  AGAL      O5            -18.1099796986       31.3019605870       53.4918445955  LPSA21    13              8.0000000000
     22767       733  AGAL      C2            -18.6406251519       32.9412889042       55.1010141246  LPSA21    13              8.0000000000
     22768       733  AGAL      H2            -18.2840804770       32.1509850461       55.7917211299  LPSA21    13              8.0000000000
     22769       733  AGAL      O2            -19.6299033445       33.6950548801       55.7701983428  LPSA21    13              8.0000000000
     22770       733  AGAL      C3            -17.2716695652       33.6345214540       54.8979691660  LPSA21    13              8.0000000000
     22771       733  AGAL      H3            -17.3524209404       34.3043152590       54.0477453328  LPSA21    13              8.0000000000
     22772       733  AGAL      O3            -16.9205401655       34.4992009256       55.9888739531  LPSA21    13              8.0000000000
     22773       733  AGAL      HO3           -16.5100825231       35.3022955021       55.6848713412  LPSA21    13              8.0000000000
     22774       733  AGAL      C4            -16.2820516344       32.6764070671       54.5514025965  LPSA21    13              8.0000000000
     22775       733  AGAL      H4            -15.3101428066       33.1912506144       54.1954731349  LPSA21    13              8.0000000000
     22776       733  AGAL      O4            -16.0036236656       31.7453528892       55.5743212917  LPSA21    13              8.0000000000
     22777       733  AGAL      HO4           -16.7618978012       31.3751138031       56.0499681296  LPSA21    13              8.0000000000
     22778       733  AGAL      C6            -15.8100801937       31.1563228875       52.5301443486  LPSA21    13              8.0000000000
     22779       733  AGAL      H61           -16.2669307013       30.7317610595       51.6253596531  LPSA21    13              8.0000000000
     22780       733  AGAL      H62           -14.9171247190       31.8100924499       52.3684678279  LPSA21    13              8.0000000000
     22781       733  AGAL      O6            -15.3311937775       30.0718055002       53.2985910507  LPSA21    13              8.0000000000
     22782       733  AGAL      HO6           -14.6758409487       30.4074498821       53.9299633642  LPSA21    13              8.0000000000
     22783       734  ARHM      C1            -20.1193514032       33.2733075897       57.0117786358  LPSA21    14              9.0000000000
     22784       734  ARHM      H1            -20.0027898289       32.1697537250       56.9981767125  LPSA21    14              9.0000000000
     22785       734  ARHM      C5            -21.7469699122       34.9277535218       57.1930138837  LPSA21    14              9.0000000000
     22786       734  ARHM      H5            -21.3470873133       35.3531375942       56.1976867078  LPSA21    14              9.0000000000
     22787       734  ARHM      O5            -21.4970461983       33.5720029052       57.1718909996  LPSA21    14              9.0000000000
     22788       734  ARHM      C2            -19.2980581661       33.9329563602       58.1413490634  LPSA21    14              9.0000000000
     22789       734  ARHM      H2            -18.2713132580       33.7015321926       57.8875987320  LPSA21    14              9.0000000000
     22790       734  ARHM      O2            -19.6177399839       33.5137685103       59.4330148990  LPSA21    14              9.0000000000
     22791       734  ARHM      C3            -19.5267602316       35.4164354959       58.1095432995  LPSA21    14              9.0000000000
     22792       734  ARHM      H3            -19.3829997627       35.7636288466       57.0440121713  LPSA21    14              9.0000000000
     22793       734  ARHM      O3            -18.6196210232       36.1668511980       58.8567888868  LPSA21    14              9.0000000000
     22794       734  ARHM      HO3           -18.8850475244       36.0176430449       59.8104957846  LPSA21    14              9.0000000000
     22795       734  ARHM      C4            -20.9771769500       35.6317577787       58.3490442956  LPSA21    14              9.0000000000
     22796       734  ARHM      H4            -21.3973488207       35.2057904960       59.2902338481  LPSA21    14              9.0000000000
     22797       734  ARHM      O4            -21.2357097698       37.0596050262       58.4446785014  LPSA21    14              9.0000000000
     22798       734  ARHM      HO4           -21.5149536999       37.3899548710       59.2969967688  LPSA21    14              9.0000000000
     22799       734  ARHM      C6            -23.2633380988       35.1789988441       57.2492155848  LPSA21    14              9.0000000000
     22800       734  ARHM      H61           -23.8830530964       34.5289176128       56.5358243550  LPSA21    14              9.0000000000
     22801       734  ARHM      H62           -23.5419552078       35.0694260884       58.3170764683  LPSA21    14              9.0000000000
     22802       734  ARHM      H63           -23.6614960356       36.1490367771       56.9421594120  LPSA21    14              9.0000000000
     22803       735  ARHM      C1            -19.6662580160       32.2066417389       59.7267990175  LPSA21    15             10.0000000000
     22804       735  ARHM      H1            -19.0168680698       31.6151290008       59.0458905905  LPSA21    15             10.0000000000
     22805       735  ARHM      C5            -21.9718597998       32.1354706861       60.6468530148  LPSA21    15             10.0000000000
     22806       735  ARHM      H5            -22.2372983465       33.2209312285       60.4457705401  LPSA21    15             10.0000000000
     22807       735  ARHM      O5            -21.0020684498       31.6464033423       59.6688136410  LPSA21    15             10.0000000000
     22808       735  ARHM      C2            -19.1347848855       31.9816882218       61.1407671534  LPSA21    15             10.0000000000
     22809       735  ARHM      H2            -18.1200895246       32.5304250504       61.2133420761  LPSA21    15             10.0000000000
     22810       735  ARHM      O2            -18.9990701856       30.5411702732       61.3234079317  LPSA21    15             10.0000000000
     22811       735  ARHM      C3            -20.0864154739       32.5970037865       62.1677656617  LPSA21    15             10.0000000000
     22812       735  ARHM      H3            -20.2282118122       33.6711310760       61.8628392879  LPSA21    15             10.0000000000
     22813       735  ARHM      O3            -19.3335253591       32.6441623426       63.4092175029  LPSA21    15             10.0000000000
     22814       735  ARHM      C4            -21.3761187326       31.9401333398       62.0487117432  LPSA21    15             10.0000000000
     22815       735  ARHM      H4            -21.2093694477       30.7935728574       62.1496903561  LPSA21    15             10.0000000000
     22816       735  ARHM      O4            -22.4077510159       32.3196572738       62.9635513464  LPSA21    15             10.0000000000
     22817       735  ARHM      HO4           -23.0678747656       31.6429777386       62.9565205260  LPSA21    15             10.0000000000
     22818       735  ARHM      C6            -23.2863749291       31.4170523005       60.4460959132  LPSA21    15             10.0000000000
     22819       735  ARHM      H61           -24.1238722834       31.7859010173       61.0956562646  LPSA21    15             10.0000000000
     22820       735  ARHM      H62           -23.5085836248       31.3528218385       59.3910198679  LPSA21    15             10.0000000000
     22821       735  ARHM      H63           -23.2647845792       30.3689611850       60.8578185328  LPSA21    15             10.0000000000
     22822       736  BMANNA    C1            -18.4195119966       30.0328031430       62.5145562334  LPSA21    16             11.0000000000
     22823       736  BMANNA    H1            -19.2057774194       30.1907021085       63.3432051365  LPSA21    16             11.0000000000
     22824       736  BMANNA    C5            -16.7675159919       30.1294662920       64.1851548173  LPSA21    16             11.0000000000
     22825       736  BMANNA    H5            -17.5183708188       30.2277523831       64.9800677769  LPSA21    16             11.0000000000
     22826       736  BMANNA    O5            -17.2146232614       30.6741321915       62.9158851071  LPSA21    16             11.0000000000
     22827       736  BMANNA    C2            -18.1872391957       28.5221502281       62.2781089586  LPSA21    16             11.0000000000
     22828       736  BMANNA    H2            -19.1973505694       28.1279587332       61.9912908466  LPSA21    16             11.0000000000
     22829       736  BMANNA    N             -17.2498560162       28.1177569379       61.2264456342  LPSA21    16             11.0000000000
     22830       736  BMANNA    HN            -16.3421150091       28.0442514794       61.5688724990  LPSA21    16             11.0000000000
     22831       736  BMANNA    C             -17.5662668997       27.9220671088       59.9704010620  LPSA21    16             11.0000000000
     22832       736  BMANNA    O             -18.7564915281       27.9926969763       59.5582221915  LPSA21    16             11.0000000000
     22833       736  BMANNA    CT            -16.4222639982       27.6003058741       59.1331689300  LPSA21    16             11.0000000000
     22834       736  BMANNA    HT1           -16.3314659110       26.5677210094       58.8344492748  LPSA21    16             11.0000000000
     22835       736  BMANNA    HT2           -15.4404970668       27.8927174627       59.5043001239  LPSA21    16             11.0000000000
     22836       736  BMANNA    HT3           -16.4981507117       28.1185871665       58.1231520073  LPSA21    16             11.0000000000
     22837       736  BMANNA    C3            -17.7622975155       27.9609243807       63.6119771117  LPSA21    16             11.0000000000
     22838       736  BMANNA    H3            -18.5509171458       28.1594968886       64.3839812837  LPSA21    16             11.0000000000
     22839       736  BMANNA    O3            -17.6119252054       26.5704644059       63.6122488842  LPSA21    16             11.0000000000
     22840       736  BMANNA    HO3           -18.1375435105       26.1750448287       64.2950500102  LPSA21    16             11.0000000000
     22841       736  BMANNA    C4            -16.4676842571       28.6201264344       64.1045846713  LPSA21    16             11.0000000000
     22842       736  BMANNA    H4            -15.6223004516       28.4438739485       63.4124605202  LPSA21    16             11.0000000000
     22843       736  BMANNA    O4            -15.9590405125       28.1938315581       65.3816866120  LPSA21    16             11.0000000000
     22844       736  BMANNA    HO4           -15.0179672452       28.3543281430       65.4353184152  LPSA21    16             11.0000000000
     22845       736  BMANNA    C6            -15.5465050075       30.8722468569       64.7427751243  LPSA21    16             11.0000000000
     22846       736  BMANNA    H61           -15.6083561473       30.8085855299       65.8875394407  LPSA21    16             11.0000000000
     22847       736  BMANNA    H62           -14.6147965294       30.3903060628       64.4389269682  LPSA21    16             11.0000000000
     22848       736  BMANNA    O6            -15.4763751263       32.2619055601       64.3660927576  LPSA21    16             11.0000000000
     22849       736  BMANNA    HO6           -14.6098851758       32.2963781526       63.9036969990  LPSA21    16             11.0000000000
     22850       737  BGLCNA    C1            -19.5373261120       33.7356817323       64.1715778089  LPSA21    17             11.0000000000
     22851       737  BGLCNA    H1            -20.5849915624       34.1699330268       63.9082176002  LPSA21    17             11.0000000000
     22852       737  BGLCNA    C5            -18.7935227637       36.0313964648       64.5563394407  LPSA21    17             11.0000000000
     22853       737  BGLCNA    H5            -19.8104112534       36.5030392910       64.2825289487  LPSA21    17             11.0000000000
     22854       737  BGLCNA    O5            -18.6551114165       34.8285575355       63.7849982893  LPSA21    17             11.0000000000
     22855       737  BGLCNA    C2            -19.3444593937       33.3413693973       65.5899343931  LPSA21    17             11.0000000000
     22856       737  BGLCNA    H2            -18.2995697106       32.9445940841       65.8249043900  LPSA21    17             11.0000000000
     22857       737  BGLCNA    N             -20.1385210419       32.2179260915       65.8849826081  LPSA21    17             11.0000000000
     22858       737  BGLCNA    HN            -21.0362015740       32.1224479892       65.4150135415  LPSA21    17             11.0000000000
     22859       737  BGLCNA    C             -19.9808582181       31.2823291276       66.8043620798  LPSA21    17             11.0000000000
     22860       737  BGLCNA    O             -18.9576258925       31.1974116277       67.4729873017  LPSA21    17             11.0000000000
     22861       737  BGLCNA    CT            -21.1089471535       30.3370089037       66.9728872304  LPSA21    17             11.0000000000
     22862       737  BGLCNA    HT1           -21.0412206955       29.3171152590       66.5529393721  LPSA21    17             11.0000000000
     22863       737  BGLCNA    HT2           -22.0370528677       30.8776909285       66.7043805047  LPSA21    17             11.0000000000
     22864       737  BGLCNA    HT3           -21.2967818782       30.1377632830       68.1408097225  LPSA21    17             11.0000000000
     22865       737  BGLCNA    C3            -19.6093659375       34.5856529815       66.4076579941  LPSA21    17             11.0000000000
     22866       737  BGLCNA    H3            -20.6515284411       34.8766458690       66.0441361901  LPSA21    17             11.0000000000
     22867       737  BGLCNA    O3            -19.6973822547       34.1761337432       67.8205355914  LPSA21    17             11.0000000000
     22868       737  BGLCNA    C4            -18.5698958085       35.6386655786       66.0496966154  LPSA21    17             11.0000000000
     22869       737  BGLCNA    H4            -17.5058705362       35.2175102765       66.1123142204  LPSA21    17             11.0000000000
     22870       737  BGLCNA    O4            -18.6077512610       36.7524893120       66.9186044206  LPSA21    17             11.0000000000
     22871       737  BGLCNA    HO4           -18.0029650519       37.4573356135       66.7204061560  LPSA21    17             11.0000000000
     22872       737  BGLCNA    C6            -17.7235951049       37.0514635141       64.1200051697  LPSA21    17             11.0000000000
     22873       737  BGLCNA    H61           -18.1354120058       38.0418330528       64.1272946536  LPSA21    17             11.0000000000
     22874       737  BGLCNA    H62           -16.8330260161       37.0395128335       64.8212395067  LPSA21    17             11.0000000000
     22875       737  BGLCNA    O6            -17.2395689074       36.8048260766       62.7926115083  LPSA21    17             11.0000000000
     22876       737  BGLCNA    HO6           -17.9700629025       36.8455552323       62.1856770532  LPSA21    17             11.0000000000
     22877       738  AGAL      C1            -20.6661535101       34.9015734042       68.6198653987  LPSA21    18             12.0000000000
     22878       738  AGAL      H1            -20.2380555957       35.9304662091       68.8082567594  LPSA21    18             12.0000000000
     22879       738  AGAL      C5            -22.6225151753       33.7318020256       67.8636918791  LPSA21    18             12.0000000000
     22880       738  AGAL      H5            -21.9321420553       33.0170945669       67.4068928888  LPSA21    18             12.0000000000
     22881       738  AGAL      O5            -21.9196115058       35.0210305896       67.9834320655  LPSA21    18             12.0000000000
     22882       738  AGAL      C2            -20.9411350905       34.1918205455       70.0000206359  LPSA21    18             12.0000000000
     22883       738  AGAL      H2            -21.7098673389       34.8975283223       70.3908489884  LPSA21    18             12.0000000000
     22884       738  AGAL      O2            -19.8369254516       34.3101660639       70.8342757016  LPSA21    18             12.0000000000
     22885       738  AGAL      C3            -21.6163071950       32.8711807784       69.8682924558  LPSA21    18             12.0000000000
     22886       738  AGAL      H3            -21.0206422849       32.2341021132       69.0958348126  LPSA21    18             12.0000000000
     22887       738  AGAL      O3            -21.6741460216       32.1735448210       71.0758896640  LPSA21    18             12.0000000000
     22888       738  AGAL      HO3           -21.4122831368       31.2574796713       70.9682873819  LPSA21    18             12.0000000000
     22889       738  AGAL      C4            -22.8984291997       33.0577522280       69.1634745928  LPSA21    18             12.0000000000
     22890       738  AGAL      H4            -23.4518927718       32.1248245552       68.9039691178  LPSA21    18             12.0000000000
     22891       738  AGAL      O4            -23.8175003184       33.8366276943       69.9734134928  LPSA21    18             12.0000000000
     22892       738  AGAL      HO4           -24.1777735001       33.2476830229       70.7236544006  LPSA21    18             12.0000000000
     22893       738  AGAL      C6            -23.6222940974       33.8750381209       66.8042742825  LPSA21    18             12.0000000000
     22894       738  AGAL      H61           -23.0757002192       34.1027119182       65.8877991861  LPSA21    18             12.0000000000
     22895       738  AGAL      H62           -24.0720882241       32.8567701403       66.6499463921  LPSA21    18             12.0000000000
     22896       738  AGAL      O6            -24.5380165050       34.8304347434       66.9803033045  LPSA21    18             12.0000000000
     22897       738  AGAL      HO6           -24.3866874628       35.4677636579       67.6707071977  LPSA21    18             12.0000000000
     22898       739  ARHM      C1            -20.2661248194       34.6389115239       72.1803514454  LPSA21    19             13.0000000000
     22899       739  ARHM      H1            -21.2979562480       34.3852443170       72.3185909119  LPSA21    19             13.0000000000
     22900       739  ARHM      C5            -19.0663192401       36.6830961531       72.2512180912  LPSA21    19             13.0000000000
     22901       739  ARHM      H5            -18.7203354416       36.4409260603       71.2133247196  LPSA21    19             13.0000000000
     22902       739  ARHM      O5            -20.3374761829       36.0523064147       72.4162684983  LPSA21    19             13.0000000000
     22903       739  ARHM      C2            -19.3221795580       33.9705751544       73.1100514097  LPSA21    19             13.0000000000
     22904       739  ARHM      H2            -19.1590837007       32.9371773546       72.9420985559  LPSA21    19             13.0000000000
     22905       739  ARHM      O2            -19.7679115485       34.1224859159       74.4131644751  LPSA21    19             13.0000000000
     22906       739  ARHM      C3            -17.9419889874       34.6873732117       72.9859276785  LPSA21    19             13.0000000000
     22907       739  ARHM      H3            -17.6333323566       34.6024552214       71.9471750908  LPSA21    19             13.0000000000
     22908       739  ARHM      O3            -16.9837919488       34.0666547462       73.7644258584  LPSA21    19             13.0000000000
     22909       739  ARHM      HO3           -17.3605966913       33.9725606527       74.6464134549  LPSA21    19             13.0000000000
     22910       739  ARHM      C4            -18.0177985093       36.1328548092       73.2443334127  LPSA21    19             13.0000000000
     22911       739  ARHM      H4            -18.3937281837       36.2339804477       74.2703943704  LPSA21    19             13.0000000000
     22912       739  ARHM      O4            -16.8071597041       36.8176113061       73.1708570575  LPSA21    19             13.0000000000
     22913       739  ARHM      HO4           -16.5183999547       36.7520307618       72.2126258713  LPSA21    19             13.0000000000
     22914       739  ARHM      C6            -19.1910338981       38.2164602973       72.3031700958  LPSA21    19             13.0000000000
     22915       739  ARHM      H61           -19.9113069383       38.3859391892       71.5186681997  LPSA21    19             13.0000000000
     22916       739  ARHM      H62           -19.5769006167       38.6445499812       73.2001761489  LPSA21    19             13.0000000000
     22917       739  ARHM      H63           -18.2537817405       38.7371834671       72.0875448643  LPSA21    19             13.0000000000
     22918       740  ARHM      C1            -20.8309428505       33.2741575904       74.6981797177  LPSA21    20             14.0000000000
     22919       740  ARHM      H1            -20.9920497381       32.4845518433       73.8936196974  LPSA21    20             14.0000000000
     22920       740  ARHM      C5            -22.1869585931       34.7642199955       75.9960310464  LPSA21    20             14.0000000000
     22921       740  ARHM      H5            -21.3584986075       35.4938657683       75.8071112250  LPSA21    20             14.0000000000
     22922       740  ARHM      O5            -22.1143138651       33.8758164610       74.8741575474  LPSA21    20             14.0000000000
     22923       740  ARHM      C2            -20.5089122777       32.4520377339       75.9438944127  LPSA21    20             14.0000000000
     22924       740  ARHM      H2            -19.4265802380       32.0388373902       75.7904987900  LPSA21    20             14.0000000000
     22925       740  ARHM      O2            -21.4578102468       31.3951667698       76.2145535291  LPSA21    20             14.0000000000
     22926       740  ARHM      C3            -20.5832624763       33.3851128680       77.0746584307  LPSA21    20             14.0000000000
     22927       740  ARHM      H3            -19.7978987136       34.2207733483       76.9570890266  LPSA21    20             14.0000000000
     22928       740  ARHM      O3            -20.1802255037       32.6277967461       78.2431898216  LPSA21    20             14.0000000000
     22929       740  ARHM      C4            -21.9267356908       34.0188063351       77.2147849866  LPSA21    20             14.0000000000
     22930       740  ARHM      H4            -22.7211655237       33.3049228622       77.2882629629  LPSA21    20             14.0000000000
     22931       740  ARHM      O4            -21.9496398907       34.8040993292       78.4294019453  LPSA21    20             14.0000000000
     22932       740  ARHM      HO4           -22.5511043295       35.4278633452       78.0714846557  LPSA21    20             14.0000000000
     22933       740  ARHM      C6            -23.4675034505       35.4892442111       75.9818768401  LPSA21    20             14.0000000000
     22934       740  ARHM      H61           -24.4360399515       34.9087073887       76.0487105533  LPSA21    20             14.0000000000
     22935       740  ARHM      H62           -23.4664556727       36.2654578242       76.7492574554  LPSA21    20             14.0000000000
     22936       740  ARHM      H63           -23.6729423426       36.0620440645       75.0059134709  LPSA21    20             14.0000000000
     22937       741  BMANNA    C1            -21.0566648865       30.3166715653       75.4501725836  LPSA21    21             15.0000000000
     22938       741  BMANNA    H1            -20.2686058868       30.6229658137       74.6495731600  LPSA21    21             15.0000000000
     22939       741  BMANNA    C5            -21.6081730401       28.8525112080       73.6578092950  LPSA21    21             15.0000000000
     22940       741  BMANNA    H5            -20.6469588336       29.1298692263       73.0422409194  LPSA21    21             15.0000000000
     22941       741  BMANNA    O5            -22.1353927893       29.8969952065       74.5460975074  LPSA21    21             15.0000000000
     22942       741  BMANNA    C2            -20.6176050398       29.1889051265       76.3268603500  LPSA21    21             15.0000000000
     22943       741  BMANNA    H2            -19.7892311809       29.6516395441       76.8663433126  LPSA21    21             15.0000000000
     22944       741  BMANNA    N             -21.6637945410       28.7798815052       77.2602735953  LPSA21    21             15.0000000000
     22945       741  BMANNA    HN            -22.5259337681       28.5736860528       76.8630196157  LPSA21    21             15.0000000000
     22946       741  BMANNA    C             -21.4573636288       28.3991817790       78.6142451918  LPSA21    21             15.0000000000
     22947       741  BMANNA    O             -20.3151131702       28.2117531899       79.0340579138  LPSA21    21             15.0000000000
     22948       741  BMANNA    CT            -22.6936396723       28.1722204049       79.5125915666  LPSA21    21             15.0000000000
     22949       741  BMANNA    HT1           -23.0939708431       27.1528470118       79.3040814335  LPSA21    21             15.0000000000
     22950       741  BMANNA    HT2           -23.3785251943       29.0153640705       79.3224353366  LPSA21    21             15.0000000000
     22951       741  BMANNA    HT3           -22.3934953523       28.2015274533       80.6000991146  LPSA21    21             15.0000000000
     22952       741  BMANNA    C3            -20.1033595108       28.1078513144       75.4428482744  LPSA21    21             15.0000000000
     22953       741  BMANNA    H3            -19.2443280543       28.6003417715       75.0091666053  LPSA21    21             15.0000000000
     22954       741  BMANNA    O3            -19.6285954956       26.9895489845       76.1769203835  LPSA21    21             15.0000000000
     22955       741  BMANNA    HO3           -20.3267472987       26.7037466150       76.7354970047  LPSA21    21             15.0000000000
     22956       741  BMANNA    C4            -21.1777428156       27.6575521982       74.4866217523  LPSA21    21             15.0000000000
     22957       741  BMANNA    H4            -22.1176073659       27.1235035147       75.0002820064  LPSA21    21             15.0000000000
     22958       741  BMANNA    O4            -20.7307769093       26.6586703837       73.6152290754  LPSA21    21             15.0000000000
     22959       741  BMANNA    HO4           -21.2089860881       25.8142026549       73.7703874424  LPSA21    21             15.0000000000
     22960       741  BMANNA    C6            -22.5552298576       28.4914043228       72.6348027846  LPSA21    21             15.0000000000
     22961       741  BMANNA    H61           -22.1291204965       27.8330767728       71.8494922130  LPSA21    21             15.0000000000
     22962       741  BMANNA    H62           -23.3013436808       27.7638671819       73.0558617198  LPSA21    21             15.0000000000
     22963       741  BMANNA    O6            -23.3143154200       29.5149028491       72.0654385618  LPSA21    21             15.0000000000
     22964       741  BMANNA    HO6           -23.7354196862       29.9937118125       72.7784055652  LPSA21    21             15.0000000000
     22965       742  BGLCNA    C1            -19.4079248420       33.2232959236       79.2248726046  LPSA21    22             15.0000000000
     22966       742  BGLCNA    H1            -19.5063087197       34.3472250356       79.2753119810  LPSA21    22             15.0000000000
     22967       742  BGLCNA    C5            -17.2146686199       33.6595234308       80.1145289529  LPSA21    22             15.0000000000
     22968       742  BGLCNA    H5            -17.5040282544       34.7932756812       80.0727605020  LPSA21    22             15.0000000000
     22969       742  BGLCNA    O5            -18.0338286708       33.0113986667       79.0803056561  LPSA21    22             15.0000000000
     22970       742  BGLCNA    C2            -19.8410812065       32.6758157533       80.5602818744  LPSA21    22             15.0000000000
     22971       742  BGLCNA    H2            -19.5899130237       31.5606072870       80.4633107900  LPSA21    22             15.0000000000
     22972       742  BGLCNA    N             -21.2656771590       32.8891075001       80.7025670875  LPSA21    22             15.0000000000
     22973       742  BGLCNA    HN            -21.5936728581       33.7740488843       80.4501896382  LPSA21    22             15.0000000000
     22974       742  BGLCNA    C             -22.0879043878       32.0732204018       81.3295640408  LPSA21    22             15.0000000000
     22975       742  BGLCNA    O             -21.6793761586       31.0164218102       81.8448112003  LPSA21    22             15.0000000000
     22976       742  BGLCNA    CT            -23.5144701929       32.4792700462       81.4359073222  LPSA21    22             15.0000000000
     22977       742  BGLCNA    HT1           -23.9366675796       32.0486533796       80.5353412834  LPSA21    22             15.0000000000
     22978       742  BGLCNA    HT2           -23.5582047202       33.5808632747       81.2752873926  LPSA21    22             15.0000000000
     22979       742  BGLCNA    HT3           -23.9965363036       32.2715435127       82.3679651303  LPSA21    22             15.0000000000
     22980       742  BGLCNA    C3            -19.0366321843       33.2853908744       81.6855161512  LPSA21    22             15.0000000000
     22981       742  BGLCNA    H3            -19.1701769882       34.3955049989       81.6419517197  LPSA21    22             15.0000000000
     22982       742  BGLCNA    O3            -19.6192939109       32.7971357625       82.8729300216  LPSA21    22             15.0000000000
     22983       742  BGLCNA    C4            -17.5398822420       33.0398863546       81.4704242134  LPSA21    22             15.0000000000
     22984       742  BGLCNA    H4            -17.4280219973       31.9890990053       81.4144045074  LPSA21    22             15.0000000000
     22985       742  BGLCNA    O4            -16.7418402612       33.5532845315       82.5140850489  LPSA21    22             15.0000000000
     22986       742  BGLCNA    HO4           -16.0357495454       32.9144560223       82.7130071916  LPSA21    22             15.0000000000
     22987       742  BGLCNA    C6            -15.7589697480       33.4381552908       79.7284495560  LPSA21    22             15.0000000000
     22988       742  BGLCNA    H61           -15.2006523564       33.6265794184       80.6924177192  LPSA21    22             15.0000000000
     22989       742  BGLCNA    H62           -15.5660349919       32.3766251219       79.4648784538  LPSA21    22             15.0000000000
     22990       742  BGLCNA    O6            -15.2568423870       34.3490452561       78.8100863794  LPSA21    22             15.0000000000
     22991       742  BGLCNA    HO6           -15.7906008277       34.3122435311       78.0328486455  LPSA21    22             15.0000000000
     22992       743  AGAL      C1            -19.4161921755       33.4686929070       84.0628261254  LPSA21    23             16.0000000000
     22993       743  AGAL      H1            -18.4021273096       33.2759770665       84.5106287163  LPSA21    23             16.0000000000
     22994       743  AGAL      C5            -20.9392102240       35.2737713354       83.7583018441  LPSA21    23             16.0000000000
     22995       743  AGAL      H5            -21.3286559210       34.7010004450       82.8366412438  LPSA21    23             16.0000000000
     22996       743  AGAL      O5            -19.6055938112       34.8858412601       83.9976212264  LPSA21    23             16.0000000000
     22997       743  AGAL      C2            -20.3358588187       32.9298655054       85.1427633740  LPSA21    23             16.0000000000
     22998       743  AGAL      H2            -20.0903225205       33.5026547640       86.0076373284  LPSA21    23             16.0000000000
     22999       743  AGAL      O2            -20.0808872588       31.5925501839       85.5000844886  LPSA21    23             16.0000000000
     23000       743  AGAL      C3            -21.7677040120       33.2748364750       84.9194901020  LPSA21    23             16.0000000000
     23001       743  AGAL      H3            -21.9954365989       32.9302398516       83.8641570193  LPSA21    23             16.0000000000
     23002       743  AGAL      O3            -22.6873381441       32.6173679001       85.7108298168  LPSA21    23             16.0000000000
     23003       743  AGAL      HO3           -22.3195270548       32.6886796774       86.6206525111  LPSA21    23             16.0000000000
     23004       743  AGAL      C4            -21.8734653716       34.7702653172       84.8901212015  LPSA21    23             16.0000000000
     23005       743  AGAL      H4            -22.9019619701       35.1239508670       84.6506069022  LPSA21    23             16.0000000000
     23006       743  AGAL      O4            -21.6147198604       35.4424380783       86.1132943683  LPSA21    23             16.0000000000
     23007       743  AGAL      HO4           -21.2200120958       36.2034310038       85.8278371007  LPSA21    23             16.0000000000
     23008       743  AGAL      C6            -21.0159113963       36.7141823607       83.3278962909  LPSA21    23             16.0000000000
     23009       743  AGAL      H61           -20.2662178647       36.9118209724       82.6074235255  LPSA21    23             16.0000000000
     23010       743  AGAL      H62           -21.9251313715       36.9370776806       82.7620574208  LPSA21    23             16.0000000000
     23011       743  AGAL      O6            -20.7686418709       37.5581786510       84.3845202183  LPSA21    23             16.0000000000
     23012       743  AGAL      HO6           -20.7598569975       38.4801301542       84.1740981585  LPSA21    23             16.0000000000
     23013       744  ARHM      C1            -18.9816167239       31.1624305434       86.2818185944  LPSA21    24             17.0000000000
     23014       744  ARHM      H1            -18.3041774570       31.9899580080       86.3680542693  LPSA21    24             17.0000000000
     23015       744  ARHM      C5            -18.9359104275       28.8554999766       85.6157638072  LPSA21    24             17.0000000000
     23016       744  ARHM      H5            -19.7932199791       29.0507308335       85.0070975499  LPSA21    24             17.0000000000
     23017       744  ARHM      O5            -18.1496552043       30.0167751049       85.8657410059  LPSA21    24             17.0000000000
     23018       744  ARHM      C2            -19.6231039612       30.8473743121       87.5921581840  LPSA21    24             17.0000000000
     23019       744  ARHM      H2            -20.3156375225       31.6092027073       87.8984046741  LPSA21    24             17.0000000000
     23020       744  ARHM      O2            -18.6578985476       30.5127674981       88.6075763533  LPSA21    24             17.0000000000
     23021       744  ARHM      C3            -20.4524298264       29.5666055911       87.4133527752  LPSA21    24             17.0000000000
     23022       744  ARHM      H3            -21.2093178275       29.8199351373       86.6640279609  LPSA21    24             17.0000000000
     23023       744  ARHM      O3            -21.2679053195       29.2138952758       88.5620392964  LPSA21    24             17.0000000000
     23024       744  ARHM      HO3           -20.6873071963       28.6803040028       89.1463757531  LPSA21    24             17.0000000000
     23025       744  ARHM      C4            -19.5928695381       28.4019484985       86.9402325015  LPSA21    24             17.0000000000
     23026       744  ARHM      H4            -18.7289584817       28.2732248577       87.7071552895  LPSA21    24             17.0000000000
     23027       744  ARHM      O4            -20.2725826835       27.1694900158       86.8379508285  LPSA21    24             17.0000000000
     23028       744  ARHM      HO4           -19.7405285840       26.4123110031       87.0219124236  LPSA21    24             17.0000000000
     23029       744  ARHM      C6            -18.1185807545       27.6917369647       84.9175891319  LPSA21    24             17.0000000000
     23030       744  ARHM      H61           -18.8179385053       27.0489322361       84.3853494017  LPSA21    24             17.0000000000
     23031       744  ARHM      H62           -17.4597767750       28.1721104549       84.2649634992  LPSA21    24             17.0000000000
     23032       744  ARHM      H63           -17.4576299311       27.1613643026       85.6811466487  LPSA21    24             17.0000000000
     23033       745  ARHM      C1            -18.0758543184       31.6887915366       89.1588742089  LPSA21    25             18.0000000000
     23034       745  ARHM      H1            -18.1765183828       32.4925797427       88.4722246341  LPSA21    25             18.0000000000
     23035       745  ARHM      C5            -16.2167106957       30.5703884607       90.1670531641  LPSA21    25             18.0000000000
     23036       745  ARHM      H5            -16.5379667170       29.6027987703       89.8870230824  LPSA21    25             18.0000000000
     23037       745  ARHM      O5            -16.6400559281       31.5861907368       89.2315309535  LPSA21    25             18.0000000000
     23038       745  ARHM      C2            -18.7012867878       31.9688847871       90.4685713243  LPSA21    25             18.0000000000
     23039       745  ARHM      H2            -19.8346392456       31.9113968189       90.3413143991  LPSA21    25             18.0000000000
     23040       745  ARHM      O2            -18.3018449515       33.2955036823       90.9328696740  LPSA21    25             18.0000000000
     23041       745  ARHM      C3            -18.1785302464       30.8757889840       91.4562257518  LPSA21    25             18.0000000000
     23042       745  ARHM      H3            -18.5450267301       29.8923470356       91.0689171631  LPSA21    25             18.0000000000
     23043       745  ARHM      O3            -18.8094029643       31.1396829401       92.6920647463  LPSA21    25             18.0000000000
     23044       745  ARHM      C4            -16.7544615122       30.8294457925       91.5960769721  LPSA21    25             18.0000000000
     23045       745  ARHM      H4            -16.3090881076       31.8691177296       91.8876801091  LPSA21    25             18.0000000000
     23046       745  ARHM      O4            -16.4657413702       29.8422541907       92.5862492282  LPSA21    25             18.0000000000
     23047       745  ARHM      HO4           -15.7041952747       30.1888496005       93.0149361445  LPSA21    25             18.0000000000
     23048       745  ARHM      C6            -14.6958268519       30.4297986574       90.2083352735  LPSA21    25             18.0000000000
     23049       745  ARHM      H61           -14.2566601227       30.3397085999       89.1912344565  LPSA21    25             18.0000000000
     23050       745  ARHM      H62           -14.1775216761       31.3140165653       90.6686969550  LPSA21    25             18.0000000000
     23051       745  ARHM      H63           -14.3362390281       29.5198894889       90.8233913566  LPSA21    25             18.0000000000
     23052       746  BMANNA    C1            -18.9963257825       34.3521618787       90.3138108879  LPSA21    26             19.0000000000
     23053       746  BMANNA    H1            -19.9600634725       34.0031145844       89.8388342826  LPSA21    26             19.0000000000
     23054       746  BMANNA    C5            -19.0990913722       36.0417668378       88.6312665858  LPSA21    26             19.0000000000
     23055       746  BMANNA    H5            -19.9546777785       35.5412306774       88.1771240033  LPSA21    26             19.0000000000
     23056       746  BMANNA    O5            -18.2907167457       35.0234433505       89.2346891933  LPSA21    26             19.0000000000
     23057       746  BMANNA    C2            -19.3218397392       35.3146109542       91.3475147821  LPSA21    26             19.0000000000
     23058       746  BMANNA    H2            -19.9284638607       34.7217644909       92.1081287357  LPSA21    26             19.0000000000
     23059       746  BMANNA    N             -18.0584029324       35.8261486576       91.9238920796  LPSA21    26             19.0000000000
     23060       746  BMANNA    HN            -17.4382949613       36.2166166079       91.3050515894  LPSA21    26             19.0000000000
     23061       746  BMANNA    C             -17.7775540497       35.8713287717       93.1798471680  LPSA21    26             19.0000000000
     23062       746  BMANNA    O             -18.5098441093       35.2905258042       94.0003587425  LPSA21    26             19.0000000000
     23063       746  BMANNA    CT            -16.5623102534       36.6538382379       93.6758917343  LPSA21    26             19.0000000000
     23064       746  BMANNA    HT1           -15.9032870064       36.7423676033       92.8666282051  LPSA21    26             19.0000000000
     23065       746  BMANNA    HT2           -16.0443752624       36.4239031354       94.6620984389  LPSA21    26             19.0000000000
     23066       746  BMANNA    HT3           -16.9365556799       37.6701613297       93.8484898219  LPSA21    26             19.0000000000
     23067       746  BMANNA    C3            -20.2173036627       36.3807919328       90.7100883268  LPSA21    26             19.0000000000
     23068       746  BMANNA    H3            -21.1414306271       35.8717607960       90.3384445889  LPSA21    26             19.0000000000
     23069       746  BMANNA    O3            -20.6495264240       37.2837167410       91.7636866611  LPSA21    26             19.0000000000
     23070       746  BMANNA    HO3           -21.2936358428       36.7612372929       92.2265744207  LPSA21    26             19.0000000000
     23071       746  BMANNA    C4            -19.5008658929       37.0107768586       89.6481622736  LPSA21    26             19.0000000000
     23072       746  BMANNA    H4            -18.5389325387       37.5434683490       89.9013799111  LPSA21    26             19.0000000000
     23073       746  BMANNA    O4            -20.2753267126       38.0356996360       89.0416847738  LPSA21    26             19.0000000000
     23074       746  BMANNA    HO4           -20.1757322777       38.8336202147       89.5591157304  LPSA21    26             19.0000000000
     23075       746  BMANNA    C6            -18.2788912063       36.5063320471       87.3900617492  LPSA21    26             19.0000000000
     23076       746  BMANNA    H61           -17.7349530727       35.6684377559       86.9191763972  LPSA21    26             19.0000000000
     23077       746  BMANNA    H62           -18.8946343143       36.9478237454       86.6504270337  LPSA21    26             19.0000000000
     23078       746  BMANNA    O6            -17.3128190794       37.4937885229       87.7329108337  LPSA21    26             19.0000000000
     23079       746  BMANNA    HO6           -17.7313159720       38.2068991520       88.1688153196  LPSA21    26             19.0000000000
     23080       747  BGLCNA    C1            -19.3969918952       30.1975218097       93.4616184899  LPSA21    27             19.0000000000
     23081       747  BGLCNA    H1            -18.8271826293       29.2738337533       93.4392217979  LPSA21    27             19.0000000000
     23082       747  BGLCNA    C5            -21.2588157757       28.8113606583       93.9656603721  LPSA21    27             19.0000000000
     23083       747  BGLCNA    H5            -20.5389057810       27.9532060792       93.9564344452  LPSA21    27             19.0000000000
     23084       747  BGLCNA    O5            -20.7187685049       29.7841531124       93.0607755266  LPSA21    27             19.0000000000
     23085       747  BGLCNA    C2            -19.4081150823       30.7706250453       94.8806799918  LPSA21    27             19.0000000000
     23086       747  BGLCNA    H2            -20.0969726756       31.6330608298       94.8757458582  LPSA21    27             19.0000000000
     23087       747  BGLCNA    N             -18.0805598443       31.2248301191       95.2501113516  LPSA21    27             19.0000000000
     23088       747  BGLCNA    HN            -17.2977145398       30.5390484333       95.0827132934  LPSA21    27             19.0000000000
     23089       747  BGLCNA    C             -18.0236955173       32.4244902683       95.9523160909  LPSA21    27             19.0000000000
     23090       747  BGLCNA    O             -18.9994516303       32.9990428279       96.5238801166  LPSA21    27             19.0000000000
     23091       747  BGLCNA    CT            -16.5926198728       33.0411255775       96.0293745529  LPSA21    27             19.0000000000
     23092       747  BGLCNA    HT1           -15.8833321300       32.4782400861       95.3635606282  LPSA21    27             19.0000000000
     23093       747  BGLCNA    HT2           -16.2008030494       33.1442552317       97.0167906789  LPSA21    27             19.0000000000
     23094       747  BGLCNA    HT3           -16.6978821037       34.1492814234       95.7039804309  LPSA21    27             19.0000000000
     23095       747  BGLCNA    C3            -19.9662826993       29.7561975247       95.7540348103  LPSA21    27             19.0000000000
     23096       747  BGLCNA    H3            -19.3681760217       28.8112385346       95.7401190096  LPSA21    27             19.0000000000
     23097       747  BGLCNA    O3            -19.8937555214       30.3876920120       97.0775356047  LPSA21    27             19.0000000000
     23098       747  BGLCNA    C4            -21.3925887237       29.3359325199       95.3486864533  LPSA21    27             19.0000000000
     23099       747  BGLCNA    H4            -22.0460460711       30.2376953002       95.3090014479  LPSA21    27             19.0000000000
     23100       747  BGLCNA    O4            -21.9145656565       28.3972789390       96.2156872787  LPSA21    27             19.0000000000
     23101       747  BGLCNA    HO4           -21.4230189227       27.6258329238       96.0162444362  LPSA21    27             19.0000000000
     23102       747  BGLCNA    C6            -22.5699500846       28.2891758443       93.2852949846  LPSA21    27             19.0000000000
     23103       747  BGLCNA    H61           -22.8495968551       27.3985818555       93.8557506920  LPSA21    27             19.0000000000
     23104       747  BGLCNA    H62           -23.4016978818       29.0085239096       93.4725180191  LPSA21    27             19.0000000000
     23105       747  BGLCNA    O6            -22.3698364836       28.0202086366       91.9076175409  LPSA21    27             19.0000000000
     23106       747  BGLCNA    HO6           -23.2253132506       27.7226766029       91.5273290588  LPSA21    27             19.0000000000
     23107       748  AGAL      C1            -20.0176809077       29.5649485424       98.2622020222  LPSA21    28             20.0000000000
     23108       748  AGAL      H1            -21.0122984717       29.2104712742       98.3007149491  LPSA21    28             20.0000000000
     23109       748  AGAL      C5            -17.7574583183       28.6923861434       98.1710438288  LPSA21    28             20.0000000000
     23110       748  AGAL      H5            -17.4806250941       29.6130174275       97.4646141937  LPSA21    28             20.0000000000
     23111       748  AGAL      O5            -19.2128502988       28.3971340701       98.1147365872  LPSA21    28             20.0000000000
     23112       748  AGAL      C2            -19.6478238370       30.1876175362       99.6197190629  LPSA21    28             20.0000000000
     23113       748  AGAL      H2            -19.8328320264       29.3561181711      100.2965066153  LPSA21    28             20.0000000000
     23114       748  AGAL      O2            -20.4616917567       31.2561437556      100.0788731798  LPSA21    28             20.0000000000
     23115       748  AGAL      C3            -18.1896346664       30.5015793264       99.7396972452  LPSA21    28             20.0000000000
     23116       748  AGAL      H3            -17.9116315671       31.1641985943       98.8607737785  LPSA21    28             20.0000000000
     23117       748  AGAL      O3            -17.7171697570       31.2063814724      100.9043404272  LPSA21    28             20.0000000000
     23118       748  AGAL      HO3           -17.3682357425       32.0517197882      100.5606486229  LPSA21    28             20.0000000000
     23119       748  AGAL      C4            -17.4129625637       29.2672978625       99.5102226768  LPSA21    28             20.0000000000
     23120       748  AGAL      H4            -16.3826595500       29.5308335318       99.4798298294  LPSA21    28             20.0000000000
     23121       748  AGAL      O4            -17.6166007570       28.2856491851      100.4757933835  LPSA21    28             20.0000000000
     23122       748  AGAL      HO4           -16.8765348920       28.3242707011      101.0376442747  LPSA21    28             20.0000000000
     23123       748  AGAL      C6            -16.8572566339       27.5751176950       97.6362902244  LPSA21    28             20.0000000000
     23124       748  AGAL      H61           -17.0719511381       27.4199793801       96.5809275898  LPSA21    28             20.0000000000
     23125       748  AGAL      H62           -15.7219773807       27.7155970594       97.7651048223  LPSA21    28             20.0000000000
     23126       748  AGAL      O6            -17.1134494003       26.3807258489       98.3456070822  LPSA21    28             20.0000000000
     23127       748  AGAL      HO6           -17.8404416682       25.9051083027       97.9416813930  LPSA21    28             20.0000000000
     23128       749  ARHM      C1            -20.7565348705       31.0523685645      101.4808913342  LPSA21    29             21.0000000000
     23129       749  ARHM      H1            -19.9291922379       30.4653491224      101.9964955809  LPSA21    29             21.0000000000
     23130       749  ARHM      C5            -23.0809718960       31.0514182974      101.1486206043  LPSA21    29             21.0000000000
     23131       749  ARHM      H5            -22.8190078640       31.2668756029      100.0935446791  LPSA21    29             21.0000000000
     23132       749  ARHM      O5            -21.9712968115       30.3873426383      101.6833506475  LPSA21    29             21.0000000000
     23133       749  ARHM      C2            -20.7506974813       32.3577013638      102.1437305515  LPSA21    29             21.0000000000
     23134       749  ARHM      H2            -19.8704083980       32.9193032686      101.9067628034  LPSA21    29             21.0000000000
     23135       749  ARHM      O2            -20.8333315978       32.2405109408      103.5748524404  LPSA21    29             21.0000000000
     23136       749  ARHM      C3            -21.9310812303       33.1315235002      101.6289418068  LPSA21    29             21.0000000000
     23137       749  ARHM      H3            -21.7750893084       33.3456329518      100.4952263366  LPSA21    29             21.0000000000
     23138       749  ARHM      O3            -21.8994741920       34.4115590010      102.1995749427  LPSA21    29             21.0000000000
     23139       749  ARHM      HO3           -22.7513094284       34.6908703632      102.2092645043  LPSA21    29             21.0000000000
     23140       749  ARHM      C4            -23.2155188841       32.4537128019      101.8247918557  LPSA21    29             21.0000000000
     23141       749  ARHM      H4            -23.4597311935       32.3224427181      102.9338171738  LPSA21    29             21.0000000000
     23142       749  ARHM      O4            -24.4036460646       33.1232088259      101.3452167393  LPSA21    29             21.0000000000
     23143       749  ARHM      HO4           -24.3015267814       33.5381598953      100.4362974805  LPSA21    29             21.0000000000
     23144       749  ARHM      C6            -24.2634426730       30.0687686645      101.2162231226  LPSA21    29             21.0000000000
     23145       749  ARHM      H61           -23.8177547835       29.1079481075      100.7685423143  LPSA21    29             21.0000000000
     23146       749  ARHM      H62           -24.5118787294       29.8778800283      102.3013153741  LPSA21    29             21.0000000000
     23147       749  ARHM      H63           -25.0841538389       30.4629986021      100.6072571094  LPSA21    29             21.0000000000
     23148       750  ARHM      C1            -19.7093641102       32.2964514596      104.3945976075  LPSA21    30             22.0000000000
     23149       750  ARHM      H1            -19.1846513105       33.2594285784      104.2094096401  LPSA21    30             22.0000000000
     23150       750  ARHM      C5            -19.4044305547       29.8847106751      104.5143062533  LPSA21    30             22.0000000000
     23151       750  ARHM      H5            -20.3630446826       29.9221883018      103.8668162917  LPSA21    30             22.0000000000
     23152       750  ARHM      O5            -18.8155038298       31.1791822847      104.2052433351  LPSA21    30             22.0000000000
     23153       750  ARHM      C2            -20.1503239364       32.2914349008      105.8471183130  LPSA21    30             22.0000000000
     23154       750  ARHM      H2            -20.8134806301       33.0732778412      106.0289718167  LPSA21    30             22.0000000000
     23155       750  ARHM      O2            -18.9753061649       32.3583978742      106.5813641610  LPSA21    30             22.0000000000
     23156       750  ARHM      C3            -20.7385993491       31.0093888065      106.2079894766  LPSA21    30             22.0000000000
     23157       750  ARHM      H3            -21.5158279114       30.7905698594      105.5270001340  LPSA21    30             22.0000000000
     23158       750  ARHM      O3            -21.3306094467       30.9892249332      107.5373891676  LPSA21    30             22.0000000000
     23159       750  ARHM      C4            -19.7791523571       29.8384418690      105.9708288384  LPSA21    30             22.0000000000
     23160       750  ARHM      H4            -18.8512190614       29.9236945409      106.5400372406  LPSA21    30             22.0000000000
     23161       750  ARHM      O4            -20.2505080926       28.6076552371      106.2997755749  LPSA21    30             22.0000000000
     23162       750  ARHM      HO4           -20.8453945006       28.1438380757      105.6964454668  LPSA21    30             22.0000000000
     23163       750  ARHM      C6            -18.4755615225       28.7779413374      104.0930490251  LPSA21    30             22.0000000000
     23164       750  ARHM      H61           -19.0411924166       27.8124944185      104.2143179997  LPSA21    30             22.0000000000
     23165       750  ARHM      H62           -18.3311628306       28.8327796148      103.0019050467  LPSA21    30             22.0000000000
     23166       750  ARHM      H63           -17.4851212234       28.7712686226      104.6493652223  LPSA21    30             22.0000000000
     23167       751  BMANNA    C1            -18.5486828971       33.6510516930      106.9502319096  LPSA21    31             23.0000000000
     23168       751  BMANNA    H1            -19.4569545595       34.2610073259      107.1550799008  LPSA21    31             23.0000000000
     23169       751  BMANNA    C5            -17.4086563168       35.6681680235      106.2136717625  LPSA21    31             23.0000000000
     23170       751  BMANNA    H5            -18.3347930109       36.1576784520      106.5467054000  LPSA21    31             23.0000000000
     23171       751  BMANNA    O5            -17.7941675957       34.3040971287      105.8742289322  LPSA21    31             23.0000000000
     23172       751  BMANNA    C2            -17.6794604666       33.5715615833      108.0830629221  LPSA21    31             23.0000000000
     23173       751  BMANNA    H2            -18.3119370063       33.1811834999      108.9031915743  LPSA21    31             23.0000000000
     23174       751  BMANNA    N             -16.6559766240       32.6184687519      107.8252935315  LPSA21    31             23.0000000000
     23175       751  BMANNA    HN            -16.4095000066       32.4483988708      106.8111160773  LPSA21    31             23.0000000000
     23176       751  BMANNA    C             -16.0514373823       31.9159452140      108.7868858964  LPSA21    31             23.0000000000
     23177       751  BMANNA    O             -16.3926903674       31.9909618022      109.9536662434  LPSA21    31             23.0000000000
     23178       751  BMANNA    CT            -14.9122266659       30.9949590123      108.3237946568  LPSA21    31             23.0000000000
     23179       751  BMANNA    HT1           -14.3629004797       31.5049067208      107.5739831696  LPSA21    31             23.0000000000
     23180       751  BMANNA    HT2           -15.3657154833       30.0768867600      107.9347099034  LPSA21    31             23.0000000000
     23181       751  BMANNA    HT3           -14.3067174345       30.6504310297      109.1768357935  LPSA21    31             23.0000000000
     23182       751  BMANNA    C3            -17.2633633630       34.9476461283      108.4884560283  LPSA21    31             23.0000000000
     23183       751  BMANNA    H3            -18.1712803102       35.6276904452      108.6988550870  LPSA21    31             23.0000000000
     23184       751  BMANNA    O3            -16.5767369926       34.9478697968      109.7404994872  LPSA21    31             23.0000000000
     23185       751  BMANNA    HO3           -16.8771295072       34.0999906597      110.0111610137  LPSA21    31             23.0000000000
     23186       751  BMANNA    C4            -16.4700453700       35.5853919375      107.4199857710  LPSA21    31             23.0000000000
     23187       751  BMANNA    H4            -15.4959173666       35.0056533317      107.0572414185  LPSA21    31             23.0000000000
     23188       751  BMANNA    O4            -16.0166015959       36.8596879573      107.8525671122  LPSA21    31             23.0000000000
     23189       751  BMANNA    HO4           -16.7490982760       37.4198503951      108.1943429300  LPSA21    31             23.0000000000
     23190       751  BMANNA    C6            -16.7352814831       36.4160142605      105.0512686782  LPSA21    31             23.0000000000
     23191       751  BMANNA    H61           -16.6678157718       37.5405543730      105.3397811046  LPSA21    31             23.0000000000
     23192       751  BMANNA    H62           -15.7177930002       36.0818707016      104.8698551944  LPSA21    31             23.0000000000
     23193       751  BMANNA    O6            -17.4789434945       36.2822543885      103.8241467834  LPSA21    31             23.0000000000
     23194       751  BMANNA    HO6           -18.3426492095       36.7845017255      103.8134147631  LPSA21    31             23.0000000000
     23195       752  BGLCNA    C1            -20.4700775857       30.7966279408      108.6103969990  LPSA21    32             23.0000000000
     23196       752  BGLCNA    H1            -19.4621565917       31.2906062363      108.4325564695  LPSA21    32             23.0000000000
     23197       752  BGLCNA    C5            -19.2001659913       29.2169365985      109.9277617404  LPSA21    32             23.0000000000
     23198       752  BGLCNA    H5            -18.2705885426       29.7699236332      109.5374749077  LPSA21    32             23.0000000000
     23199       752  BGLCNA    O5            -20.2139942940       29.4313136593      108.9423333575  LPSA21    32             23.0000000000
     23200       752  BGLCNA    C2            -20.9876735915       31.4444144972      109.8194522937  LPSA21    32             23.0000000000
     23201       752  BGLCNA    H2            -21.8193089589       30.8446290375      110.1044894257  LPSA21    32             23.0000000000
     23202       752  BGLCNA    N             -21.3956506511       32.7897243881      109.5956973249  LPSA21    32             23.0000000000
     23203       752  BGLCNA    HN            -20.7956556252       33.2026344411      108.8809076996  LPSA21    32             23.0000000000
     23204       752  BGLCNA    C             -22.4610889670       33.4624688745      110.0864625708  LPSA21    32             23.0000000000
     23205       752  BGLCNA    O             -23.2144062255       32.9767847354      110.9304085025  LPSA21    32             23.0000000000
     23206       752  BGLCNA    CT            -22.6769045206       34.9072432825      109.5841031968  LPSA21    32             23.0000000000
     23207       752  BGLCNA    HT1           -21.9995907158       34.8871534902      108.6281101354  LPSA21    32             23.0000000000
     23208       752  BGLCNA    HT2           -22.2883398248       35.6867897982      110.1898124037  LPSA21    32             23.0000000000
     23209       752  BGLCNA    HT3           -23.7403402063       35.1159485376      109.3122359934  LPSA21    32             23.0000000000
     23210       752  BGLCNA    C3            -19.9446132135       31.3485904040      110.8930231790  LPSA21    32             23.0000000000
     23211       752  BGLCNA    H3            -19.0636854374       31.7285265740      110.4606187373  LPSA21    32             23.0000000000
     23212       752  BGLCNA    O3            -20.2261777350       32.1298330172      112.0657798240  LPSA21    32             23.0000000000
     23213       752  BGLCNA    C4            -19.7250852845       29.8865498592      111.1707572500  LPSA21    32             23.0000000000
     23214       752  BGLCNA    H4            -20.7037673314       29.4680501738      111.5318289610  LPSA21    32             23.0000000000
     23215       752  BGLCNA    O4            -18.7994934486       29.6896236353      112.2070236435  LPSA21    32             23.0000000000
     23216       752  BGLCNA    HO4           -19.2260660139       29.6396926859      113.0745323218  LPSA21    32             23.0000000000
     23217       752  BGLCNA    C6            -18.8766320424       27.7405283854      110.0229508171  LPSA21    32             23.0000000000
     23218       752  BGLCNA    H61           -17.9788246568       27.5502342656      110.7194343748  LPSA21    32             23.0000000000
     23219       752  BGLCNA    H62           -19.7449573266       27.1975794513      110.5717638480  LPSA21    32             23.0000000000
     23220       752  BGLCNA    O6            -18.5357487843       27.1814759672      108.7709294272  LPSA21    32             23.0000000000
     23221       752  BGLCNA    HO6           -18.0247189595       27.8410876683      108.2360311317  LPSA21    32             23.0000000000
     23222       753  AGAL      C1            -19.0637834669       32.7436433732      112.6842874521  LPSA21    33             24.0000000000
     23223       753  AGAL      H1            -18.2507301103       32.0186402300      112.5979959475  LPSA21    33             24.0000000000
     23224       753  AGAL      C5            -19.7333756396       34.9716739359      112.2149219831  LPSA21    33             24.0000000000
     23225       753  AGAL      H5            -20.6501842567       34.4550371555      111.8792915250  LPSA21    33             24.0000000000
     23226       753  AGAL      O5            -18.6984339867       34.0208578812      112.0726784748  LPSA21    33             24.0000000000
     23227       753  AGAL      C2            -19.4161511616       32.9978744909      114.1482787662  LPSA21    33             24.0000000000
     23228       753  AGAL      H2            -18.5093157141       33.5780462032      114.5751854976  LPSA21    33             24.0000000000
     23229       753  AGAL      O2            -19.4010433572       31.7681642185      114.8486222260  LPSA21    33             24.0000000000
     23230       753  AGAL      C3            -20.5012161987       34.0356109244      114.2945545625  LPSA21    33             24.0000000000
     23231       753  AGAL      H3            -21.4447712634       33.7034974412      113.7405815065  LPSA21    33             24.0000000000
     23232       753  AGAL      O3            -20.9831338818       34.1714284211      115.5672660328  LPSA21    33             24.0000000000
     23233       753  AGAL      HO3           -20.3535822435       34.3238419390      116.2400186851  LPSA21    33             24.0000000000
     23234       753  AGAL      C4            -20.0776821577       35.3454097463      113.6708488317  LPSA21    33             24.0000000000
     23235       753  AGAL      H4            -20.8992337550       36.0719782691      113.6729875792  LPSA21    33             24.0000000000
     23236       753  AGAL      O4            -18.9481630469       36.0437981200      114.2435538900  LPSA21    33             24.0000000000
     23237       753  AGAL      HO4           -18.4957288089       35.5383512142      114.9085525172  LPSA21    33             24.0000000000
     23238       753  AGAL      C6            -19.5437028272       36.1577021656      111.2992528405  LPSA21    33             24.0000000000
     23239       753  AGAL      H61           -19.5778828624       35.7262050001      110.2783408757  LPSA21    33             24.0000000000
     23240       753  AGAL      H62           -20.3126679599       36.9518470475      111.3458027743  LPSA21    33             24.0000000000
     23241       753  AGAL      O6            -18.3641398805       36.8901611736      111.4129476537  LPSA21    33             24.0000000000
     23242       753  AGAL      HO6           -17.6296581029       36.5451210166      110.8444757795  LPSA21    33             24.0000000000
     23243       754  ARHM      C1            -18.6369135893       31.7662285531      116.0109133884  LPSA21    34             25.0000000000
     23244       754  ARHM      H1            -18.8211980409       32.6545829217      116.6389743656  LPSA21    34             25.0000000000
     23245       754  ARHM      C5            -16.7088535300       30.6477918650      115.0727799907  LPSA21    34             25.0000000000
     23246       754  ARHM      H5            -17.1846957080       30.7178521202      114.0209633333  LPSA21    34             25.0000000000
     23247       754  ARHM      O5            -17.1994911853       31.7676546690      115.8926868953  LPSA21    34             25.0000000000
     23248       754  ARHM      C2            -19.0971915597       30.5471760760      116.7601555753  LPSA21    34             25.0000000000
     23249       754  ARHM      H2            -20.2093900394       30.4299261337      116.8710959342  LPSA21    34             25.0000000000
     23250       754  ARHM      O2            -18.5660607612       30.4312048314      118.1592972339  LPSA21    34             25.0000000000
     23251       754  ARHM      C3            -18.6259794228       29.3166366336      115.9988665506  LPSA21    34             25.0000000000
     23252       754  ARHM      H3            -19.0227765982       29.3065136191      114.9724172480  LPSA21    34             25.0000000000
     23253       754  ARHM      O3            -18.9734998042       28.0398837764      116.5878695042  LPSA21    34             25.0000000000
     23254       754  ARHM      HO3           -19.2156191503       27.3703041707      115.9559434517  LPSA21    34             25.0000000000
     23255       754  ARHM      C4            -17.0858873748       29.3064034451      115.7987835878  LPSA21    34             25.0000000000
     23256       754  ARHM      H4            -16.5385053188       29.4157472006      116.7495315617  LPSA21    34             25.0000000000
     23257       754  ARHM      O4            -16.6309374146       28.1844488397      115.1362621200  LPSA21    34             25.0000000000
     23258       754  ARHM      HO4           -16.6088392041       27.4111659775      115.6953140327  LPSA21    34             25.0000000000
     23259       754  ARHM      C6            -15.1575938819       30.7339542358      114.8413279703  LPSA21    34             25.0000000000
     23260       754  ARHM      H61           -14.5491770954       30.6449694962      115.7172490283  LPSA21    34             25.0000000000
     23261       754  ARHM      H62           -14.8445594231       29.7715384123      114.3996926230  LPSA21    34             25.0000000000
     23262       754  ARHM      H63           -14.8012675257       31.5277878257      114.1590834060  LPSA21    34             25.0000000000
     23263       755  ARHM      C1            -18.8656852154       31.5007514639      119.0795908573  LPSA21    35             26.0000000000
     23264       755  ARHM      H1            -19.9603178901       31.8570600124      118.8787348947  LPSA21    35             26.0000000000
     23265       755  ARHM      C5            -16.5713236389       32.2826878266      119.2408916176  LPSA21    35             26.0000000000
     23266       755  ARHM      H5            -16.2057243808       31.4400735348      118.5254732223  LPSA21    35             26.0000000000
     23267       755  ARHM      O5            -17.9623878864       32.6760001036      118.9290334222  LPSA21    35             26.0000000000
     23268       755  ARHM      C2            -18.7933183056       30.9865431578      120.5365485050  LPSA21    35             26.0000000000
     23269       755  ARHM      H2            -19.5552661500       30.1750975795      120.7134209997  LPSA21    35             26.0000000000
     23270       755  ARHM      O2            -19.1079352250       32.0044457374      121.4126203716  LPSA21    35             26.0000000000
     23271       755  ARHM      C3            -17.3616538165       30.5117216047      120.8720061906  LPSA21    35             26.0000000000
     23272       755  ARHM      H3            -17.1354471663       29.6736743797      120.1344793452  LPSA21    35             26.0000000000
     23273       755  ARHM      O3            -17.2982723784       29.9222828865      122.1540075829  LPSA21    35             26.0000000000
     23274       755  ARHM      HO3           -17.9197033475       30.3743689247      122.7288731339  LPSA21    35             26.0000000000
     23275       755  ARHM      C4            -16.4450303883       31.6884341119      120.6788917534  LPSA21    35             26.0000000000
     23276       755  ARHM      H4            -16.6906496148       32.5717175361      121.3307119103  LPSA21    35             26.0000000000
     23277       755  ARHM      O4            -15.1110115789       31.2170050724      120.9693790153  LPSA21    35             26.0000000000
     23278       755  ARHM      HO4           -14.8975834004       30.3470598050      120.5581709812  LPSA21    35             26.0000000000
     23279       755  ARHM      C6            -15.6024698368       33.4559448995      118.8642347863  LPSA21    35             26.0000000000
     23280       755  ARHM      H61           -15.5994649021       33.6384928418      117.7433556958  LPSA21    35             26.0000000000
     23281       755  ARHM      H62           -16.0234811740       34.2810167810      119.4176110492  LPSA21    35             26.0000000000
     23282       755  ARHM      H63           -14.5545003962       33.0893966932      119.0633705917  LPSA21    35             26.0000000000
     23283       756  BMANNA    C1            -20.4440011661       32.4070245775      121.4471464502  LPSA21    36             27.0000000000
     23284       756  BMANNA    H1            -21.1233746355       31.5937390404      121.0972061898  LPSA21    36             27.0000000000
     23285       756  BMANNA    C5            -22.3016198364       33.7815696979      120.7299884793  LPSA21    36             27.0000000000
     23286       756  BMANNA    H5            -22.8032060335       32.8535328185      120.4610684421  LPSA21    36             27.0000000000
     23287       756  BMANNA    O5            -20.8563915954       33.5619595294      120.6641532654  LPSA21    36             27.0000000000
     23288       756  BMANNA    C2            -20.8201778091       32.6967378321      122.8920138725  LPSA21    36             27.0000000000
     23289       756  BMANNA    H2            -20.5916934977       31.7830073094      123.4719477421  LPSA21    36             27.0000000000
     23290       756  BMANNA    N             -20.0022064343       33.7785472661      123.4395449790  LPSA21    36             27.0000000000
     23291       756  BMANNA    HN            -19.8151385006       34.5880096295      122.8746519580  LPSA21    36             27.0000000000
     23292       756  BMANNA    C             -19.7471577297       33.8532601177      124.7737151700  LPSA21    36             27.0000000000
     23293       756  BMANNA    O             -20.0095843152       32.9916985125      125.6190347561  LPSA21    36             27.0000000000
     23294       756  BMANNA    CT            -19.1333590231       35.0955089815      125.3570716528  LPSA21    36             27.0000000000
     23295       756  BMANNA    HT1           -19.5514492955       35.9874333760      124.8802869227  LPSA21    36             27.0000000000
     23296       756  BMANNA    HT2           -18.0251691150       35.1792729253      125.1731404614  LPSA21    36             27.0000000000
     23297       756  BMANNA    HT3           -19.1926047068       35.1969487054      126.4547536948  LPSA21    36             27.0000000000
     23298       756  BMANNA    C3            -22.2986478408       32.9769808320      122.9763638711  LPSA21    36             27.0000000000
     23299       756  BMANNA    H3            -22.8748324768       32.1054682472      122.6403873786  LPSA21    36             27.0000000000
     23300       756  BMANNA    O3            -22.7348774173       33.2068161770      124.3414054450  LPSA21    36             27.0000000000
     23301       756  BMANNA    HO3           -23.3442718794       32.5802036211      124.7171830083  LPSA21    36             27.0000000000
     23302       756  BMANNA    C4            -22.6910661817       34.1182952815      122.1146940524  LPSA21    36             27.0000000000
     23303       756  BMANNA    H4            -22.2398548131       35.0337765462      122.4263894750  LPSA21    36             27.0000000000
     23304       756  BMANNA    O4            -24.0868190057       34.3927080087      122.2172873890  LPSA21    36             27.0000000000
     23305       756  BMANNA    HO4           -24.1151315349       34.5211841602      123.1985163392  LPSA21    36             27.0000000000
     23306       756  BMANNA    C6            -22.6739396367       34.8123706789      119.7412642597  LPSA21    36             27.0000000000
     23307       756  BMANNA    H61           -22.4402057057       34.4895328032      118.6946701192  LPSA21    36             27.0000000000
     23308       756  BMANNA    H62           -23.7676355785       34.7972264419      119.7045442506  LPSA21    36             27.0000000000
     23309       756  BMANNA    O6            -22.1481120483       36.1430405274      120.0914698020  LPSA21    36             27.0000000000
     23310       756  BMANNA    HO6           -22.8221263417       36.5504557487      120.6476247167  LPSA21    36             27.0000000000
     23311       757  ECLIPA    HB6S            0.8973670244      -36.9495352365       20.4612168218  LPSA22    1               0.0000000000
     23312       757  ECLIPA    OB6             1.3465409363      -38.4630437944       21.7140249152  LPSA22    1               0.0000000000
     23313       757  ECLIPA    CB6             1.7779647186      -37.4805412734       20.7042159014  LPSA22    1               0.0000000000
     23314       757  ECLIPA    HB6R            2.6203221693      -36.9122811689       21.0541931349  LPSA22    1               0.0000000000
     23315       757  ECLIPA    CB5             2.3559314534      -38.1724642547       19.3988764877  LPSA22    1               0.0000000000
     23316       757  ECLIPA    OB5             1.2801906214      -39.1014636246       18.9716901872  LPSA22    1               0.0000000000
     23317       757  ECLIPA    HB5             3.2017480286      -38.7766669305       19.7771798410  LPSA22    1               0.0000000000
     23318       757  ECLIPA    CB1             1.6834004627      -39.8016101746       17.7717324898  LPSA22    1               0.0000000000
     23319       757  ECLIPA    HB1             2.6064566945      -40.4085062328       17.9003641080  LPSA22    1               0.0000000000
     23320       757  ECLIPA    OA6             0.6537413682      -40.6298064134       17.3217246577  LPSA22    1               0.0000000000
     23321       757  ECLIPA    CA6            -0.7187892524      -40.2609210389       17.5745106853  LPSA22    1               0.0000000000
     23322       757  ECLIPA    HA6R           -0.7619388745      -39.1627922416       17.7226451425  LPSA22    1               0.0000000000
     23323       757  ECLIPA    HA6S           -1.0989885881      -40.9114061970       18.4598965841  LPSA22    1               0.0000000000
     23324       757  ECLIPA    CB4             2.7355539122      -37.1386845277       18.3206521937  LPSA22    1               0.0000000000
     23325       757  ECLIPA    HB4             1.8564014963      -36.5366042672       18.0085584641  LPSA22    1               0.0000000000
     23326       757  ECLIPA    OB4             3.8822806583      -36.4801143004       18.9017319965  LPSA22    1               0.0000000000
     23327       757  ECLIPA    PB              3.7761827715      -34.9300466010       19.3234616795  LPSA22    1               0.0000000000
     23328       757  ECLIPA    OPB4            4.6757799707      -34.7339578093       20.5579515876  LPSA22    1               0.0000000000
     23329       757  ECLIPA    OPB3            2.2695483530      -34.8185783639       19.6614545037  LPSA22    1               0.0000000000
     23330       757  ECLIPA    OPB2            4.1290937843      -34.0959754194       18.0829495795  LPSA22    1               0.0000000000
     23331       757  ECLIPA    CB3             3.1357135741      -37.9380382929       17.0955893951  LPSA22    1               0.0000000000
     23332       757  ECLIPA    OB3             3.4396247900      -37.1687315802       15.9186528231  LPSA22    1               0.0000000000
     23333       757  ECLIPA    HB3             3.9226345146      -38.7184676328       17.3284540628  LPSA22    1               0.0000000000
     23334       757  ECLIPA    C71             4.6677744326      -36.8404851357       15.6929469039  LPSA22    1               0.0000000000
     23335       757  ECLIPA    O71             5.6362079995      -37.2346759069       16.3832172580  LPSA22    1               0.0000000000
     23336       757  ECLIPA    C72             4.7070218290      -36.0566907562       14.3548430386  LPSA22    1               0.0000000000
     23337       757  ECLIPA    H72R            4.2766900823      -36.6857374646       13.5774555414  LPSA22    1               0.0000000000
     23338       757  ECLIPA    H72S            5.8062721934      -35.7121572049       14.1464415926  LPSA22    1               0.0000000000
     23339       757  ECLIPA    CB2             1.9548929607      -38.8340674689       16.6720734084  LPSA22    1               0.0000000000
     23340       757  ECLIPA    HB2             1.0337849168      -38.1070713233       16.5298168153  LPSA22    1               0.0000000000
     23341       757  ECLIPA    NB2             2.2403262271      -39.6278037829       15.4577284722  LPSA22    1               0.0000000000
     23342       757  ECLIPA    HNB2            2.7182708750      -40.4940380370       15.5965609326  LPSA22    1               0.0000000000
     23343       757  ECLIPA    CA4            -1.2090781331      -41.9487514605       15.7929312798  LPSA22    1               0.0000000000
     23344       757  ECLIPA    HA4            -0.1312099989      -41.9749971372       15.4903430209  LPSA22    1               0.0000000000
     23345       757  ECLIPA    OA4            -1.4394500171      -42.8858822129       16.8012065728  LPSA22    1               0.0000000000
     23346       757  ECLIPA    HOA4           -1.0487246843      -42.6497002150       17.5928838569  LPSA22    1               0.0000000000
     23347       757  ECLIPA    CA5            -1.5221100368      -40.6253101890       16.3547806008  LPSA22    1               0.0000000000
     23348       757  ECLIPA    HA5            -2.6419792161      -40.3910469398       16.5880746347  LPSA22    1               0.0000000000
     23349       757  ECLIPA    OA5            -1.1754474560      -39.6428458696       15.3689671688  LPSA22    1               0.0000000000
     23350       757  ECLIPA    CA1            -1.9020960258      -39.8615346454       14.1076640156  LPSA22    1               0.0000000000
     23351       757  ECLIPA    HA1            -1.2683079656      -39.2454427365       13.4118188108  LPSA22    1               0.0000000000
     23352       757  ECLIPA    OA1            -3.2207409271      -39.3514033158       14.1359876212  LPSA22    1               0.0000000000
     23353       757  ECLIPA    OPA2           -4.2845636588      -38.2072800270       15.9734101064  LPSA22    1               0.0000000000
     23354       757  ECLIPA    OPA3           -2.3071043063      -37.0748537304       14.8300177673  LPSA22    1               0.0000000000
     23355       757  ECLIPA    OPA4           -4.4556522568      -37.2540440192       13.6615320840  LPSA22    1               0.0000000000
     23356       757  ECLIPA    PA             -3.5454350697      -37.9083949984       14.6765383084  LPSA22    1               0.0000000000
     23357       757  ECLIPA    CA3            -1.9820611410      -42.2704009952       14.5219348229  LPSA22    1               0.0000000000
     23358       757  ECLIPA    HA3            -3.1204718135      -42.3239462033       14.7377032538  LPSA22    1               0.0000000000
     23359       757  ECLIPA    OA3            -1.6555204757      -43.6212476938       14.2498111976  LPSA22    1               0.0000000000
     23360       757  ECLIPA    C31            -0.5264996841      -43.8320008871       13.5006246295  LPSA22    1               0.0000000000
     23361       757  ECLIPA    O31            -0.4231464839      -43.7013848621       12.2941239937  LPSA22    1               0.0000000000
     23362       757  ECLIPA    C32             0.4206186151      -44.7574763415       14.2780289507  LPSA22    1               0.0000000000
     23363       757  ECLIPA    H32R            0.5189004266      -45.7047904703       13.7149713840  LPSA22    1               0.0000000000
     23364       757  ECLIPA    H32S            0.0240166473      -44.9435261517       15.2729523512  LPSA22    1               0.0000000000
     23365       757  ECLIPA    CA2            -1.6130043438      -41.2136865872       13.4984733916  LPSA22    1               0.0000000000
     23366       757  ECLIPA    HA2            -0.5245695127      -41.2253333229       13.3982259915  LPSA22    1               0.0000000000
     23367       757  ECLIPA    NA2            -2.3072803873      -41.3761182776       12.2035087571  LPSA22    1               0.0000000000
     23368       757  ECLIPA    HNA2           -2.7977508755      -42.2056478953       12.0865030408  LPSA22    1               0.0000000000
     23369       757  ECLIPA    C73             3.9130330396      -34.7762563506       14.3319064372  LPSA22    1               0.0000000000
     23370       757  ECLIPA    H73R            4.0535666070      -34.1753689437       15.2227416964  LPSA22    1               0.0000000000
     23371       757  ECLIPA    O73             2.5171451894      -35.1600840445       14.2644256719  LPSA22    1               0.0000000000
     23372       757  ECLIPA    C81             1.5149794490      -34.4883859767       14.8555734565  LPSA22    1               0.0000000000
     23373       757  ECLIPA    O81             1.8008595848      -33.5545340381       15.6690894779  LPSA22    1               0.0000000000
     23374       757  ECLIPA    C82             0.1351339955      -34.9572061640       14.3536111794  LPSA22    1               0.0000000000
     23375       757  ECLIPA    H82R           -0.6718357895      -34.4306744275       14.8531840528  LPSA22    1               0.0000000000
     23376       757  ECLIPA    H82S           -0.0158310432      -36.0466725207       14.5323473422  LPSA22    1               0.0000000000
     23377       757  ECLIPA    C83             0.0262336757      -34.7329424711       12.8301722806  LPSA22    1               0.0000000000
     23378       757  ECLIPA    H83R            0.5334447605      -35.5822334835       12.2351841548  LPSA22    1               0.0000000000
     23379       757  ECLIPA    H83S            0.6436939029      -33.8652806342       12.5911296392  LPSA22    1               0.0000000000
     23380       757  ECLIPA    C84            -1.4238846768      -34.7088142240       12.3050927261  LPSA22    1               0.0000000000
     23381       757  ECLIPA    H84R           -1.8728764750      -33.7455734276       12.5767117503  LPSA22    1               0.0000000000
     23382       757  ECLIPA    H84S           -1.8700407219      -35.5791528322       12.7369555497  LPSA22    1               0.0000000000
     23383       757  ECLIPA    C85            -1.4651637280      -34.8866445740       10.7695484051  LPSA22    1               0.0000000000
     23384       757  ECLIPA    H85R           -0.7474128512      -35.6876780237       10.5503608829  LPSA22    1               0.0000000000
     23385       757  ECLIPA    H85S           -1.0632682320      -33.9715722176       10.2367999955  LPSA22    1               0.0000000000
     23386       757  ECLIPA    C86            -2.8628407067      -35.3806285193       10.3034592726  LPSA22    1               0.0000000000
     23387       757  ECLIPA    H86R           -3.5631792326      -34.5356899269        9.9932223571  LPSA22    1               0.0000000000
     23388       757  ECLIPA    H86S           -3.3748359138      -35.9164522995       11.0807540114  LPSA22    1               0.0000000000
     23389       757  ECLIPA    C87            -2.7654070719      -36.4483226340        9.1601018854  LPSA22    1               0.0000000000
     23390       757  ECLIPA    H87R           -3.7491761965      -36.7377422534        8.8049419625  LPSA22    1               0.0000000000
     23391       757  ECLIPA    H87S           -2.3030972705      -37.3990084034        9.5406723883  LPSA22    1               0.0000000000
     23392       757  ECLIPA    C88            -1.8752697758      -35.9888726528        8.0318999685  LPSA22    1               0.0000000000
     23393       757  ECLIPA    H88R           -0.7824741321      -36.0454764398        8.3479828359  LPSA22    1               0.0000000000
     23394       757  ECLIPA    H88S           -1.9559520593      -34.8679954128        7.9254521495  LPSA22    1               0.0000000000
     23395       757  ECLIPA    C89            -2.0122254857      -36.8136711000        6.7101000712  LPSA22    1               0.0000000000
     23396       757  ECLIPA    H89R           -2.5044200045      -37.7963953360        6.8746682686  LPSA22    1               0.0000000000
     23397       757  ECLIPA    H89S           -1.0814913265      -37.0511936087        6.2317001698  LPSA22    1               0.0000000000
     23398       757  ECLIPA    C810           -2.8174520258      -35.9713903780        5.7047246593  LPSA22    1               0.0000000000
     23399       757  ECLIPA    H810R          -2.5461017682      -34.9445740676        6.0108430704  LPSA22    1               0.0000000000
     23400       757  ECLIPA    H810S          -3.8652343180      -36.1469952793        5.8554647029  LPSA22    1               0.0000000000
     23401       757  ECLIPA    C811           -2.5040010939      -36.2132865989        4.2179945741  LPSA22    1               0.0000000000
     23402       757  ECLIPA    H811R          -3.2224429078      -35.9086117282        3.5081125689  LPSA22    1               0.0000000000
     23403       757  ECLIPA    H811S          -2.2618994556      -37.3403192693        4.1819101877  LPSA22    1               0.0000000000
     23404       757  ECLIPA    C812           -1.1488118761      -35.6681430216        3.7413673409  LPSA22    1               0.0000000000
     23405       757  ECLIPA    H812R          -0.9865922199      -36.0684150275        2.6403157337  LPSA22    1               0.0000000000
     23406       757  ECLIPA    H812S          -0.3263804479      -35.8758524270        4.4144737196  LPSA22    1               0.0000000000
     23407       757  ECLIPA    C813           -1.0684715596      -34.1317019692        3.6785234959  LPSA22    1               0.0000000000
     23408       757  ECLIPA    H813R          -1.8388305894      -33.8063755979        2.9398073555  LPSA22    1               0.0000000000
     23409       757  ECLIPA    H813S          -1.2989159292      -33.5744756167        4.6616087352  LPSA22    1               0.0000000000
     23410       757  ECLIPA    C814            0.2483088553      -33.6137710201        3.1377409857  LPSA22    1               0.0000000000
     23411       757  ECLIPA    H814R           0.6542356657      -34.1378046176        2.1719074593  LPSA22    1               0.0000000000
     23412       757  ECLIPA    H814S           1.0175388075      -33.7044326820        3.9166242729  LPSA22    1               0.0000000000
     23413       757  ECLIPA    H814T           0.1774874619      -32.5287184087        2.8964685373  LPSA22    1               0.0000000000
     23414       757  ECLIPA    C74             4.0949215624      -33.8171667591       13.1792855021  LPSA22    1               0.0000000000
     23415       757  ECLIPA    H74R            5.0716921901      -33.3739823856       12.9935747315  LPSA22    1               0.0000000000
     23416       757  ECLIPA    H74S            3.3571440717      -32.9315487127       13.3086690609  LPSA22    1               0.0000000000
     23417       757  ECLIPA    C75             3.5917203881      -34.4607101405       11.8151371119  LPSA22    1               0.0000000000
     23418       757  ECLIPA    H75R            3.1206546614      -33.6036511775       11.2107603889  LPSA22    1               0.0000000000
     23419       757  ECLIPA    H75S            2.8016404301      -35.2115829941       12.0082837783  LPSA22    1               0.0000000000
     23420       757  ECLIPA    C76             4.6843174576      -35.1145862230       10.9251453624  LPSA22    1               0.0000000000
     23421       757  ECLIPA    H76R            4.9301373603      -36.1242953187       11.3555905686  LPSA22    1               0.0000000000
     23422       757  ECLIPA    H76S            5.7033874620      -34.5451810252       10.9731137071  LPSA22    1               0.0000000000
     23423       757  ECLIPA    C77             4.3703061655      -35.3002619708        9.4191603634  LPSA22    1               0.0000000000
     23424       757  ECLIPA    H77R            4.1998527497      -34.3218084652        9.0408775908  LPSA22    1               0.0000000000
     23425       757  ECLIPA    H77S            3.3721566217      -35.7774712975        9.2852383479  LPSA22    1               0.0000000000
     23426       757  ECLIPA    C78             5.4724058425      -36.1894848968        8.8297405752  LPSA22    1               0.0000000000
     23427       757  ECLIPA    H78R            6.4279809731      -35.7805874505        9.1562620580  LPSA22    1               0.0000000000
     23428       757  ECLIPA    H78S            5.3075176625      -37.1901138665        9.3169442960  LPSA22    1               0.0000000000
     23429       757  ECLIPA    C79             5.2611024603      -36.5134165684        7.2570767761  LPSA22    1               0.0000000000
     23430       757  ECLIPA    H79R            4.7511450835      -37.5221740423        7.1763205913  LPSA22    1               0.0000000000
     23431       757  ECLIPA    H79S            6.2463939206      -36.5960500291        6.7882549413  LPSA22    1               0.0000000000
     23432       757  ECLIPA    C710            4.6573926556      -35.4130871943        6.3785096220  LPSA22    1               0.0000000000
     23433       757  ECLIPA    H710R           3.6701486400      -35.1890765511        6.8460783027  LPSA22    1               0.0000000000
     23434       757  ECLIPA    H710S           5.2468726202      -34.5822016257        6.4843026416  LPSA22    1               0.0000000000
     23435       757  ECLIPA    C711            4.4298821481      -35.8235565123        4.9384125046  LPSA22    1               0.0000000000
     23436       757  ECLIPA    H711R           5.4345459417      -36.0355475394        4.5670708729  LPSA22    1               0.0000000000
     23437       757  ECLIPA    H711S           3.7484792603      -36.7120135165        4.9306188492  LPSA22    1               0.0000000000
     23438       757  ECLIPA    C712            3.7518315894      -34.6738683144        4.2148670498  LPSA22    1               0.0000000000
     23439       757  ECLIPA    H712R           4.4236621748      -33.8140330496        4.3130666899  LPSA22    1               0.0000000000
     23440       757  ECLIPA    H712S           2.8847595430      -34.4322917658        4.8522839389  LPSA22    1               0.0000000000
     23441       757  ECLIPA    C713            3.3251446789      -35.0747625620        2.7357390519  LPSA22    1               0.0000000000
     23442       757  ECLIPA    H713R           2.5855177818      -35.9109181645        2.8800411466  LPSA22    1               0.0000000000
     23443       757  ECLIPA    H713S           2.8488332475      -34.1319383894        2.2750064041  LPSA22    1               0.0000000000
     23444       757  ECLIPA    C714            4.5696333029      -35.3965715289        1.8879763961  LPSA22    1               0.0000000000
     23445       757  ECLIPA    H714R           5.2092775546      -34.5115343297        1.7626189762  LPSA22    1               0.0000000000
     23446       757  ECLIPA    H714S           5.0658304938      -36.3208931708        2.2081901572  LPSA22    1               0.0000000000
     23447       757  ECLIPA    H714T           4.1257978647      -35.5656871184        0.9249202435  LPSA22    1               0.0000000000
     23448       757  ECLIPA    C51             2.0760964341      -39.0901807529       14.2380633031  LPSA22    1               0.0000000000
     23449       757  ECLIPA    O51             1.3338049408      -38.0907134181       14.1304636378  LPSA22    1               0.0000000000
     23450       757  ECLIPA    C52             2.8774104356      -39.6687531209       13.0157035712  LPSA22    1               0.0000000000
     23451       757  ECLIPA    H52R            3.8686484721      -39.2558793138       12.8950255930  LPSA22    1               0.0000000000
     23452       757  ECLIPA    H52S            2.9268795127      -40.7145083545       13.2222025935  LPSA22    1               0.0000000000
     23453       757  ECLIPA    C53             1.9450066593      -39.5289793365       11.7526064304  LPSA22    1               0.0000000000
     23454       757  ECLIPA    H53R            0.8907331252      -39.5071542766       12.0082431084  LPSA22    1               0.0000000000
     23455       757  ECLIPA    O53             2.3680485667      -40.5575733694       10.8431816314  LPSA22    1               0.0000000000
     23456       757  ECLIPA    C61             1.4992911124      -41.4975766328       10.5090573566  LPSA22    1               0.0000000000
     23457       757  ECLIPA    O61             0.3650366715      -41.5660058042       10.8659713306  LPSA22    1               0.0000000000
     23458       757  ECLIPA    C62             2.1836693758      -42.5053403535        9.5765835255  LPSA22    1               0.0000000000
     23459       757  ECLIPA    H62R            2.7900663725      -43.1817359875       10.2152837125  LPSA22    1               0.0000000000
     23460       757  ECLIPA    H62S            2.9795294194      -41.9388517370        9.0470049452  LPSA22    1               0.0000000000
     23461       757  ECLIPA    C63             1.1593832117      -43.2475147692        8.6803029234  LPSA22    1               0.0000000000
     23462       757  ECLIPA    H63R            0.4726372617      -42.4843374240        8.2798705976  LPSA22    1               0.0000000000
     23463       757  ECLIPA    H63S            0.5193211090      -43.9947208535        9.3252199642  LPSA22    1               0.0000000000
     23464       757  ECLIPA    C64             1.6723809417      -44.0209341053        7.5279067597  LPSA22    1               0.0000000000
     23465       757  ECLIPA    H64R            0.8575648446      -44.5990331587        6.9620099216  LPSA22    1               0.0000000000
     23466       757  ECLIPA    H64S            2.4465277407      -44.7521192708        7.9657393466  LPSA22    1               0.0000000000
     23467       757  ECLIPA    C65             2.4317177048      -43.0656997312        6.5414948800  LPSA22    1               0.0000000000
     23468       757  ECLIPA    H65R            3.2159555144      -42.6826414406        7.2423230371  LPSA22    1               0.0000000000
     23469       757  ECLIPA    H65S            1.7360227778      -42.2753945335        6.1828980290  LPSA22    1               0.0000000000
     23470       757  ECLIPA    C66             3.0542347658      -43.7139944039        5.2222643966  LPSA22    1               0.0000000000
     23471       757  ECLIPA    H66R            3.7776009857      -44.4620722518        5.5395647249  LPSA22    1               0.0000000000
     23472       757  ECLIPA    H66S            3.5801358754      -42.8018683508        4.8113963288  LPSA22    1               0.0000000000
     23473       757  ECLIPA    C67             2.1221969553      -44.2587309944        4.1696839457  LPSA22    1               0.0000000000
     23474       757  ECLIPA    H67R            1.3773948939      -44.9448043848        4.5058181646  LPSA22    1               0.0000000000
     23475       757  ECLIPA    H67S            2.7174739814      -44.7493969454        3.3478820057  LPSA22    1               0.0000000000
     23476       757  ECLIPA    C68             1.2607818707      -43.2153228571        3.5077075145  LPSA22    1               0.0000000000
     23477       757  ECLIPA    H68R            1.7560160407      -42.3469965700        3.0112508411  LPSA22    1               0.0000000000
     23478       757  ECLIPA    H68S            0.6033880940      -42.9286705516        4.3087918325  LPSA22    1               0.0000000000
     23479       757  ECLIPA    C69             0.5541782517      -43.8217713053        2.2963532923  LPSA22    1               0.0000000000
     23480       757  ECLIPA    H69R            0.3799937392      -44.9148849043        2.3203210098  LPSA22    1               0.0000000000
     23481       757  ECLIPA    H69S            1.2567097676      -43.7405169301        1.4693744207  LPSA22    1               0.0000000000
     23482       757  ECLIPA    C610           -0.7207289823      -43.1487815428        1.9396251084  LPSA22    1               0.0000000000
     23483       757  ECLIPA    H610R          -0.6167082489      -42.0352384084        2.0603347121  LPSA22    1               0.0000000000
     23484       757  ECLIPA    H610S          -1.5266512532      -43.4306075987        2.6933643884  LPSA22    1               0.0000000000
     23485       757  ECLIPA    C611           -1.2738405682      -43.5642638085        0.5312153135  LPSA22    1               0.0000000000
     23486       757  ECLIPA    H611R          -1.4142991014      -44.6619955914        0.5735373188  LPSA22    1               0.0000000000
     23487       757  ECLIPA    H611S          -2.3009683721      -43.2783867760        0.3609598123  LPSA22    1               0.0000000000
     23488       757  ECLIPA    C612           -0.3787655969      -43.0395798289       -0.5788949292  LPSA22    1               0.0000000000
     23489       757  ECLIPA    H612R          -0.4713209893      -41.9174580788       -0.6060949542  LPSA22    1               0.0000000000
     23490       757  ECLIPA    H612S           0.6696951396      -43.2230592458       -0.3132441764  LPSA22    1               0.0000000000
     23491       757  ECLIPA    H612T          -0.6553096566      -43.4421488701       -1.5574606966  LPSA22    1               0.0000000000
     23492       757  ECLIPA    C54             2.3288767451      -38.1532623381       11.1776054589  LPSA22    1               0.0000000000
     23493       757  ECLIPA    H54R            3.4212165673      -38.1827394561       10.8869876633  LPSA22    1               0.0000000000
     23494       757  ECLIPA    H54S            2.2638028048      -37.3773661778       11.9574517429  LPSA22    1               0.0000000000
     23495       757  ECLIPA    C55             1.5463741098      -37.6022169730        9.9916770240  LPSA22    1               0.0000000000
     23496       757  ECLIPA    H55R            1.7085981234      -36.5199591767        9.7856946516  LPSA22    1               0.0000000000
     23497       757  ECLIPA    H55S            0.4327947500      -37.7215215138       10.2436295858  LPSA22    1               0.0000000000
     23498       757  ECLIPA    C56             2.0447769668      -38.2952295802        8.7515486822  LPSA22    1               0.0000000000
     23499       757  ECLIPA    H56R            1.8764373185      -39.4122640926        8.8382497819  LPSA22    1               0.0000000000
     23500       757  ECLIPA    H56S            3.0452989767      -38.1513876556        8.4741334449  LPSA22    1               0.0000000000
     23501       757  ECLIPA    C57             1.1991782512      -38.0817887171        7.4395707935  LPSA22    1               0.0000000000
     23502       757  ECLIPA    H57R            1.0704115631      -37.0288174348        7.1827428724  LPSA22    1               0.0000000000
     23503       757  ECLIPA    H57S            0.1608824905      -38.4678244031        7.5196553379  LPSA22    1               0.0000000000
     23504       757  ECLIPA    C58             1.8275415213      -38.8945177618        6.2350750625  LPSA22    1               0.0000000000
     23505       757  ECLIPA    H58R            2.9466313018      -38.7804405981        6.2095761879  LPSA22    1               0.0000000000
     23506       757  ECLIPA    H58S            1.7574062817      -39.9794278624        6.5224540661  LPSA22    1               0.0000000000
     23507       757  ECLIPA    C59             1.2413297416      -38.4469730747        4.8667186835  LPSA22    1               0.0000000000
     23508       757  ECLIPA    H59R            1.4001439126      -37.3735759604        4.6589989540  LPSA22    1               0.0000000000
     23509       757  ECLIPA    H59S            0.1794540776      -38.6772285664        5.0825555512  LPSA22    1               0.0000000000
     23510       757  ECLIPA    C510            1.9423512988      -39.1247055648        3.6752379292  LPSA22    1               0.0000000000
     23511       757  ECLIPA    H510R           2.1228835222      -40.2479545948        3.7937959224  LPSA22    1               0.0000000000
     23512       757  ECLIPA    H510S           3.0030476089      -38.6494588603        3.4613250382  LPSA22    1               0.0000000000
     23513       757  ECLIPA    C511            1.2597752484      -38.9640827153        2.3004848829  LPSA22    1               0.0000000000
     23514       757  ECLIPA    H511R           0.4462228886      -39.7140099478        2.2679211996  LPSA22    1               0.0000000000
     23515       757  ECLIPA    H511S           0.7449687106      -37.9652705074        2.1940961976  LPSA22    1               0.0000000000
     23516       757  ECLIPA    C512            2.1338319938      -39.2250241307        1.0189424135  LPSA22    1               0.0000000000
     23517       757  ECLIPA    H512R           1.5956001218      -38.8608876208        0.0815295424  LPSA22    1               0.0000000000
     23518       757  ECLIPA    H512S           3.0885821722      -38.6929140088        1.1129704346  LPSA22    1               0.0000000000
     23519       757  ECLIPA    C513            2.3418506577      -40.7628025437        0.6457389972  LPSA22    1               0.0000000000
     23520       757  ECLIPA    H513R           1.3477400697      -41.2891786937        0.5010832175  LPSA22    1               0.0000000000
     23521       757  ECLIPA    H513S           2.8122236502      -41.2586603463        1.4088770719  LPSA22    1               0.0000000000
     23522       757  ECLIPA    C514            3.0819978766      -40.8985669470       -0.6567184026  LPSA22    1               0.0000000000
     23523       757  ECLIPA    H514R           4.0209256244      -40.3461242388       -0.6273993866  LPSA22    1               0.0000000000
     23524       757  ECLIPA    H514S           3.3605110362      -41.9537250128       -0.7024724270  LPSA22    1               0.0000000000
     23525       757  ECLIPA    H514T           2.4406551425      -40.5414371214       -1.5427815912  LPSA22    1               0.0000000000
     23526       757  ECLIPA    C33             1.9226051979      -44.2610860078       14.4880792826  LPSA22    1               0.0000000000
     23527       757  ECLIPA    H33R            2.5166973195      -45.1507963521       14.8828993596  LPSA22    1               0.0000000000
     23528       757  ECLIPA    O33             1.9844501457      -43.2430369455       15.4699768821  LPSA22    1               0.0000000000
     23529       757  ECLIPA    HO33            1.8486951945      -43.6310295842       16.2926205744  LPSA22    1               0.0000000000
     23530       757  ECLIPA    C34             2.6671634191      -43.7523906163       13.2255459338  LPSA22    1               0.0000000000
     23531       757  ECLIPA    H34R            2.1261097743      -42.9138610312       12.8010908313  LPSA22    1               0.0000000000
     23532       757  ECLIPA    H34S            2.6109224717      -44.5390508726       12.3772221142  LPSA22    1               0.0000000000
     23533       757  ECLIPA    C35             4.1310867307      -43.3196863884       13.4256256262  LPSA22    1               0.0000000000
     23534       757  ECLIPA    H35R            4.7078424532      -44.2011480526       13.6963698038  LPSA22    1               0.0000000000
     23535       757  ECLIPA    H35S            4.1781410553      -42.6160776802       14.2668166019  LPSA22    1               0.0000000000
     23536       757  ECLIPA    C36             4.8806267354      -42.7888075419       12.1865608177  LPSA22    1               0.0000000000
     23537       757  ECLIPA    H36R            3.9940371981      -42.2906109149       11.7430812241  LPSA22    1               0.0000000000
     23538       757  ECLIPA    H36S            5.2894812803      -43.5775370224       11.4785220412  LPSA22    1               0.0000000000
     23539       757  ECLIPA    C37             5.8435840330      -41.6666447757       12.5255831563  LPSA22    1               0.0000000000
     23540       757  ECLIPA    H37R            6.8744228766      -42.2252507235       12.6765215637  LPSA22    1               0.0000000000
     23541       757  ECLIPA    H37S            5.6342806922      -41.2145179274       13.5128993321  LPSA22    1               0.0000000000
     23542       757  ECLIPA    C38             6.0534186129      -40.5828424308       11.4317274953  LPSA22    1               0.0000000000
     23543       757  ECLIPA    H38R            5.2512218025      -39.8266629003       11.4067421357  LPSA22    1               0.0000000000
     23544       757  ECLIPA    H38S            6.9440757973      -39.9971724213       11.7230999881  LPSA22    1               0.0000000000
     23545       757  ECLIPA    C39             6.1306642317      -41.2018258074       10.0213367345  LPSA22    1               0.0000000000
     23546       757  ECLIPA    H39R            5.2242975976      -41.8300795035        9.8128797222  LPSA22    1               0.0000000000
     23547       757  ECLIPA    H39S            7.1080682611      -41.7510123696        9.9697980947  LPSA22    1               0.0000000000
     23548       757  ECLIPA    C310            6.2796448007      -40.2194912489        8.8401719124  LPSA22    1               0.0000000000
     23549       757  ECLIPA    H310R           7.2958261338      -39.7214517476        9.0626900142  LPSA22    1               0.0000000000
     23550       757  ECLIPA    H310S           5.4687757755      -39.4356234903        8.8945759064  LPSA22    1               0.0000000000
     23551       757  ECLIPA    C311            5.9660960497      -40.8609518543        7.5676235846  LPSA22    1               0.0000000000
     23552       757  ECLIPA    H311R           6.3596992099      -41.9090379226        7.5507520616  LPSA22    1               0.0000000000
     23553       757  ECLIPA    H311S           4.8698852142      -40.9228505400        7.2851462164  LPSA22    1               0.0000000000
     23554       757  ECLIPA    C312            6.4976862824      -40.1080383036        6.3280121142  LPSA22    1               0.0000000000
     23555       757  ECLIPA    H312R           6.4511748824      -39.0010025865        6.4861373960  LPSA22    1               0.0000000000
     23556       757  ECLIPA    H312S           7.5649312317      -40.4108724284        6.1820758986  LPSA22    1               0.0000000000
     23557       757  ECLIPA    C313            5.7644222634      -40.4468942824        4.9895779706  LPSA22    1               0.0000000000
     23558       757  ECLIPA    H313R           6.0927944759      -41.4183392977        4.7825120466  LPSA22    1               0.0000000000
     23559       757  ECLIPA    H313S           4.6514051936      -40.4725526828        5.1572698764  LPSA22    1               0.0000000000
     23560       757  ECLIPA    C314            6.0495612185      -39.5745262885        3.8116661598  LPSA22    1               0.0000000000
     23561       757  ECLIPA    H314R           7.1547073275      -39.5814590838        3.6067793993  LPSA22    1               0.0000000000
     23562       757  ECLIPA    H314S           5.5314870806      -39.8347823154        2.8849361441  LPSA22    1               0.0000000000
     23563       757  ECLIPA    H314T           5.7927483282      -38.4820283162        4.0446347774  LPSA22    1               0.0000000000
     23564       757  ECLIPA    C11            -2.4706597590      -40.4514540390       11.2900808200  LPSA22    1               0.0000000000
     23565       757  ECLIPA    O11            -1.8702718382      -39.3944852733       11.1394597694  LPSA22    1               0.0000000000
     23566       757  ECLIPA    C12            -3.6287947708      -40.7255807186       10.2853014675  LPSA22    1               0.0000000000
     23567       757  ECLIPA    H12R           -4.5053348873      -40.0578971997       10.4852637814  LPSA22    1               0.0000000000
     23568       757  ECLIPA    H12S           -3.9081698677      -41.7863805284       10.5222272274  LPSA22    1               0.0000000000
     23569       757  ECLIPA    C13            -3.2617705291      -40.6208872390        8.8110583416  LPSA22    1               0.0000000000
     23570       757  ECLIPA    H13R           -2.6069622901      -39.6972506690        8.5839874118  LPSA22    1               0.0000000000
     23571       757  ECLIPA    O13            -4.5288610750      -40.4237857616        8.1311342176  LPSA22    1               0.0000000000
     23572       757  ECLIPA    HO13           -4.3870119844      -39.9968285625        7.3064966676  LPSA22    1               0.0000000000
     23573       757  ECLIPA    C14            -2.4892793118      -41.8704739742        8.4581579993  LPSA22    1               0.0000000000
     23574       757  ECLIPA    H14R           -2.9147705467      -42.8089322719        8.9706443184  LPSA22    1               0.0000000000
     23575       757  ECLIPA    H14S           -1.4276194805      -41.6860028883        8.7243868424  LPSA22    1               0.0000000000
     23576       757  ECLIPA    C15            -2.4785385103      -42.1960296878        6.9526486677  LPSA22    1               0.0000000000
     23577       757  ECLIPA    H15R           -3.4777307063      -42.2022972567        6.5500123177  LPSA22    1               0.0000000000
     23578       757  ECLIPA    H15S           -1.9982873586      -43.1730423680        6.8782608049  LPSA22    1               0.0000000000
     23579       757  ECLIPA    C16            -1.6872809125      -41.1239153114        6.1622847334  LPSA22    1               0.0000000000
     23580       757  ECLIPA    H16R           -0.5520895284      -41.2766611941        6.2733383262  LPSA22    1               0.0000000000
     23581       757  ECLIPA    H16S           -1.7749912059      -40.1746922219        6.7182496574  LPSA22    1               0.0000000000
     23582       757  ECLIPA    C17            -2.0517857658      -41.0779226653        4.6801229578  LPSA22    1               0.0000000000
     23583       757  ECLIPA    H17R           -2.0733601409      -42.1815069470        4.4246758429  LPSA22    1               0.0000000000
     23584       757  ECLIPA    H17S           -1.3214106056      -40.6204687327        4.0046542873  LPSA22    1               0.0000000000
     23585       757  ECLIPA    C18            -3.3888183277      -40.4276618025        4.4504458171  LPSA22    1               0.0000000000
     23586       757  ECLIPA    H18R           -4.0188097060      -40.9903477543        5.0865821920  LPSA22    1               0.0000000000
     23587       757  ECLIPA    H18S           -3.3094268811      -39.3507558189        4.7749867078  LPSA22    1               0.0000000000
     23588       757  ECLIPA    C19            -3.8288880962      -40.5041035574        3.0097966450  LPSA22    1               0.0000000000
     23589       757  ECLIPA    H19R           -4.8420411449      -40.1372001000        2.9245509529  LPSA22    1               0.0000000000
     23590       757  ECLIPA    H19S           -3.7694000553      -41.5749427011        2.6238151240  LPSA22    1               0.0000000000
     23591       757  ECLIPA    C110           -2.9754554521      -39.5822530646        2.1045801788  LPSA22    1               0.0000000000
     23592       757  ECLIPA    H110R          -2.8759367331      -38.5491609684        2.4416701971  LPSA22    1               0.0000000000
     23593       757  ECLIPA    H110S          -2.0024179916      -40.1183589764        2.1583327743  LPSA22    1               0.0000000000
     23594       757  ECLIPA    C111           -3.5098024263      -39.6439166091        0.7563571155  LPSA22    1               0.0000000000
     23595       757  ECLIPA    H111R          -3.7958831965      -40.6728100943        0.3999767799  LPSA22    1               0.0000000000
     23596       757  ECLIPA    H111S          -4.4326348812      -39.1260835283        0.7977177860  LPSA22    1               0.0000000000
     23597       757  ECLIPA    C112           -2.6328809924      -38.9440660143       -0.2937360943  LPSA22    1               0.0000000000
     23598       757  ECLIPA    H112R          -2.5590309634      -37.9386231766        0.1973446929  LPSA22    1               0.0000000000
     23599       757  ECLIPA    H112S          -1.5917595779      -39.2677386783       -0.2177998937  LPSA22    1               0.0000000000
     23600       757  ECLIPA    C113           -3.0728374152      -39.1856372271       -1.7468031795  LPSA22    1               0.0000000000
     23601       757  ECLIPA    H113R          -2.9153852489      -40.2640218143       -1.9802017524  LPSA22    1               0.0000000000
     23602       757  ECLIPA    H113S          -4.1545343256      -39.0556969957       -1.8531093719  LPSA22    1               0.0000000000
     23603       757  ECLIPA    C114           -2.5322933724      -38.2921055834       -2.8344928043  LPSA22    1               0.0000000000
     23604       757  ECLIPA    H114R          -2.5758357109      -37.2076335971       -2.7829422503  LPSA22    1               0.0000000000
     23605       757  ECLIPA    H114S          -1.4409471322      -38.5175646768       -2.9951089580  LPSA22    1               0.0000000000
     23606       757  ECLIPA    H114T          -3.1597362473      -38.4061014715       -3.7399523103  LPSA22    1               0.0000000000
     23607       758  AKDO      C1              3.4777232348      -39.1040648260       22.4410509549  LPSA22    2               0.0000000000
     23608       758  AKDO      O11             4.4591371448      -38.2857964335       22.4913720772  LPSA22    2               0.0000000000
     23609       758  AKDO      O12             3.4417214399      -40.3139469163       22.0800765534  LPSA22    2               0.0000000000
     23610       758  AKDO      C2              2.1323499823      -38.5261405561       22.8913181237  LPSA22    2               0.0000000000
     23611       758  AKDO      C6              1.1545813386      -36.5731439055       23.8039205188  LPSA22    2               0.0000000000
     23612       758  AKDO      H6              0.5398895446      -36.4662614911       22.9487387861  LPSA22    2               0.0000000000
     23613       758  AKDO      O6              2.4062280503      -37.2759527807       23.4267274814  LPSA22    2               0.0000000000
     23614       758  AKDO      C3              1.4841447656      -39.3185600831       23.9587385105  LPSA22    2               0.0000000000
     23615       758  AKDO      H31             2.0916627652      -39.5295275785       24.7868435866  LPSA22    2               0.0000000000
     23616       758  AKDO      H32             1.1216010245      -40.3172820369       23.4151264596  LPSA22    2               0.0000000000
     23617       758  AKDO      C4              0.1805884935      -38.6485782578       24.3842593775  LPSA22    2               0.0000000000
     23618       758  AKDO      H4             -0.4790768092      -38.4555399978       23.5563617270  LPSA22    2               0.0000000000
     23619       758  AKDO      O4             -0.4823000387      -39.4693147468       25.3355834555  LPSA22    2               0.0000000000
     23620       758  AKDO      C5              0.3782707447      -37.3062452300       24.9292437177  LPSA22    2               0.0000000000
     23621       758  AKDO      H5             -0.6009847326      -36.7648409894       25.0107888161  LPSA22    2               0.0000000000
     23622       758  AKDO      O5              1.1319444867      -37.4373987803       26.2083878813  LPSA22    2               0.0000000000
     23623       758  AKDO      C7              1.4101961069      -35.0462807068       24.1981149098  LPSA22    2               0.0000000000
     23624       758  AKDO      H7              2.0277749172      -35.0308439146       25.0939202098  LPSA22    2               0.0000000000
     23625       758  AKDO      O7              0.1664818448      -34.3120748450       24.3482682347  LPSA22    2               0.0000000000
     23626       758  AKDO      HO7            -0.1309922563      -34.1478608981       23.4945166536  LPSA22    2               0.0000000000
     23627       758  AKDO      C8              2.1772608452      -34.4148060159       22.9864433882  LPSA22    2               0.0000000000
     23628       758  AKDO      H81             3.1172482873      -35.0127905821       22.9153150275  LPSA22    2               0.0000000000
     23629       758  AKDO      H82             1.4783731051      -34.5060013594       22.0745354517  LPSA22    2               0.0000000000
     23630       758  AKDO      O8              2.5117717365      -33.0114759198       23.3537996748  LPSA22    2               0.0000000000
     23631       758  AKDO      HO8             3.3727667110      -32.7801494985       22.9179804014  LPSA22    2               0.0000000000
     23632       759  AKDO      C1             -2.1575962784      -40.1524720610       23.8027969005  LPSA22    3               1.0000000000
     23633       759  AKDO      O11            -1.8115233159      -40.5427053871       22.6471489042  LPSA22    3               1.0000000000
     23634       759  AKDO      O12            -3.1684994581      -39.4584180867       24.0656860145  LPSA22    3               1.0000000000
     23635       759  AKDO      C2             -1.3309080229      -40.5524198970       25.0166033796  LPSA22    3               1.0000000000
     23636       759  AKDO      C6              0.3623568341      -42.0842085469       25.7688829792  LPSA22    3               1.0000000000
     23637       759  AKDO      H6              1.0866844016      -41.2318528482       25.9810553331  LPSA22    3               1.0000000000
     23638       759  AKDO      O6             -0.5020473856      -41.7270099804       24.7076657818  LPSA22    3               1.0000000000
     23639       759  AKDO      C3             -2.1257342455      -40.8382851733       26.3187707743  LPSA22    3               1.0000000000
     23640       759  AKDO      H31            -2.8468607843      -41.7403101782       26.1504935106  LPSA22    3               1.0000000000
     23641       759  AKDO      H32            -2.7520668579      -39.9781694608       26.5929217108  LPSA22    3               1.0000000000
     23642       759  AKDO      C4             -1.1385834874      -41.1858608344       27.4036122013  LPSA22    3               1.0000000000
     23643       759  AKDO      H4             -0.3726319269      -40.4043009183       27.4051754129  LPSA22    3               1.0000000000
     23644       759  AKDO      O4             -1.6562525587      -41.2805208082       28.7388570077  LPSA22    3               1.0000000000
     23645       759  AKDO      HO4            -1.2501229633      -40.7009489874       29.3717785514  LPSA22    3               1.0000000000
     23646       759  AKDO      C5             -0.4104563418      -42.3412047597       27.0369167275  LPSA22    3               1.0000000000
     23647       759  AKDO      H5              0.2651364177      -42.6425519089       27.9236884022  LPSA22    3               1.0000000000
     23648       759  AKDO      O5             -1.2958862922      -43.4612576283       26.8495261943  LPSA22    3               1.0000000000
     23649       759  AKDO      HO5            -1.9263697124      -43.2619851783       26.1887877298  LPSA22    3               1.0000000000
     23650       759  AKDO      C7              1.1407088208      -43.2976500985       25.3258859863  LPSA22    3               1.0000000000
     23651       759  AKDO      H7              0.4600265543      -44.1775107376       25.1324849511  LPSA22    3               1.0000000000
     23652       759  AKDO      O7              2.0996926169      -43.6334125010       26.3661029982  LPSA22    3               1.0000000000
     23653       759  AKDO      HO7             2.4852919015      -44.5122001579       26.1647669547  LPSA22    3               1.0000000000
     23654       759  AKDO      C8              1.9376221437      -42.8999019629       24.1539635864  LPSA22    3               1.0000000000
     23655       759  AKDO      H81             1.2813829067      -42.5600805901       23.3419478721  LPSA22    3               1.0000000000
     23656       759  AKDO      H82             2.6946451171      -42.1121298040       24.2853144505  LPSA22    3               1.0000000000
     23657       759  AKDO      O8              2.6429399013      -44.0136908349       23.6541307456  LPSA22    3               1.0000000000
     23658       759  AKDO      HO8             1.8707024453      -44.4496057468       23.2473452835  LPSA22    3               1.0000000000
     23659       760  AHEP      C1              0.8410958572      -36.5541070623       27.2793229502  LPSA22    4               2.0000000000
     23660       760  AHEP      H1              1.4653314020      -35.7028184854       26.8517192453  LPSA22    4               2.0000000000
     23661       760  AHEP      C5             -1.4316288077      -36.9547342459       28.0185271385  LPSA22    4               2.0000000000
     23662       760  AHEP      H5             -1.2329512309      -38.0009962025       27.5619054335  LPSA22    4               2.0000000000
     23663       760  AHEP      O5             -0.5008090472      -36.0746845768       27.3942805697  LPSA22    4               2.0000000000
     23664       760  AHEP      C2              1.3520313513      -36.7581478020       28.6827861277  LPSA22    4               2.0000000000
     23665       760  AHEP      H2              2.3650536030      -37.1709442668       28.7442425996  LPSA22    4               2.0000000000
     23666       760  AHEP      O2              1.3892337092      -35.5436145790       29.3407203943  LPSA22    4               2.0000000000
     23667       760  AHEP      HO2             2.1750952200      -35.4883595809       29.8507927467  LPSA22    4               2.0000000000
     23668       760  AHEP      C3              0.4306331251      -37.6984655493       29.4857672188  LPSA22    4               2.0000000000
     23669       760  AHEP      H3              0.4859898336      -38.7647998044       29.2269906369  LPSA22    4               2.0000000000
     23670       760  AHEP      O3              0.8140092562      -37.7189582325       30.7882097304  LPSA22    4               2.0000000000
     23671       760  AHEP      C4             -0.9768276373      -37.1603260833       29.4546205599  LPSA22    4               2.0000000000
     23672       760  AHEP      H4             -1.1345477509      -36.1846936975       29.9788637739  LPSA22    4               2.0000000000
     23673       760  AHEP      O4             -1.8376372879      -38.1077380051       30.0145912217  LPSA22    4               2.0000000000
     23674       760  AHEP      P4             -2.5577250868      -37.8991224274       31.4978499249  LPSA22    4               2.0000000000
     23675       760  AHEP      OP42           -2.6920111993      -39.2150555444       32.1560374192  LPSA22    4               2.0000000000
     23676       760  AHEP      OP43           -3.8719707470      -37.3386678863       31.0397938518  LPSA22    4               2.0000000000
     23677       760  AHEP      OP44           -1.7767710045      -36.8189801671       32.3098937101  LPSA22    4               2.0000000000
     23678       760  AHEP      C6             -2.9140601055      -36.4834847091       27.7982482844  LPSA22    4               2.0000000000
     23679       760  AHEP      H6             -3.5598922611      -37.3689003587       28.0833143566  LPSA22    4               2.0000000000
     23680       760  AHEP      O6             -3.1603223692      -35.4100078987       28.7103505027  LPSA22    4               2.0000000000
     23681       760  AHEP      HO6            -4.0040707430      -35.5408586191       29.2203787365  LPSA22    4               2.0000000000
     23682       760  AHEP      C7             -3.2440485619      -36.0997340961       26.3054198206  LPSA22    4               2.0000000000
     23683       760  AHEP      H71            -4.3619251252      -35.9279371391       26.1576126064  LPSA22    4               2.0000000000
     23684       760  AHEP      H72            -2.7913338921      -36.8552059428       25.6323487339  LPSA22    4               2.0000000000
     23685       760  AHEP      O7             -2.6529031462      -34.8462582147       25.9755159574  LPSA22    4               2.0000000000
     23686       760  AHEP      HO7            -3.2293449215      -34.1485803184       26.3256794122  LPSA22    4               2.0000000000
     23687       761  AHEP      C1              1.2255746880      -38.9451424379       31.4342177374  LPSA22    5               3.0000000000
     23688       761  AHEP      H1              0.7194967929      -39.8367967109       30.9794447437  LPSA22    5               3.0000000000
     23689       761  AHEP      C5              3.4086290968      -38.1218400883       31.9165413065  LPSA22    5               3.0000000000
     23690       761  AHEP      H5              2.9786336272      -37.1106030604       31.6031509785  LPSA22    5               3.0000000000
     23691       761  AHEP      O5              2.6444985000      -39.1472760059       31.3013865768  LPSA22    5               3.0000000000
     23692       761  AHEP      C2              0.9341136889      -38.9917920561       32.9718957084  LPSA22    5               3.0000000000
     23693       761  AHEP      H2             -0.1739970184      -38.7649419284       33.0921707216  LPSA22    5               3.0000000000
     23694       761  AHEP      O2              1.1881140131      -40.2923583308       33.4691025827  LPSA22    5               3.0000000000
     23695       761  AHEP      HO2             0.3680290738      -40.7443973448       33.6403503244  LPSA22    5               3.0000000000
     23696       761  AHEP      C3              1.7105193338      -37.8753096886       33.7004304811  LPSA22    5               3.0000000000
     23697       761  AHEP      H3              1.4024095580      -36.8885299757       33.3375632548  LPSA22    5               3.0000000000
     23698       761  AHEP      O3              1.5501814501      -37.8224056602       35.1462238331  LPSA22    5               3.0000000000
     23699       761  AHEP      C4              3.1578232238      -38.1287502101       33.4524658705  LPSA22    5               3.0000000000
     23700       761  AHEP      H4              3.4818949186      -39.1332707819       33.8188816395  LPSA22    5               3.0000000000
     23701       761  AHEP      O4              3.9196515051      -37.0547852972       34.0881196202  LPSA22    5               3.0000000000
     23702       761  AHEP      P4              4.9293668143      -37.3703108630       35.2810123301  LPSA22    5               3.0000000000
     23703       761  AHEP      OP42            5.3583562394      -36.0261628880       35.8202965042  LPSA22    5               3.0000000000
     23704       761  AHEP      OP43            6.1044960061      -38.1301497766       34.6107506294  LPSA22    5               3.0000000000
     23705       761  AHEP      OP44            4.1988905954      -38.2708361691       36.2417033353  LPSA22    5               3.0000000000
     23706       761  AHEP      C6              4.8998531903      -38.1678652588       31.5493607386  LPSA22    5               3.0000000000
     23707       761  AHEP      H6              5.4490114535      -37.3009784450       31.9533288164  LPSA22    5               3.0000000000
     23708       761  AHEP      O6              5.4905461462      -39.3653803195       32.0428602265  LPSA22    5               3.0000000000
     23709       761  AHEP      HO6             5.2876175233      -40.1962739846       31.5367188277  LPSA22    5               3.0000000000
     23710       761  AHEP      C7              5.0681058574      -37.9579770938       30.0822725317  LPSA22    5               3.0000000000
     23711       761  AHEP      H71             6.0242384836      -37.4146069138       29.9169108581  LPSA22    5               3.0000000000
     23712       761  AHEP      H72             4.2682409411      -37.3511068638       29.6179339851  LPSA22    5               3.0000000000
     23713       761  AHEP      O7              5.2511458717      -39.2639208104       29.4957736452  LPSA22    5               3.0000000000
     23714       762  AHEP      C1              4.1391388165      -39.7303503835       28.7926622005  LPSA22    6               4.0000000000
     23715       762  AHEP      H1              3.2168587729      -39.0992210004       29.0422981953  LPSA22    6               4.0000000000
     23716       762  AHEP      C5              5.4533975005      -40.4209524205       26.9237617191  LPSA22    6               4.0000000000
     23717       762  AHEP      H5              6.3441509263      -40.1005487549       27.4818042043  LPSA22    6               4.0000000000
     23718       762  AHEP      O5              4.3109246280      -39.6646281379       27.3547530115  LPSA22    6               4.0000000000
     23719       762  AHEP      C2              3.8377445696      -41.1339131291       29.2397872647  LPSA22    6               4.0000000000
     23720       762  AHEP      H2              3.6330311470      -41.0897400165       30.3523091474  LPSA22    6               4.0000000000
     23721       762  AHEP      O2              2.6216016721      -41.6132936246       28.7267108980  LPSA22    6               4.0000000000
     23722       762  AHEP      HO2             2.0468768255      -41.6257403769       29.4669064354  LPSA22    6               4.0000000000
     23723       762  AHEP      C3              5.0424284877      -42.0253873996       28.8468391403  LPSA22    6               4.0000000000
     23724       762  AHEP      H3              5.9014361932      -41.6728962598       29.4311808254  LPSA22    6               4.0000000000
     23725       762  AHEP      O3              4.8674035237      -43.4778568150       29.2225362108  LPSA22    6               4.0000000000
     23726       762  AHEP      HO3             5.2886810467      -43.7660841742       29.9865592523  LPSA22    6               4.0000000000
     23727       762  AHEP      C4              5.2099770661      -41.8899808112       27.2761740859  LPSA22    6               4.0000000000
     23728       762  AHEP      H4              4.3766126573      -42.3817470955       26.7944950683  LPSA22    6               4.0000000000
     23729       762  AHEP      O4              6.3239300736      -42.6564111397       26.7938835778  LPSA22    6               4.0000000000
     23730       762  AHEP      HO4             7.1283644976      -42.1205604729       27.1589530594  LPSA22    6               4.0000000000
     23731       762  AHEP      C6              5.8210735466      -40.1758963246       25.4906533340  LPSA22    6               4.0000000000
     23732       762  AHEP      H6              6.7460588127      -40.7227860286       25.3442628137  LPSA22    6               4.0000000000
     23733       762  AHEP      O6              4.8863077153      -40.8394263325       24.6375675438  LPSA22    6               4.0000000000
     23734       762  AHEP      HO6             4.5060669813      -40.2304262636       23.9977784313  LPSA22    6               4.0000000000
     23735       762  AHEP      C7              6.1081872546      -38.7358164255       25.1799756221  LPSA22    6               4.0000000000
     23736       762  AHEP      H71             6.5337169682      -38.6965786205       24.1408078076  LPSA22    6               4.0000000000
     23737       762  AHEP      H72             6.8548481279      -38.4081994038       25.9252229174  LPSA22    6               4.0000000000
     23738       762  AHEP      O7              4.9894332788      -37.9022152302       25.2517430265  LPSA22    6               4.0000000000
     23739       762  AHEP      HO7             4.9227210038      -37.6725292323       26.2011285002  LPSA22    6               4.0000000000
     23740       763  AGLC      C1              0.4620307429      -37.0626820456       35.6520976122  LPSA22    7               4.0000000000
     23741       763  AGLC      H1              0.5059632974      -36.0103908998       35.2047739589  LPSA22    7               4.0000000000
     23742       763  AGLC      C5             -0.9864851435      -38.8700408940       36.0987679218  LPSA22    7               4.0000000000
     23743       763  AGLC      H5             -0.2085344524      -39.6000557772       35.8327124756  LPSA22    7               4.0000000000
     23744       763  AGLC      O5             -0.7808790891      -37.6663606796       35.4366254460  LPSA22    7               4.0000000000
     23745       763  AGLC      C2              0.5671518680      -36.8765345317       37.1582745954  LPSA22    7               4.0000000000
     23746       763  AGLC      H2             -0.3811135075      -36.3182500434       37.4887389927  LPSA22    7               4.0000000000
     23747       763  AGLC      O2              1.5969418192      -35.9293515415       37.5024056006  LPSA22    7               4.0000000000
     23748       763  AGLC      HO2             2.3822652405      -36.4534048803       37.6430208865  LPSA22    7               4.0000000000
     23749       763  AGLC      C3              0.4171963377      -38.0535752124       37.9903802326  LPSA22    7               4.0000000000
     23750       763  AGLC      H3              1.2324442365      -38.7048622851       37.6727250444  LPSA22    7               4.0000000000
     23751       763  AGLC      O3              0.6461183014      -37.8967465409       39.4204481292  LPSA22    7               4.0000000000
     23752       763  AGLC      C4             -0.9247931704      -38.5955304500       37.5928595998  LPSA22    7               4.0000000000
     23753       763  AGLC      H4             -1.7626090714      -37.8935331595       37.9560286200  LPSA22    7               4.0000000000
     23754       763  AGLC      O4             -1.0035727304      -39.8916150721       38.2243117391  LPSA22    7               4.0000000000
     23755       763  AGLC      HO4            -1.8326162670      -40.0712470342       38.6132003238  LPSA22    7               4.0000000000
     23756       763  AGLC      C6             -2.2398602189      -39.5768100320       35.5245160098  LPSA22    7               4.0000000000
     23757       763  AGLC      H61            -2.1025828259      -39.6102055832       34.4135318240  LPSA22    7               4.0000000000
     23758       763  AGLC      H62            -2.4616235517      -40.6084378450       35.8722646349  LPSA22    7               4.0000000000
     23759       763  AGLC      O6             -3.3719110556      -38.6695264113       35.6892983147  LPSA22    7               4.0000000000
     23760       763  AGLC      HO6            -3.7511319766      -39.0442942085       36.4386090630  LPSA22    7               4.0000000000
     23761       764  AGLC      C1              1.7508207130      -38.5532411584       39.9328324507  LPSA22    8               5.0000000000
     23762       764  AGLC      H1              1.7607280828      -39.6020963647       39.5884769495  LPSA22    8               5.0000000000
     23763       764  AGLC      C5              3.2804056587      -36.6181598749       40.2153373402  LPSA22    8               5.0000000000
     23764       764  AGLC      H5              2.4818759710      -35.9667521078       39.8400606936  LPSA22    8               5.0000000000
     23765       764  AGLC      O5              3.0394872524      -37.9223367217       39.6195505863  LPSA22    8               5.0000000000
     23766       764  AGLC      C2              1.6797534861      -38.6339338200       41.4170311384  LPSA22    8               5.0000000000
     23767       764  AGLC      H2              2.5214264303      -39.3236707776       41.6529594578  LPSA22    8               5.0000000000
     23768       764  AGLC      O2              0.5714000633      -39.3542852026       41.9438754185  LPSA22    8               5.0000000000
     23769       764  AGLC      C3              1.8622487571      -37.3427328387       42.1297388169  LPSA22    8               5.0000000000
     23770       764  AGLC      H3              1.0074394543      -36.7686563323       41.6567950186  LPSA22    8               5.0000000000
     23771       764  AGLC      O3              1.6637181645      -37.5220265317       43.5370978028  LPSA22    8               5.0000000000
     23772       764  AGLC      C4              3.1719199341      -36.8246833720       41.7603093222  LPSA22    8               5.0000000000
     23773       764  AGLC      H4              3.9483361568      -37.5124091236       42.0401368658  LPSA22    8               5.0000000000
     23774       764  AGLC      O4              3.4230182380      -35.5911470976       42.3914819843  LPSA22    8               5.0000000000
     23775       764  AGLC      HO4             2.6405800087      -35.0963236314       42.3800652601  LPSA22    8               5.0000000000
     23776       764  AGLC      C6              4.5458530121      -35.8686790022       39.7357334439  LPSA22    8               5.0000000000
     23777       764  AGLC      H61             4.6973330903      -35.8939739827       38.6468043611  LPSA22    8               5.0000000000
     23778       764  AGLC      H62             4.5980307447      -34.8363145597       40.0276014644  LPSA22    8               5.0000000000
     23779       764  AGLC      O6              5.7341660570      -36.3346144973       40.3040784562  LPSA22    8               5.0000000000
     23780       764  AGLC      HO6             5.8697039208      -35.9996124241       41.2121845210  LPSA22    8               5.0000000000
     23781       765  AGAL      C1              0.2865619278      -40.6309445075       41.4573847493  LPSA22    9               6.0000000000
     23782       765  AGAL      H1              0.3342385126      -40.6371648912       40.3420235153  LPSA22    9               6.0000000000
     23783       765  AGAL      C5              1.0813009669      -41.9442462213       43.2125447641  LPSA22    9               6.0000000000
     23784       765  AGAL      H5              1.1421084897      -40.9145180778       43.7424973645  LPSA22    9               6.0000000000
     23785       765  AGAL      O5              1.1699664537      -41.7282164706       41.8451689838  LPSA22    9               6.0000000000
     23786       765  AGAL      C2             -1.1289561464      -40.9738981376       41.8393925249  LPSA22    9               6.0000000000
     23787       765  AGAL      H2             -1.3889280185      -41.9315468579       41.4115621152  LPSA22    9               6.0000000000
     23788       765  AGAL      O2             -2.0889309583      -40.1422038822       41.1608705954  LPSA22    9               6.0000000000
     23789       765  AGAL      C3             -1.2664135579      -41.2176325415       43.3264191845  LPSA22    9               6.0000000000
     23790       765  AGAL      H3             -1.0552472708      -40.2391633052       43.9424563891  LPSA22    9               6.0000000000
     23791       765  AGAL      O3             -2.5771754648      -41.4449018178       43.7491515633  LPSA22    9               6.0000000000
     23792       765  AGAL      HO3            -3.1390053523      -40.9219248445       43.1585960960  LPSA22    9               6.0000000000
     23793       765  AGAL      C4             -0.3416991767      -42.3214791801       43.6505755014  LPSA22    9               6.0000000000
     23794       765  AGAL      H4             -0.2741503699      -42.5284720805       44.7734818408  LPSA22    9               6.0000000000
     23795       765  AGAL      O4             -0.6449740500      -43.5425984533       43.0499075873  LPSA22    9               6.0000000000
     23796       765  AGAL      HO4            -0.3431621824      -44.2313644911       43.6622427513  LPSA22    9               6.0000000000
     23797       765  AGAL      C6              2.2581780404      -42.6969500538       43.8349081587  LPSA22    9               6.0000000000
     23798       765  AGAL      H61             3.2509788046      -42.2147014952       43.6417203355  LPSA22    9               6.0000000000
     23799       765  AGAL      H62             2.2305815921      -42.7677995799       44.9292747136  LPSA22    9               6.0000000000
     23800       765  AGAL      O6              2.2990473380      -44.0246214683       43.4062227539  LPSA22    9               6.0000000000
     23801       765  AGAL      HO6             2.9614965797      -44.0711329442       42.6923548993  LPSA22    9               6.0000000000
     23802       766  AGAL      C1             -3.2019341244      -39.4309849837       41.7517281777  LPSA22    10              7.0000000000
     23803       766  AGAL      H1             -3.9721527350      -40.2086477877       41.8429972083  LPSA22    10              7.0000000000
     23804       766  AGAL      C5             -2.1719195829      -37.6947836568       43.0613392294  LPSA22    10              7.0000000000
     23805       766  AGAL      H5             -1.1590653572      -38.1082470375       42.6233508762  LPSA22    10              7.0000000000
     23806       766  AGAL      O5             -3.1258552502      -38.7740398499       43.0470213554  LPSA22    10              7.0000000000
     23807       766  AGAL      C2             -3.6276741222      -38.3676013554       40.7227968417  LPSA22    10              7.0000000000
     23808       766  AGAL      H2             -4.6955551074      -38.0533613908       41.0433947026  LPSA22    10              7.0000000000
     23809       766  AGAL      O2             -4.0779624543      -38.8988190314       39.5532095562  LPSA22    10              7.0000000000
     23810       766  AGAL      HO2            -4.9427923846      -38.5713872148       39.3379401176  LPSA22    10              7.0000000000
     23811       766  AGAL      C3             -2.6902622004      -37.2137483055       40.6928251787  LPSA22    10              7.0000000000
     23812       766  AGAL      H3             -1.7316874652      -37.6768906578       40.4679648945  LPSA22    10              7.0000000000
     23813       766  AGAL      O3             -3.0044380044      -36.2114163865       39.7732034444  LPSA22    10              7.0000000000
     23814       766  AGAL      HO3            -2.3741965295      -36.2909136667       39.0151094934  LPSA22    10              7.0000000000
     23815       766  AGAL      C4             -2.6207834902      -36.6069247970       42.0524071915  LPSA22    10              7.0000000000
     23816       766  AGAL      H4             -1.8542817498      -35.8101122266       42.1099272557  LPSA22    10              7.0000000000
     23817       766  AGAL      O4             -3.8235701724      -36.0498519627       42.4965010455  LPSA22    10              7.0000000000
     23818       766  AGAL      HO4            -4.4005127404      -36.7889845070       42.5675127347  LPSA22    10              7.0000000000
     23819       766  AGAL      C6             -1.8053136354      -37.1291101173       44.3959537205  LPSA22    10              7.0000000000
     23820       766  AGAL      H61            -1.5159702555      -37.8992536277       45.1044438806  LPSA22    10              7.0000000000
     23821       766  AGAL      H62            -0.8089513031      -36.4843266366       44.2564473849  LPSA22    10              7.0000000000
     23822       766  AGAL      O6             -2.7321848155      -36.2850450332       45.1112340130  LPSA22    10              7.0000000000
     23823       766  AGAL      HO6            -2.9961273711      -36.7538382450       45.9237589285  LPSA22    10              7.0000000000
     23824       767  BGLC      C1              2.6735764751      -37.7564653644       44.5018065681  LPSA22    11              6.0000000000
     23825       767  BGLC      H1              3.1357329252      -36.7842418057       44.5883763758  LPSA22    11              6.0000000000
     23826       767  BGLC      C5              4.6546456436      -39.1584421987       45.1248117688  LPSA22    11              6.0000000000
     23827       767  BGLC      H5              5.3128645862      -38.2577081850       45.3871201921  LPSA22    11              6.0000000000
     23828       767  BGLC      O5              3.5834423328      -38.8503943022       44.0830650888  LPSA22    11              6.0000000000
     23829       767  BGLC      C2              2.0282842292      -38.1768613237       45.7977571702  LPSA22    11              6.0000000000
     23830       767  BGLC      H2              1.3647746039      -39.0756050009       45.7293388291  LPSA22    11              6.0000000000
     23831       767  BGLC      O2              1.1066261441      -37.1362818663       46.0886391483  LPSA22    11              6.0000000000
     23832       767  BGLC      HO2             0.2706082349      -37.5163599128       46.2788110113  LPSA22    11              6.0000000000
     23833       767  BGLC      C3              2.9816876542      -38.4947534387       46.8736276645  LPSA22    11              6.0000000000
     23834       767  BGLC      H3              3.5136154636      -37.5039401099       47.1984917368  LPSA22    11              6.0000000000
     23835       767  BGLC      O3              2.2299147649      -38.9169003583       48.0056213318  LPSA22    11              6.0000000000
     23836       767  BGLC      C4              3.9008167857      -39.5259977291       46.4390836423  LPSA22    11              6.0000000000
     23837       767  BGLC      H4              3.2567081744      -40.4383968066       46.2001611147  LPSA22    11              6.0000000000
     23838       767  BGLC      O4              4.7793991605      -39.9289398320       47.4766894645  LPSA22    11              6.0000000000
     23839       767  BGLC      HO4             4.2679774116      -40.4277333342       48.1247908570  LPSA22    11              6.0000000000
     23840       767  BGLC      C6              5.6615423582      -40.1575502371       44.5291127165  LPSA22    11              6.0000000000
     23841       767  BGLC      H61             6.2663233371      -40.6932830111       45.2481190913  LPSA22    11              6.0000000000
     23842       767  BGLC      H62             5.0740645686      -40.8642657049       43.8913252379  LPSA22    11              6.0000000000
     23843       767  BGLC      O6              6.5859281546      -39.5860193056       43.5637942269  LPSA22    11              6.0000000000
     23844       767  BGLC      HO6             7.4006464444      -39.6374236577       44.0054369298  LPSA22    11              6.0000000000
     23845       768  BGLCNA    C1              2.4136628884      -38.3516156382       49.3238540420  LPSA22    12              7.0000000000
     23846       768  BGLCNA    H1              1.7521663162      -37.4228489537       49.3874222992  LPSA22    12              7.0000000000
     23847       768  BGLCNA    C5              3.9208599574      -37.3197634665       50.8763077070  LPSA22    12              7.0000000000
     23848       768  BGLCNA    H5              3.2413300861      -36.3593741051       50.9814236466  LPSA22    12              7.0000000000
     23849       768  BGLCNA    O5              3.7827755820      -37.9713624219       49.5875345322  LPSA22    12              7.0000000000
     23850       768  BGLCNA    C2              1.9994965510      -39.3786980005       50.3245054808  LPSA22    12              7.0000000000
     23851       768  BGLCNA    H2              2.8471754218      -40.1877624803       50.3375086743  LPSA22    12              7.0000000000
     23852       768  BGLCNA    N               0.6350725698      -39.8610577845       50.0347611965  LPSA22    12              7.0000000000
     23853       768  BGLCNA    HN              0.0599798846      -39.1124642171       49.9972643287  LPSA22    12              7.0000000000
     23854       768  BGLCNA    C               0.3889339447      -41.1276957217       49.8903426450  LPSA22    12              7.0000000000
     23855       768  BGLCNA    O               1.2757708815      -41.9468267575       50.0855928044  LPSA22    12              7.0000000000
     23856       768  BGLCNA    CT             -1.0235918456      -41.5099164430       49.5677689528  LPSA22    12              7.0000000000
     23857       768  BGLCNA    HT1            -1.5043230529      -42.0672355348       50.3918503408  LPSA22    12              7.0000000000
     23858       768  BGLCNA    HT2            -1.0309902650      -42.3202240526       48.7104760971  LPSA22    12              7.0000000000
     23859       768  BGLCNA    HT3            -1.5376218095      -40.5755650992       49.2316245990  LPSA22    12              7.0000000000
     23860       768  BGLCNA    C3              2.0723973790      -38.8330162446       51.6995695120  LPSA22    12              7.0000000000
     23861       768  BGLCNA    H3              1.2923207910      -37.9544299021       51.8605307917  LPSA22    12              7.0000000000
     23862       768  BGLCNA    O3              1.6349991382      -39.7637669886       52.7272334264  LPSA22    12              7.0000000000
     23863       768  BGLCNA    C4              3.4730606956      -38.3776878622       51.9591692987  LPSA22    12              7.0000000000
     23864       768  BGLCNA    H4              4.2657431558      -39.2161807420       51.9037868612  LPSA22    12              7.0000000000
     23865       768  BGLCNA    O4              3.6170494160      -37.8350911929       53.2294962294  LPSA22    12              7.0000000000
     23866       768  BGLCNA    HO4             3.2266524325      -36.9142289649       53.2834945119  LPSA22    12              7.0000000000
     23867       768  BGLCNA    C6              5.3671978875      -36.7900525352       50.9528560558  LPSA22    12              7.0000000000
     23868       768  BGLCNA    H61             5.5617159552      -36.3744025334       51.9144325068  LPSA22    12              7.0000000000
     23869       768  BGLCNA    H62             5.9630533163      -37.6875690503       50.8287962869  LPSA22    12              7.0000000000
     23870       768  BGLCNA    O6              5.6414942738      -35.9505086119       49.8597561973  LPSA22    12              7.0000000000
     23871       768  BGLCNA    HO6             5.3986227338      -35.0964277166       50.1903398796  LPSA22    12              7.0000000000
     23872       769  AGAL      C1              0.8322283597      -39.1982852695       53.8132743488  LPSA22    13              8.0000000000
     23873       769  AGAL      H1              1.3314042352      -38.2802534560       54.1959401301  LPSA22    13              8.0000000000
     23874       769  AGAL      C5             -1.2062643062      -40.3752095325       53.2950732168  LPSA22    13              8.0000000000
     23875       769  AGAL      H5             -0.5901363409      -40.8943333936       52.5641412600  LPSA22    13              8.0000000000
     23876       769  AGAL      O5             -0.6001648414      -39.0878939110       53.4918445955  LPSA22    13              8.0000000000
     23877       769  AGAL      C2              0.8173949611      -40.0674377513       55.1010141246  LPSA22    13              8.0000000000
     23878       769  AGAL      H2              0.0540053745      -39.6564138683       55.7917211299  LPSA22    13              8.0000000000
     23879       769  AGAL      O2              2.0611105269      -40.0649720034       55.7701983428  LPSA22    13              8.0000000000
     23880       769  AGAL      C3              0.1513792189      -41.4498392116       54.8979691660  LPSA22    13              8.0000000000
     23881       769  AGAL      H3              0.6225030571      -41.9327334598       54.0477453328  LPSA22    13              8.0000000000
     23882       769  AGAL      O3              0.3979152752      -42.3499405487       55.9888739531  LPSA22    13              8.0000000000
     23883       769  AGAL      HO3             0.5599107402      -43.2371800002       55.6848713412  LPSA22    13              8.0000000000
     23884       769  AGAL      C4             -1.2167752892      -41.2902144350       54.5514025965  LPSA22    13              8.0000000000
     23885       769  AGAL      H4             -1.6758450737      -42.2896770809       54.1954731349  LPSA22    13              8.0000000000
     23886       769  AGAL      O4             -2.0036479986      -40.7199378745       55.5743212917  LPSA22    13              8.0000000000
     23887       769  AGAL      HO4            -1.6263838572      -39.9651343151       56.0499681296  LPSA22    13              8.0000000000
     23888       769  AGAL      C6             -2.5152783639      -40.3697239575       52.5301443486  LPSA22    13              8.0000000000
     23889       769  AGAL      H61            -2.4104183262      -39.7549317125       51.6253596531  LPSA22    13              8.0000000000
     23890       769  AGAL      H62            -2.8272258405      -41.4315492220       52.3684678279  LPSA22    13              8.0000000000
     23891       769  AGAL      O6             -3.5546080789      -39.7993697637       53.2985910507  LPSA22    13              8.0000000000
     23892       769  AGAL      HO6            -3.8711513103      -40.4641591019       53.9299633642  LPSA22    13              8.0000000000
     23893       770  ARHM      C1              2.1935703003      -39.4326077195       57.0117786358  LPSA22    14              9.0000000000
     23894       770  ARHM      H1              1.4304378797      -38.6269734095       56.9981767125  LPSA22    14              9.0000000000
     23895       770  ARHM      C5              4.4915506232      -39.7575997021       57.1930138837  LPSA22    14              9.0000000000
     23896       770  ARHM      H5              4.4324350852      -40.3384293287       56.1976867078  LPSA22    14              9.0000000000
     23897       770  ARHM      O5              3.4692563252      -38.8327018886       57.1718909996  LPSA22    14              9.0000000000
     23898       770  ARHM      C2              1.9421105926      -40.4555579123       58.1413490634  LPSA22    14              9.0000000000
     23899       770  ARHM      H2              0.9860311596      -40.8956424150       57.8875987320  LPSA22    14              9.0000000000
     23900       770  ARHM      O2              1.9412943528      -39.9283821809       59.4330148990  LPSA22    14              9.0000000000
     23901       770  ARHM      C3              3.0251625361      -41.4947948769       58.1095432995  LPSA22    14              9.0000000000
     23902       770  ARHM      H3              3.1219521526      -41.8578955039       57.0440121713  LPSA22    14              9.0000000000
     23903       770  ARHM      O3              2.7606756139      -42.6419966628       58.8567888868  LPSA22    14              9.0000000000
     23904       770  ARHM      HO3             2.8808178256      -42.3622107634       59.8104957846  LPSA22    14              9.0000000000
     23905       770  ARHM      C4              4.3079452218      -40.7844844351       58.3490442956  LPSA22    14              9.0000000000
     23906       770  ARHM      H4              4.3828204637      -40.1908631543       59.2902338481  LPSA22    14              9.0000000000
     23907       770  ARHM      O4              5.3808854075      -41.7614114226       58.4446785014  LPSA22    14              9.0000000000
     23908       770  ARHM      HO4             5.8033975729      -41.8541026445       59.2969967688  LPSA22    14              9.0000000000
     23909       770  ARHM      C6              5.8485411526      -39.0357455670       57.2492155848  LPSA22    14              9.0000000000
     23910       770  ARHM      H61             5.9457175817      -38.1428799403       56.5358243550  LPSA22    14              9.0000000000
     23911       770  ARHM      H62             6.0032433973      -38.7794237035       58.3170764683  LPSA22    14              9.0000000000
     23912       770  ARHM      H63             6.7541932950      -39.5642316417       56.9421594120  LPSA22    14              9.0000000000
     23913       771  ARHM      C1              1.1855730518      -38.8607587870       59.7267990175  LPSA22    15             10.0000000000
     23914       771  ARHM      H1              0.3103931175      -38.7855610203       59.0458905905  LPSA22    15             10.0000000000
     23915       771  ARHM      C5              2.9734749726      -37.4032706650       60.6468530148  LPSA22    15             10.0000000000
     23916       771  ARHM      H5              3.8438538761      -38.1040721885       60.4457705401  LPSA22    15             10.0000000000
     23917       771  ARHM      O5              1.9060761709      -37.6041236644       59.6688136410  LPSA22    15             10.0000000000
     23918       771  ARHM      C2              0.6267786236      -39.0050382389       61.1407671534  LPSA22    15             10.0000000000
     23919       771  ARHM      H2              0.1543217738      -40.0574180694       61.2133420761  LPSA22    15             10.0000000000
     23920       771  ARHM      O2             -0.3563164894      -37.9434194565       61.3234079317  LPSA22    15             10.0000000000
     23921       771  ARHM      C3              1.7564665987      -38.9154888128       62.1677656617  LPSA22    15             10.0000000000
     23922       771  ARHM      H3              2.5217602971      -39.6824185298       61.8628392879  LPSA22    15             10.0000000000
     23923       771  ARHM      O3              1.1871637059      -39.4104248396       63.4092175029  LPSA22    15             10.0000000000
     23924       771  ARHM      C4              2.3816336660      -37.6101231869       62.0487117432  LPSA22    15             10.0000000000
     23925       771  ARHM      H4              1.5525090188      -36.8008280720       62.1496903561  LPSA22    15             10.0000000000
     23926       771  ARHM      O4              3.4315852421      -37.2846922844       62.9635513464  LPSA22    15             10.0000000000
     23927       771  ARHM      HO4             3.5446929415      -36.3461480891       62.9565205260  LPSA22    15             10.0000000000
     23928       771  ARHM      C6              3.5809494043      -36.0339460808       60.4460959132  LPSA22    15             10.0000000000
     23929       771  ARHM      H61             4.4702291103      -35.8179997941       61.0956562646  LPSA22    15             10.0000000000
     23930       771  ARHM      H62             3.7184026696      -35.8479115235       59.3910198679  LPSA22    15             10.0000000000
     23931       771  ARHM      H63             2.9269458071      -35.2146534441       60.8578185328  LPSA22    15             10.0000000000
     23932       772  BMANNA    C1             -1.1255127336      -37.8918251615       62.5145562334  LPSA22    16             11.0000000000
     23933       772  BMANNA    H1             -0.4051026109      -37.5394692995       63.3432051365  LPSA22    16             11.0000000000
     23934       772  BMANNA    C5             -2.3788200261      -38.9724062065       64.1851548173  LPSA22    16             11.0000000000
     23935       772  BMANNA    H5             -1.7227564279      -38.5942214872       64.9800677769  LPSA22    16             11.0000000000
     23936       772  BMANNA    O5             -1.6927621607      -39.1333113275       62.9158851071  LPSA22    16             11.0000000000
     23937       772  BMANNA    C2             -2.2279123375      -36.8331760238       62.2781089586  LPSA22    16             11.0000000000
     23938       772  BMANNA    H2             -1.6651891126      -35.9063240971       61.9912908466  LPSA22    16             11.0000000000
     23939       772  BMANNA    N              -3.2181211581      -37.0815862694       61.2264456342  LPSA22    16             11.0000000000
     23940       772  BMANNA    HN             -3.9837288478      -37.5747816200       61.5688724990  LPSA22    16             11.0000000000
     23941       772  BMANNA    C              -3.0857301519      -36.7339039750       59.9704010620  LPSA22    16             11.0000000000
     23942       772  BMANNA    O              -2.0975165045      -36.0667780264       59.5582221915  LPSA22    16             11.0000000000
     23943       772  BMANNA    CT             -4.1898297709      -37.1734912383       59.1331689300  LPSA22    16             11.0000000000
     23944       772  BMANNA    HT1            -4.8893771917      -36.4085669273       58.8344492748  LPSA22    16             11.0000000000
     23945       772  BMANNA    HT2            -4.7918863291      -38.0022847864       59.5043001239  LPSA22    16             11.0000000000
     23946       772  BMANNA    HT3            -3.8146337382      -37.5390076242       58.1231520073  LPSA22    16             11.0000000000
     23947       772  BMANNA    C3             -2.9064283106      -36.6456501388       63.6119771117  LPSA22    16             11.0000000000
     23948       772  BMANNA    H3             -2.1594337945      -36.3241673941       64.3839812837  LPSA22    16             11.0000000000
     23949       772  BMANNA    O3             -3.8707478001      -35.6326947127       63.6122488842  LPSA22    16             11.0000000000
     23950       772  BMANNA    HO3            -3.6935633826      -34.9992620588       64.2950500102  LPSA22    16             11.0000000000
     23951       772  BMANNA    C4             -3.5340782181      -37.9558510507       64.1045846713  LPSA22    16             11.0000000000
     23952       772  BMANNA    H4             -4.3125933890      -38.3295525975       63.4124605202  LPSA22    16             11.0000000000
     23953       772  BMANNA    O4             -4.1970830907      -37.9263498735       65.3816866120  LPSA22    16             11.0000000000
     23954       772  BMANNA    HO4            -4.8469761424      -38.6256474279       65.4353184152  LPSA22    16             11.0000000000
     23955       772  BMANNA    C6             -2.8972285884      -40.3042633137       64.7427751243  LPSA22    16             11.0000000000
     23956       772  BMANNA    H61            -2.8867881778      -40.2161195341       65.8875394407  LPSA22    16             11.0000000000
     23957       772  BMANNA    H62            -3.9300509933      -40.4876358776       64.4389269682  LPSA22    16             11.0000000000
     23958       772  BMANNA    O6             -2.1085225455      -41.4505670647       64.3660927576  LPSA22    16             11.0000000000
     23959       772  BMANNA    HO6            -2.7757567749      -42.0044548485       63.9036969990  LPSA22    16             11.0000000000
     23960       773  BGLCNA    C1              2.0122703958      -40.1534916436       64.1715778089  LPSA22    17             11.0000000000
     23961       773  BGLCNA    H1              3.1082100090      -39.8617838322       63.9082176002  LPSA22    17             11.0000000000
     23962       773  BGLCNA    C5              2.8164843645      -42.4287475515       64.5563394407  LPSA22    17             11.0000000000
     23963       773  BGLCNA    H5              3.9107007748      -42.1854378654       64.2825289487  LPSA22    17             11.0000000000
     23964       773  BGLCNA    O5              1.9756694681      -41.5575360383       63.7849982893  LPSA22    17             11.0000000000
     23965       773  BGLCNA    C2              1.6194946649      -39.9575145691       65.5899343931  LPSA22    17             11.0000000000
     23966       773  BGLCNA    H2              0.5485313071      -40.2772997866       65.8249043900  LPSA22    17             11.0000000000
     23967       773  BGLCNA    N               1.5675090879      -38.5827577680       65.8849826081  LPSA22    17             11.0000000000
     23968       773  BGLCNA    HN              2.2224463603      -37.9614659083       65.4150135415  LPSA22    17             11.0000000000
     23969       773  BGLCNA    C               0.8737897446      -37.9354921984       66.8043620798  LPSA22    17             11.0000000000
     23970       773  BGLCNA    O               0.0095225495      -38.4898004064       67.4729873017  LPSA22    17             11.0000000000
     23971       773  BGLCNA    CT              1.1953279890      -36.4992373013       66.9728872304  LPSA22    17             11.0000000000
     23972       773  BGLCNA    HT1             0.5218160673      -35.7303734571       66.5529393721  LPSA22    17             11.0000000000
     23973       773  BGLCNA    HT2             2.2609822081      -36.3647071786       66.7043805047  LPSA22    17             11.0000000000
     23974       773  BGLCNA    HT3             1.2234410158      -36.2268582293       68.1408097225  LPSA22    17             11.0000000000
     23975       773  BGLCNA    C3              2.5859573804      -40.7847792996       66.4076579941  LPSA22    17             11.0000000000
     23976       773  BGLCNA    H3              3.5904777295      -40.3826370201       66.0441361901  LPSA22    17             11.0000000000
     23977       773  BGLCNA    O3              2.4070234658      -40.4060504615       67.8205355914  LPSA22    17             11.0000000000
     23978       773  BGLCNA    C4              2.4002392762      -42.2527174673       66.0496966154  LPSA22    17             11.0000000000
     23979       773  BGLCNA    H4              1.2992639911      -42.5647671271       66.1123142204  LPSA22    17             11.0000000000
     23980       773  BGLCNA    O4              3.1071022900      -43.1143328248       66.9186044206  LPSA22    17             11.0000000000
     23981       773  BGLCNA    HO4             3.0550596955      -44.0416225507       66.7204061560  LPSA22    17             11.0000000000
     23982       773  BGLCNA    C6              2.5865575285      -43.8890268502       64.1200051697  LPSA22    17             11.0000000000
     23983       773  BGLCNA    H61             3.5154120331      -44.4253609738       64.1272946536  LPSA22    17             11.0000000000
     23984       773  BGLCNA    H62             1.8719908646      -44.4206757979       64.8212395067  LPSA22    17             11.0000000000
     23985       773  BGLCNA    O6              2.0522703611      -43.9872541793       62.7926115083  LPSA22    17             11.0000000000
     23986       773  BGLCNA    HO6             2.6571894708      -43.5757287102       62.1856770532  LPSA22    17             11.0000000000
     23987       774  AGAL      C1              3.6172400333      -40.3935481953       68.6198653987  LPSA22    18             12.0000000000
     23988       774  AGAL      H1              3.9024280587      -41.4708392509       68.8082567594  LPSA22    18             12.0000000000
     23989       774  AGAL      C5              4.4602222421      -38.2757434265       67.8636918791  LPSA22    18             12.0000000000
     23990       774  AGAL      H5              3.4776354331      -38.1276051156       67.4068928888  LPSA22    18             12.0000000000
     23991       774  AGAL      O5              4.6853438459      -39.7267789610       67.9834320655  LPSA22    18             12.0000000000
     23992       774  AGAL      C2              3.4043648258      -39.6627622240       70.0000206359  LPSA22    18             12.0000000000
     23993       774  AGAL      H2              4.4437172627      -39.7561391364       70.3908489884  LPSA22    18             12.0000000000
     23994       774  AGAL      O2              2.5992936746      -40.4277099541       70.8342757016  LPSA22    18             12.0000000000
     23995       774  AGAL      C3              3.1381318181      -38.2036300329       69.8682924558  LPSA22    18             12.0000000000
     23996       774  AGAL      H3              2.2779337923      -38.0595978590       69.0958348126  LPSA22    18             12.0000000000
     23997       774  AGAL      O3              2.7601608117      -37.6144109080       71.0758896640  LPSA22    18             12.0000000000
     23998       774  AGAL      HO3             1.9955522206      -37.0459733729       70.9682873819  LPSA22    18             12.0000000000
     23999       774  AGAL      C4              4.2697820041      -37.5727468446       69.1634745928  LPSA22    18             12.0000000000
     24000       774  AGAL      H4              4.1424732145      -36.4954964371       68.9039691178  LPSA22    18             12.0000000000
     24001       774  AGAL      O4              5.4729953147      -37.6328837089       69.9734134928  LPSA22    18             12.0000000000
     24002       774  AGAL      HO4             5.4012673439      -36.9462195336       70.7236544006  LPSA22    18             12.0000000000
     24003       774  AGAL      C6              5.3412987303      -37.7820039263       66.8042742825  LPSA22    18             12.0000000000
     24004       774  AGAL      H61             5.0455270582      -38.2949555259       65.8877991861  LPSA22    18             12.0000000000
     24005       774  AGAL      H62             5.0797982118      -36.6999679215       66.6499463921  LPSA22    18             12.0000000000
     24006       774  AGAL      O6              6.6491127581      -37.9843716677       66.9803033045  LPSA22    18             12.0000000000
     24007       774  AGAL      HO6             6.9161876239      -38.5825017876       67.6707071977  LPSA22    18             12.0000000000
     24008       775  ARHM      C1              3.1399281032      -40.4280088697       72.1803514454  LPSA22    19             13.0000000000
     24009       775  ARHM      H1              3.8052891488      -39.5995658555       72.3185909119  LPSA22    19             13.0000000000
     24010       775  ARHM      C5              3.4291390604      -42.7805779438       72.2512180912  LPSA22    19             13.0000000000
     24011       775  ARHM      H5              3.0072020110      -42.7984740085       71.2133247196  LPSA22    19             13.0000000000
     24012       775  ARHM      O5              4.0554238647      -41.5071954361       72.4162684983  LPSA22    19             13.0000000000
     24013       775  ARHM      C2              1.9841266817      -40.4707784079       73.1100514097  LPSA22    19             13.0000000000
     24014       775  ARHM      H2              1.2266651829      -39.7491390595       72.9420985559  LPSA22    19             13.0000000000
     24015       775  ARHM      O2              2.4304407595      -40.3205864280       74.4131644751  LPSA22    19             13.0000000000
     24016       775  ARHM      C3              1.3235071376      -41.8787227548       72.9859276785  LPSA22    19             13.0000000000
     24017       775  ARHM      H3              1.0267677367      -41.9988298268       71.9471750908  LPSA22    19             13.0000000000
     24018       775  ARHM      O3              0.1853209885      -41.9679711066       73.7644258584  LPSA22    19             13.0000000000
     24019       775  ARHM      HO3             0.4274108780      -41.6642804781       74.6464134549  LPSA22    19             13.0000000000
     24020       775  ARHM      C4              2.2620406294      -42.9806841957       73.2443334127  LPSA22    19             13.0000000000
     24021       775  ARHM      H4              2.6220577424      -42.8325720987       74.2703943704  LPSA22    19             13.0000000000
     24022       775  ARHM      O4              1.7166124095      -44.2601551151       73.1708570575  LPSA22    19             13.0000000000
     24023       775  ARHM      HO4             1.4474255446      -44.3835302847       72.2126258713  LPSA22    19             13.0000000000
     24024       775  ARHM      C6              4.4599142928      -43.9226207472       72.3031700958  LPSA22    19             13.0000000000
     24025       775  ARHM      H61             5.1349485114      -43.6195610977       71.5186681997  LPSA22    19             13.0000000000
     24026       775  ARHM      H62             5.0264981634      -44.0281509308       73.2001761489  LPSA22    19             13.0000000000
     24027       775  ARHM      H63             4.0319420821      -44.9056945050       72.0875448643  LPSA22    19             13.0000000000
     24028       776  ARHM      C1              2.7592447424      -39.0008953893       74.6981797177  LPSA22    20             14.0000000000
     24029       776  ARHM      H1              2.4074069704      -38.2758830808       73.8936196974  LPSA22    20             14.0000000000
     24030       776  ARHM      C5              4.7416284789      -39.3603663705       75.9960310464  LPSA22    20             14.0000000000
     24031       776  ARHM      H5              4.5270094022      -40.4432641281       75.8071112250  LPSA22    20             14.0000000000
     24032       776  ARHM      O5              4.1441082933      -38.6989227037       74.8741575474  LPSA22    20             14.0000000000
     24033       776  ARHM      C2              2.0039343450      -38.5436307482       75.9438944127  LPSA22    20             14.0000000000
     24034       776  ARHM      H2              0.8932532219      -38.8731221914       75.7904987900  LPSA22    20             14.0000000000
     24035       776  ARHM      O2              2.1153740329      -37.1276629568       76.2145535291  LPSA22    20             14.0000000000
     24036       776  ARHM      C3              2.6299530430      -39.2395170519       77.0746584307  LPSA22    20             14.0000000000
     24037       776  ARHM      H3              2.5139798941      -40.3804267358       76.9570890266  LPSA22    20             14.0000000000
     24038       776  ARHM      O3              1.8496829700      -38.8829429041       78.2431898216  LPSA22    20             14.0000000000
     24039       776  ARHM      C4              4.0820160984      -38.9264666223       77.2147849866  LPSA22    20             14.0000000000
     24040       776  ARHM      H4              4.2791855677      -37.8767654398       77.2882629629  LPSA22    20             14.0000000000
     24041       776  ARHM      O4              4.5773780085      -39.5362422096       78.4294019453  LPSA22    20             14.0000000000
     24042       776  ARHM      HO4             5.4340916797      -39.6661756713       78.0714846557  LPSA22    20             14.0000000000
     24043       776  ARHM      C6              6.1992084707      -39.1580897969       75.9818768401  LPSA22    20             14.0000000000
     24044       776  ARHM      H61             6.6156824050      -38.1085015834       76.0487105533  LPSA22    20             14.0000000000
     24045       776  ARHM      H62             6.6700303715      -39.7752084311       76.7492574554  LPSA22    20             14.0000000000
     24046       776  ARHM      H63             6.7104243840      -39.4881853898       75.0059134709  LPSA22    20             14.0000000000
     24047       777  BMANNA    C1              1.1414468634      -36.5148535454       75.4501725836  LPSA22    21             15.0000000000
     24048       777  BMANNA    H1              0.7016719990      -37.2369693410       74.6495731600  LPSA22    21             15.0000000000
     24049       777  BMANNA    C5              0.6897898140      -35.0168773424       73.6578092950  LPSA22    21             15.0000000000
     24050       777  BMANNA    H5              0.0949095105      -35.8212265487       73.0422409194  LPSA22    21             15.0000000000
     24051       777  BMANNA    O5              1.7431810161      -35.5260673483       74.5460975074  LPSA22    21             15.0000000000
     24052       777  BMANNA    C2              0.1074684730      -35.8859502320       76.3268603500  LPSA22    21             15.0000000000
     24053       777  BMANNA    H2             -0.2692667114      -36.7568101474       76.8663433126  LPSA22    21             15.0000000000
     24054       777  BMANNA    N               0.6898330468      -34.9253960699       77.2602735953  LPSA22    21             15.0000000000
     24055       777  BMANNA    HN              1.2492671477      -34.2377667378       76.8630196157  LPSA22    21             15.0000000000
     24056       777  BMANNA    C               0.2945558926      -34.7484724297       78.6142451918  LPSA22    21             15.0000000000
     24057       777  BMANNA    O              -0.7265267752      -35.2936841057       79.0340579138  LPSA22    21             15.0000000000
     24058       777  BMANNA    CT              1.1385176880      -33.8170120659       79.5125915666  LPSA22    21             15.0000000000
     24059       777  BMANNA    HT1             0.8370611673      -32.7641535156       79.3040814335  LPSA22    21             15.0000000000
     24060       777  BMANNA    HT2             2.1947884065      -34.0704910358       79.3224353366  LPSA22    21             15.0000000000
     24061       777  BMANNA    HT3             0.9179459666      -34.0226662215       80.6000991146  LPSA22    21             15.0000000000
     24062       777  BMANNA    C3             -0.9578394597      -35.3398322801       75.4428482744  LPSA22    21             15.0000000000
     24063       777  BMANNA    H3             -1.3408426341      -36.2529535546       75.0091666053  LPSA22    21             15.0000000000
     24064       777  BMANNA    O3             -2.0144239863      -34.7401406015       76.1769203835  LPSA22    21             15.0000000000
     24065       777  BMANNA    HO3            -1.6336033670      -34.0889305045       76.7354970047  LPSA22    21             15.0000000000
     24066       777  BMANNA    C4             -0.3781632997      -34.3293648986       74.4866217523  LPSA22    21             15.0000000000
     24067       777  BMANNA    H4              0.0437866774      -33.3341204130       75.0002820064  LPSA22    21             15.0000000000
     24068       777  BMANNA    O4             -1.3401060897      -33.8076279252       73.6152290754  LPSA22    21             15.0000000000
     24069       777  BMANNA    HO4            -1.4734318885      -32.8463610554       73.7703874424  LPSA22    21             15.0000000000
     24070       777  BMANNA    C6              1.2225373905      -34.1546158868       72.6348027846  LPSA22    21             15.0000000000
     24071       777  BMANNA    H61             0.4840916944      -33.8906797116       71.8494922130  LPSA22    21             15.0000000000
     24072       777  BMANNA    H62             1.3730370306      -33.1234291981       73.0558617198  LPSA22    21             15.0000000000
     24073       777  BMANNA    O6              2.4473288457      -34.5062492405       72.0654385618  LPSA22    21             15.0000000000
     24074       777  BMANNA    HO6             3.0727177490      -34.6306499883       72.7784055652  LPSA22    21             15.0000000000
     24075       778  BGLCNA    C1              1.5981544966      -39.8251748338       79.2248726046  LPSA22    22             15.0000000000
     24076       778  BGLCNA    H1              2.3592305837      -40.6580369026       79.2753119810  LPSA22    22             15.0000000000
     24077       778  BGLCNA    C5              0.1213001651      -41.5043319372       80.1145289529  LPSA22    22             15.0000000000
     24078       778  BGLCNA    H5              1.0400213021      -42.2289522763       80.0727605020  LPSA22    22             15.0000000000
     24079       778  BGLCNA    O5              0.3780680426      -40.4918305021       79.0803056561  LPSA22    22             15.0000000000
     24080       778  BGLCNA    C2              1.6095068369      -39.1271561397       80.5602818744  LPSA22    22             15.0000000000
     24081       778  BGLCNA    H2              0.7323858367      -38.3940571489       80.4633107900  LPSA22    22             15.0000000000
     24082       778  BGLCNA    N               2.8705484105      -38.4309225965       80.7025670875  LPSA22    22             15.0000000000
     24083       778  BGLCNA    HN              3.6687689310      -38.9344565407       80.4501896382  LPSA22    22             15.0000000000
     24084       778  BGLCNA    C               3.0278141336      -37.2833177581       81.3295640408  LPSA22    22             15.0000000000
     24085       778  BGLCNA    O               2.0612069724      -36.6922262482       81.8448112003  LPSA22    22             15.0000000000
     24086       778  BGLCNA    CT              4.4075465195      -36.7389788443       81.4359073222  LPSA22    22             15.0000000000
     24087       778  BGLCNA    HT1             4.4812053351      -36.1404341711       80.5353412834  LPSA22    22             15.0000000000
     24088       778  BGLCNA    HT2             5.1116471190      -37.5873082002       81.2752873926  LPSA22    22             15.0000000000
     24089       778  BGLCNA    HT3             4.6641897912      -36.2810789874       82.3679651303  LPSA22    22             15.0000000000
     24090       778  BGLCNA    C3              1.3409986193      -40.1001018703       81.6855161512  LPSA22    22             15.0000000000
     24091       778  BGLCNA    H3              2.1216056472      -40.9006268556       81.6419517197  LPSA22    22             15.0000000000
     24092       778  BGLCNA    O3              1.5070778252      -39.3582761230       82.8729300216  LPSA22    22             15.0000000000
     24093       778  BGLCNA    C4              0.0030775399      -40.8145947285       81.4704242134  LPSA22    22             15.0000000000
     24094       778  BGLCNA    H4             -0.7242582574      -40.0480117873       81.4144045074  LPSA22    22             15.0000000000
     24095       778  BGLCNA    O4             -0.3187825133      -41.7072619662       82.5140850489  LPSA22    22             15.0000000000
     24096       778  BGLCNA    HO4            -1.2677458454      -41.6289385505       82.7130071916  LPSA22    22             15.0000000000
     24097       778  BGLCNA    C6             -1.1693513667      -42.2130502750       79.7284495560  LPSA22    22             15.0000000000
     24098       778  BGLCNA    H61            -1.4982834994      -42.7019527334       80.6924177192  LPSA22    22             15.0000000000
     24099       778  BGLCNA    H62            -1.9676056175      -41.4871988640       79.4648784538  LPSA22    22             15.0000000000
     24100       778  BGLCNA    O6             -1.0146613591      -43.2416043170       78.8100863794  LPSA22    22             15.0000000000
     24101       778  BGLCNA    HO6            -0.6131033784      -42.8880457954       78.0328486455  LPSA22    22             15.0000000000
     24102       779  AGAL      C1              1.7538321920      -40.0150497491       84.0628261254  LPSA22    23             16.0000000000
     24103       779  AGAL      H1              0.8313439724      -40.4781722298       84.5106287163  LPSA22    23             16.0000000000
     24104       779  AGAL      C5              4.0602665424      -40.5232354397       83.7583018441  LPSA22    23             16.0000000000
     24105       779  AGAL      H5              4.0215356213      -39.8316905319       82.8366412438  LPSA22    23             16.0000000000
     24106       779  AGAL      O5              2.7653662072      -41.0254859767       83.9976212264  LPSA22    23             16.0000000000
     24107       779  AGAL      C2              2.1568369366      -39.0282828672       85.1427633740  LPSA22    23             16.0000000000
     24108       779  AGAL      H2              2.3098742951      -39.6323980676       86.0076373284  LPSA22    23             16.0000000000
     24109       779  AGAL      O2              1.1417354727      -38.1210939212       85.5000844886  LPSA22    23             16.0000000000
     24110       779  AGAL      C3              3.5036488004      -38.4322263001       84.9194901020  LPSA22    23             16.0000000000
     24111       779  AGAL      H3              3.4751291198      -38.0201636934       83.8641570193  LPSA22    23             16.0000000000
     24112       779  AGAL      O3              3.8345372704      -37.3512523484       85.7108298168  LPSA22    23             16.0000000000
     24113       779  AGAL      HO3             3.5857469742      -37.6313840236       86.6206525111  LPSA22    23             16.0000000000
     24114       779  AGAL      C4              4.4963202099      -39.5556569209       84.8901212015  LPSA22    23             16.0000000000
     24115       779  AGAL      H4              5.5280810821      -39.2116100868       84.6506069022  LPSA22    23             16.0000000000
     24116       779  AGAL      O4              4.6992554194      -40.2467305501       86.1132943683  LPSA22    23             16.0000000000
     24117       779  AGAL      HO4             4.8481772937      -41.0909619921       85.8278371007  LPSA22    23             16.0000000000
     24118       779  AGAL      C6              4.9964271440      -41.6206279490       83.3278962909  LPSA22    23             16.0000000000
     24119       779  AGAL      H61             4.5210998842      -42.2331354251       82.6074235255  LPSA22    23             16.0000000000
     24120       779  AGAL      H62             5.8539838684      -41.2451818791       82.7620574208  LPSA22    23             16.0000000000
     24121       779  AGAL      O6              5.3128826560      -42.4411935255       84.3845202183  LPSA22    23             16.0000000000
     24122       779  AGAL      HO6             5.8661149746      -43.1787609799       84.1740981585  LPSA22    23             16.0000000000
     24123       780  ARHM      C1              0.0073207644      -38.4474401846       86.2818185944  LPSA22    24             17.0000000000
     24124       780  ARHM      H1             -0.0278788260      -39.5163118579       86.3680542693  LPSA22    24             17.0000000000
     24125       780  ARHM      C5             -1.4307502319      -36.6430096609       85.6157638072  LPSA22    24             17.0000000000
     24126       780  ARHM      H5             -0.6312315215      -36.2771345641       85.0070975499  LPSA22    24             17.0000000000
     24127       780  ARHM      O5             -1.3495767450      -38.0430696826       85.8657410059  LPSA22    24             17.0000000000
     24128       780  ARHM      C2              0.3253617764      -37.8074275135       87.5921581840  LPSA22    24             17.0000000000
     24129       780  ARHM      H2              1.3382967446      -37.9916773101       87.8984046741  LPSA22    24             17.0000000000
     24130       780  ARHM      O2             -0.6445392717      -38.1281691032       88.6075763533  LPSA22    24             17.0000000000
     24131       780  ARHM      C3              0.2057873082      -36.2862924590       87.4133527752  LPSA22    24             17.0000000000
     24132       780  ARHM      H3              0.9608522861      -36.0275799078       86.6640279609  LPSA22    24             17.0000000000
     24133       780  ARHM      O3              0.6391328177      -35.5106530352       88.5620392964  LPSA22    24             17.0000000000
     24134       780  ARHM      HO3            -0.1462164158      -35.4396571995       89.1463757531  LPSA22    24             17.0000000000
     24135       780  ARHM      C4             -1.1845756677      -35.8836004825       86.9402325015  LPSA22    24             17.0000000000
     24136       780  ARHM      H4             -1.9489253349      -36.3063080354       87.7071552895  LPSA22    24             17.0000000000
     24137       780  ARHM      O4             -1.3936201254      -34.4917440652       86.8379508285  LPSA22    24             17.0000000000
     24138       780  ARHM      HO4            -2.2762744685      -34.2136740514       87.0219124236  LPSA22    24             17.0000000000
     24139       780  ARHM      C6             -2.7870296653      -36.2153670054       84.9175891319  LPSA22    24             17.0000000000
     24140       780  ARHM      H61            -2.6221781627      -35.2798868266       84.3853494017  LPSA22    24             17.0000000000
     24141       780  ARHM      H62            -3.0183714794      -36.9971996848       84.2649634992  LPSA22    24             17.0000000000
     24142       780  ARHM      H63            -3.6342406326      -36.1957525066       85.6811466487  LPSA22    24             17.0000000000
     24143       781  ARHM      C1             -0.3922160178      -39.4158573417       89.1588742089  LPSA22    25             18.0000000000
     24144       781  ARHM      H1              0.1761424172      -39.9930725733       88.4722246341  LPSA22    25             18.0000000000
     24145       781  ARHM      C5             -2.5483594394      -39.6572822686       90.1670531641  LPSA22    25             18.0000000000
     24146       781  ARHM      H5             -2.8811532228      -38.6935999880       89.8870230824  LPSA22    25             18.0000000000
     24147       781  ARHM      O5             -1.5948951338      -40.2068104917       89.2315309535  LPSA22    25             18.0000000000
     24148       781  ARHM      C2              0.2747073020      -39.2582778748       90.4685713243  LPSA22    25             18.0000000000
     24149       781  ARHM      H2              1.1399033111      -38.5239560613       90.3413143991  LPSA22    25             18.0000000000
     24150       781  ARHM      O2              0.7635630717      -40.5546156047       90.9328696740  LPSA22    25             18.0000000000
     24151       781  ARHM      C3             -0.8046773481      -38.7077675538       91.4562257518  LPSA22    25             18.0000000000
     24152       781  ARHM      H3             -1.1111727685      -37.7040054825       91.0689171631  LPSA22    25             18.0000000000
     24153       781  ARHM      O3             -0.1432765390      -38.5340166516       92.6920647463  LPSA22    25             18.0000000000
     24154       781  ARHM      C4             -1.9638565171      -39.5362741049       91.5960769721  LPSA22    25             18.0000000000
     24155       781  ARHM      H4             -1.6858392070      -40.6326233109       91.8876801091  LPSA22    25             18.0000000000
     24156       781  ARHM      O4             -2.7930144721      -38.9276661320       92.5862492282  LPSA22    25             18.0000000000
     24157       781  ARHM      HO4            -3.1872439695      -39.6656796393       93.0149361445  LPSA22    25             18.0000000000
     24158       781  ARHM      C6             -3.8416982843      -40.4697647553       90.2083352735  LPSA22    25             18.0000000000
     24159       781  ARHM      H61            -4.2452337366      -40.6650665046       89.1912344565  LPSA22    25             18.0000000000
     24160       781  ARHM      H62            -3.7160638291      -41.4869655947       90.6686969550  LPSA22    25             18.0000000000
     24161       781  ARHM      H63            -4.6801810878      -39.9655974355       90.8233913566  LPSA22    25             18.0000000000
     24162       782  BMANNA    C1              1.9571933126      -40.9718409836       90.3138108879  LPSA22    26             19.0000000000
     24163       782  BMANNA    H1              2.5105169418      -40.1090215876       89.8388342826  LPSA22    26             19.0000000000
     24164       782  BMANNA    C5              3.0654735120      -42.2513098905       88.6312665858  LPSA22    26             19.0000000000
     24165       782  BMANNA    H5              3.4408517235      -41.3338919133       88.1771240033  LPSA22    26             19.0000000000
     24166       782  BMANNA    O5              1.8046803807      -41.9337363692       89.2346891933  LPSA22    26             19.0000000000
     24167       782  BMANNA    C2              2.8005391278      -41.5384408379       91.3475147821  LPSA22    26             19.0000000000
     24168       782  BMANNA    H2              2.9220963735      -40.6989864974       92.1081287357  LPSA22    26             19.0000000000
     24169       782  BMANNA    N               2.1079241516      -42.7124203444       91.9238920796  LPSA22    26             19.0000000000
     24170       782  BMANNA    HN              1.8526856659      -43.3993355004       91.3050515894  LPSA22    26             19.0000000000
     24171       782  BMANNA    C               1.9123222129      -42.9189565862       93.1798471680  LPSA22    26             19.0000000000
     24172       782  BMANNA    O               2.1410035122      -42.0127084514       94.0003587425  LPSA22    26             19.0000000000
     24173       782  BMANNA    CT              1.4226346943      -44.2788627165       93.6758917343  LPSA22    26             19.0000000000
     24174       782  BMANNA    HT1             0.9530207794      -44.7496194049       92.8666282051  LPSA22    26             19.0000000000
     24175       782  BMANNA    HT2             0.8715655027      -44.4109594704       94.6620984389  LPSA22    26             19.0000000000
     24176       782  BMANNA    HT3             2.3374195698      -44.8586393094       93.8484898219  LPSA22    26             19.0000000000
     24177       782  BMANNA    C3              4.1595799066      -41.8411051381       90.7100883268  LPSA22    26             19.0000000000
     24178       782  BMANNA    H3              4.5842323481      -40.8752927089       90.3384445889  LPSA22    26             19.0000000000
     24179       782  BMANNA    O3              5.0515066675      -42.2955898771       91.7636866611  LPSA22    26             19.0000000000
     24180       782  BMANNA    HO3             5.2455927863      -41.4892448544       92.2265744207  LPSA22    26             19.0000000000
     24181       782  BMANNA    C4              3.9733734116      -42.7767820193       89.6481622736  LPSA22    26             19.0000000000
     24182       782  BMANNA    H4              3.5330713404      -43.7843583628       89.9013799111  LPSA22    26             19.0000000000
     24183       782  BMANNA    O4              5.2112415800      -43.1202040027       89.0416847738  LPSA22    26             19.0000000000
     24184       782  BMANNA    HO4             5.6169859587      -43.8144430110       89.5591157304  LPSA22    26             19.0000000000
     24185       782  BMANNA    C6              2.6963424647      -43.1186572349       87.3900617492  LPSA22    26             19.0000000000
     24186       782  BMANNA    H61             1.7552042440      -42.7837029303       86.9191763972  LPSA22    26             19.0000000000
     24187       782  BMANNA    H62             3.4536415727      -43.0951507316       86.6504270337  LPSA22    26             19.0000000000
     24188       782  BMANNA    O6              2.5290841420      -44.4899304751       87.7329108337  LPSA22    26             19.0000000000
     24189       782  BMANNA    HO6             3.2947719683      -44.8020018949       88.1688153196  LPSA22    26             19.0000000000
     24190       783  BGLCNA    C1             -0.2490929582      -37.4286971354       93.4616184899  LPSA22    27             19.0000000000
     24191       783  BGLCNA    H1             -1.2629097090      -37.0413241618       93.4392217979  LPSA22    27             19.0000000000
     24192       783  BGLCNA    C5              0.3873198829      -35.1964763590       93.9656603721  LPSA22    27             19.0000000000
     24193       783  BGLCNA    H5             -0.7058890106      -34.9523575410       93.9564344452  LPSA22    27             19.0000000000
     24194       783  BGLCNA    O5              0.5495073367      -36.2972358437       93.0607755266  LPSA22    27             19.0000000000
     24195       783  BGLCNA    C2              0.1079784840      -37.8771065791       94.8806799918  LPSA22    27             19.0000000000
     24196       783  BGLCNA    H2              1.1791264431      -38.1434941088       94.8757458582  LPSA22    27             19.0000000000
     24197       783  BGLCNA    N              -0.6703977095      -39.0445121044       95.2501113516  LPSA22    27             19.0000000000
     24198       783  BGLCNA    HN             -1.7088511965      -38.9755364080       95.0827132934  LPSA22    27             19.0000000000
     24199       783  BGLCNA    C               0.0133944105      -40.0318551865       95.9523160909  LPSA22    27             19.0000000000
     24200       783  BGLCNA    O               1.1374742824      -39.8952715951       96.5238801166  LPSA22    27             19.0000000000
     24201       783  BGLCNA    CT             -0.7485012467      -41.3911681057       96.0293745529  LPSA22    27             19.0000000000
     24202       783  BGLCNA    HT1            -1.6538581245      -41.3751025416       95.3635606282  LPSA22    27             19.0000000000
     24203       783  BGLCNA    HT2            -0.9970236673      -41.7111567853       97.0167906789  LPSA22    27             19.0000000000
     24204       783  BGLCNA    HT3             0.0084533664      -42.2073232562       95.7039804309  LPSA22    27             19.0000000000
     24205       783  BGLCNA    C3             -0.0651163817      -36.7322692759       95.7540348103  LPSA22    27             19.0000000000
     24206       783  BGLCNA    H3             -1.1143323654      -36.3451970471       95.7401190096  LPSA22    27             19.0000000000
     24207       783  BGLCNA    O3              0.2609990579      -37.2778828746       97.0775356047  LPSA22    27             19.0000000000
     24208       783  BGLCNA    C4              0.8123125073      -35.5318151559       95.3486864533  LPSA22    27             19.0000000000
     24209       783  BGLCNA    H4              1.8792414269      -35.8509472562       95.3090014479  LPSA22    27             19.0000000000
     24210       783  BGLCNA    O4              0.6565172381      -34.4691494995       96.2156872787  LPSA22    27             19.0000000000
     24211       783  BGLCNA    HO4            -0.2026345917      -34.1551347240       96.0162444362  LPSA22    27             19.0000000000
     24212       783  BGLCNA    C6              1.1113474710      -33.9850580960       93.2852949846  LPSA22    27             19.0000000000
     24213       783  BGLCNA    H61             0.7922921514      -33.1078103134       93.8557506920  LPSA22    27             19.0000000000
     24214       783  BGLCNA    H62             2.2090362296      -34.0509779432       93.4725180191  LPSA22    27             19.0000000000
     24215       783  BGLCNA    O6              0.7889801497      -33.8930356948       91.9076175409  LPSA22    27             19.0000000000
     24216       783  BGLCNA    HO6             1.2876235669      -33.1369136462       91.5273290588  LPSA22    27             19.0000000000
     24217       784  AGAL      C1             -0.1405045094      -36.5491447849       98.2622020222  LPSA22    28             20.0000000000
     24218       784  AGAL      H1              0.4340449988      -35.6632491393       98.3007149491  LPSA22    28             20.0000000000
     24219       784  AGAL      C5             -2.4658103812      -37.2295298938       98.1710438288  LPSA22    28             20.0000000000
     24220       784  AGAL      H5             -2.1262688029      -38.1289241966       97.4646141937  LPSA22    28             20.0000000000
     24221       784  AGAL      O5             -1.4893187814      -36.1106895302       98.1147365872  LPSA22    28             20.0000000000
     24222       784  AGAL      C2             -0.0558961682      -37.2684168871       99.6197190629  LPSA22    28             20.0000000000
     24223       784  AGAL      H2             -0.4142071241      -36.4956087071      100.2965066153  LPSA22    28             20.0000000000
     24224       784  AGAL      O2              1.2397647346      -37.6225243530      100.0788731798  LPSA22    28             20.0000000000
     24225       784  AGAL      C3             -1.0232406767      -38.4038164929       99.7396972452  LPSA22    28             20.0000000000
     24226       784  AGAL      H3             -0.8414051999      -39.0990041487       98.8607737785  LPSA22    28             20.0000000000
     24227       784  AGAL      O3             -0.9702182893      -39.2506681813      100.9043404272  LPSA22    28             20.0000000000
     24228       784  AGAL      HO3            -0.7336909718      -40.1340744540      100.5606486229  LPSA22    28             20.0000000000
     24229       784  AGAL      C4             -2.3900786152      -37.8954619544       99.5102226768  LPSA22    28             20.0000000000
     24230       784  AGAL      H4             -3.0482293512      -38.7308139508       99.4798298294  LPSA22    28             20.0000000000
     24231       784  AGAL      O4             -2.8248291888      -36.9920824227      100.4757933835  LPSA22    28             20.0000000000
     24232       784  AGAL      HO4            -3.3891342447      -37.4724457332      101.0376442747  LPSA22    28             20.0000000000
     24233       784  AGAL      C6             -3.8596564720      -36.8891698881       97.6362902244  LPSA22    28             20.0000000000
     24234       784  AGAL      H61            -3.7834098398      -36.6355006587       96.5809275898  LPSA22    28             20.0000000000
     24235       784  AGAL      H62            -4.6759543505      -37.6905756581       97.7651048223  LPSA22    28             20.0000000000
     24236       784  AGAL      O6             -4.3819373752      -35.7848921722       98.3456070822  LPSA22    28             20.0000000000
     24237       784  AGAL      HO6            -4.0935493952      -34.9654031968       97.9416813930  LPSA22    28             20.0000000000
     24238       785  ARHM      C1              1.3501133097      -37.2815258453      101.4808913342  LPSA22    29             21.0000000000
     24239       785  ARHM      H1              0.3363306257      -37.3180268974      101.9964955809  LPSA22    29             21.0000000000
     24240       785  ARHM      C5              3.1956430601      -35.8683633179      101.1486206043  LPSA22    29             21.0000000000
     24241       785  ARHM      H5              3.1185060615      -36.1986614982      100.0935446791  LPSA22    29             21.0000000000
     24242       785  ARHM      O5              1.9108051666      -36.0152199195      101.6833506475  LPSA22    29             21.0000000000
     24243       785  ARHM      C2              2.1386422194      -38.3217902110      102.1437305515  LPSA22    29             21.0000000000
     24244       785  ARHM      H2              1.7807503690      -39.3027178297      101.9067628034  LPSA22    29             21.0000000000
     24245       785  ARHM      O2              2.1330627032      -38.1785042681      103.5748524404  LPSA22    29             21.0000000000
     24246       785  ARHM      C3              3.5463238599      -38.2191311019      101.6289418068  LPSA22    29             21.0000000000
     24247       785  ARHM      H3              3.5525326995      -38.4839664984      100.4952263366  LPSA22    29             21.0000000000
     24248       785  ARHM      O3              4.2990145710      -39.2549624499      102.1995749427  LPSA22    29             21.0000000000
     24249       785  ARHM      HO3             5.1452756920      -38.9591918933      102.2092645043  LPSA22    29             21.0000000000
     24250       785  ARHM      C4              4.1545848784      -36.9003339369      101.8247918557  LPSA22    29             21.0000000000
     24251       785  ARHM      H4              4.2687782077      -36.6476852271      102.9338171738  LPSA22    29             21.0000000000
     24252       785  ARHM      O4              5.5050243524      -36.7101120912      101.3452167393  LPSA22    29             21.0000000000
     24253       785  ARHM      HO4             5.6760580203      -37.1017244281      100.4362974805  LPSA22    29             21.0000000000
     24254       785  ARHM      C6              3.5376896505      -34.3694164977      101.2162231226  LPSA22    29             21.0000000000
     24255       785  ARHM      H61             2.5998892108      -33.8771318513      100.7685423143  LPSA22    29             21.0000000000
     24256       785  ARHM      H62             3.6190112700      -34.0668512324      102.3013153741  LPSA22    29             21.0000000000
     24257       785  ARHM      H63             4.4290599839      -34.1838282704      100.6072571094  LPSA22    29             21.0000000000
     24258       786  ARHM      C1              1.2743801126      -38.9058944408      104.3945976075  LPSA22    30             22.0000000000
     24259       786  ARHM      H1              1.4427823275      -39.9895406688      104.2094096401  LPSA22    30             22.0000000000
     24260       786  ARHM      C5             -0.4332598433      -37.1757372612      104.5143062533  LPSA22    30             22.0000000000
     24261       786  ARHM      H5              0.3508603901      -36.6230157416      103.8668162917  LPSA22    30             22.0000000000
     24262       786  ARHM      O5             -0.1144299695      -38.5616806031      104.2052433351  LPSA22    30             22.0000000000
     24263       786  ARHM      C2              1.6215496247      -38.6339678623      105.8471183130  LPSA22    30             22.0000000000
     24264       786  ARHM      H2              2.6233145136      -38.8519639431      106.0289718167  LPSA22    30             22.0000000000
     24265       786  ARHM      O2              0.7290196580      -39.4011321614      106.5813641610  LPSA22    30             22.0000000000
     24266       786  ARHM      C3              1.3097526377      -37.2582888343      106.2079894766  LPSA22    30             22.0000000000
     24267       786  ARHM      H3              1.7940787846      -36.6122283471      105.5270001340  LPSA22    30             22.0000000000
     24268       786  ARHM      O3              1.7676847991      -36.8825486674      107.5373891676  LPSA22    30             22.0000000000
     24269       786  ARHM      C4             -0.1637639721      -36.9112959501      105.9708288384  LPSA22    30             22.0000000000
     24270       786  ARHM      H4             -0.8489418234      -37.5428492190      106.5400372406  LPSA22    30             22.0000000000
     24271       786  ARHM      O4             -0.5372735317      -35.6473724669      106.2997755749  LPSA22    30             22.0000000000
     24272       786  ARHM      HO4            -0.3466359387      -34.9175276164      105.6964454668  LPSA22    30             22.0000000000
     24273       786  ARHM      C6             -1.8434944058      -36.8611350922      104.0930490251  LPSA22    30             22.0000000000
     24274       786  ARHM      H61            -1.9808995140      -35.7506640671      104.2143179997  LPSA22    30             22.0000000000
     24275       786  ARHM      H62            -1.9248566653      -36.9924301859      103.0019050467  LPSA22    30             22.0000000000
     24276       786  ARHM      H63            -2.6341733991      -37.4576610687      104.6493652223  LPSA22    30             22.0000000000
     24277       787  BMANNA    C1              1.1756491281      -40.6870106255      106.9502319096  LPSA22    31             23.0000000000
     24278       787  BMANNA    H1              2.2676438327      -40.6195506243      107.1550799008  LPSA22    31             23.0000000000
     24279       787  BMANNA    C5              1.4958899479      -42.9817578255      106.2136717625  LPSA22    31             23.0000000000
     24280       787  BMANNA    H5              2.5288867177      -42.8077828005      106.5467054000  LPSA22    31             23.0000000000
     24281       787  BMANNA    O5              0.9732131722      -41.6641397699      105.8742289322  LPSA22    31             23.0000000000
     24282       787  BMANNA    C2              0.4369970629      -41.1520476541      108.0830629221  LPSA22    31             23.0000000000
     24283       787  BMANNA    H2              0.7021134811      -40.4576883048      108.9031915743  LPSA22    31             23.0000000000
     24284       787  BMANNA    N              -0.9550030549      -41.0169891734      107.8252935315  LPSA22    31             23.0000000000
     24285       787  BMANNA    HN             -1.2540992532      -41.0316844620      106.8111160773  LPSA22    31             23.0000000000
     24286       787  BMANNA    C              -1.8620157784      -40.8263719244      108.7868858964  LPSA22    31             23.0000000000
     24287       787  BMANNA    O              -1.5454042342      -40.6785943266      109.9536662434  LPSA22    31             23.0000000000
     24288       787  BMANNA    CT             -3.3264190435      -40.7871326966      108.3237946568  LPSA22    31             23.0000000000
     24289       787  BMANNA    HT1            -3.4528414329      -41.5259312509      107.5739831696  LPSA22    31             23.0000000000
     24290       787  BMANNA    HT2            -3.5241028087      -39.7824288115      107.9347099034  LPSA22    31             23.0000000000
     24291       787  BMANNA    HT3            -4.0166717483      -40.8814309664      109.1768357935  LPSA22    31             23.0000000000
     24292       787  BMANNA    C3              0.9426819665      -42.4977921518      108.4884560283  LPSA22    31             23.0000000000
     24293       787  BMANNA    H3              2.0769832432      -42.4862133050      108.6988550870  LPSA22    31             23.0000000000
     24294       787  BMANNA    O3              0.3974876088      -42.9151875697      109.7404994872  LPSA22    31             23.0000000000
     24295       787  BMANNA    HO3             0.1208639215      -42.0592588170      110.0111610137  LPSA22    31             23.0000000000
     24296       787  BMANNA    C4              0.7001316785      -43.4863479231      107.4199857710  LPSA22    31             23.0000000000
     24297       787  BMANNA    H4             -0.4258063411      -43.6178233736      107.0572414185  LPSA22    31             23.0000000000
     24298       787  BMANNA    O4              1.1143050197      -44.7739433742      107.8525671122  LPSA22    31             23.0000000000
     24299       787  BMANNA    HO4             2.0364402067      -44.7737436953      108.1943429300  LPSA22    31             23.0000000000
     24300       787  BMANNA    C6              1.4155013470      -43.9848756319      105.0512686782  LPSA22    31             23.0000000000
     24301       787  BMANNA    H61             2.0452281530      -44.9189988769      105.3397811046  LPSA22    31             23.0000000000
     24302       787  BMANNA    H62             0.4043576915      -44.3377541362      104.8698551944  LPSA22    31             23.0000000000
     24303       787  BMANNA    O6              1.9248531888      -43.4267666893      103.8241467834  LPSA22    31             23.0000000000
     24304       787  BMANNA    HO6             2.9160056033      -43.3008427405      103.8134147631  LPSA22    31             23.0000000000
     24305       788  BGLCNA    C1              0.9672073027      -37.2524736098      108.6103969990  LPSA22    32             23.0000000000
     24306       788  BGLCNA    H1              0.4668576032      -38.2572469499      108.4325564695  LPSA22    32             23.0000000000
     24307       788  BGLCNA    C5             -1.0012526864      -36.7694979728      109.9277617404  LPSA22    32             23.0000000000
     24308       788  BGLCNA    H5             -1.4035248806      -37.7735328205      109.5374749077  LPSA22    32             23.0000000000
     24309       788  BGLCNA    O5             -0.0657902475      -36.3237229432      108.9423333575  LPSA22    32             23.0000000000
     24310       788  BGLCNA    C2              1.7719081681      -37.4524475207      109.8194522937  LPSA22    32             23.0000000000
     24311       788  BGLCNA    H2              2.0679567751      -36.4707575472      110.1044894257  LPSA22    32             23.0000000000
     24312       788  BGLCNA    N               2.9133869604      -38.2730144896      109.5956973249  LPSA22    32             23.0000000000
     24313       788  BGLCNA    HN              2.6877591085      -38.9655322260      108.8809076996  LPSA22    32             23.0000000000
     24314       788  BGLCNA    C               4.1683587422      -38.1599225976      110.0864625708  LPSA22    32             23.0000000000
     24315       788  BGLCNA    O               4.4715376668      -37.3164425952      110.9304085025  LPSA22    32             23.0000000000
     24316       788  BGLCNA    CT              5.2176576776      -39.1762499008      109.5841031968  LPSA22    32             23.0000000000
     24317       788  BGLCNA    HT1             4.6675163601      -39.5718533901      108.6281101354  LPSA22    32             23.0000000000
     24318       788  BGLCNA    HT2             5.3827322798      -40.0314841780      110.1898124037  LPSA22    32             23.0000000000
     24319       788  BGLCNA    HT3             6.1890727543      -38.6958270767      109.3122359934  LPSA22    32             23.0000000000
     24320       788  BGLCNA    C3              0.8852659779      -38.0101417341      110.8930231790  LPSA22    32             23.0000000000
     24321       788  BGLCNA    H3              0.4164805240      -38.8471754479      110.4606187373  LPSA22    32             23.0000000000
     24322       788  BGLCNA    O3              1.5835991358      -38.4595295409      112.0657798240  LPSA22    32             23.0000000000
     24323       788  BGLCNA    C4             -0.1774728868      -36.9823571401      111.1707572500  LPSA22    32             23.0000000000
     24324       788  BGLCNA    H4              0.3455181438      -36.0552967767      111.5318289610  LPSA22    32             23.0000000000
     24325       788  BGLCNA    O4             -1.0322527045      -37.3883764101      112.2070236435  LPSA22    32             23.0000000000
     24326       788  BGLCNA    HO4            -0.7238013253      -37.0895202577      113.0745323218  LPSA22    32             23.0000000000
     24327       788  BGLCNA    C6             -2.1553251786      -35.7934999654      110.0229508171  LPSA22    32             23.0000000000
     24328       788  BGLCNA    H61            -2.9840082221      -36.1879037779      110.7194343748  LPSA22    32             23.0000000000
     24329       788  BGLCNA    H62            -1.7956009937      -34.8346564668      110.5717638480  LPSA22    32             23.0000000000
     24330       788  BGLCNA    O6             -2.7657598823      -35.5566234688      108.7709294272  LPSA22    32             23.0000000000
     24331       788  BGLCNA    HO6            -2.7708256696      -36.3910175099      108.2360311317  LPSA22    32             23.0000000000
     24332       789  AGAL      C1              1.0333782294      -39.6533387978      112.6842874521  LPSA22    33             24.0000000000
     24333       789  AGAL      H1             -0.0528993083      -39.5715682077      112.5979959475  LPSA22    33             24.0000000000
     24334       789  AGAL      C5              2.9190075779      -41.0160111086      112.2149219831  LPSA22    33             24.0000000000
     24335       789  AGAL      H5              3.3332262139      -40.0486050279      111.8792915250  LPSA22    33             24.0000000000
     24336       789  AGAL      O5              1.5192909212      -40.8897230415      112.0726784748  LPSA22    33             24.0000000000
     24337       789  AGAL      C2              1.4677141701      -39.6411427282      114.1482787662  LPSA22    33             24.0000000000
     24338       789  AGAL      H2              1.1000224018      -40.6529492849      114.5751854976  LPSA22    33             24.0000000000
     24339       789  AGAL      O2              0.7085010796      -38.6736660706      114.8486222260  LPSA22    33             24.0000000000
     24340       789  AGAL      C3              2.9600554744      -39.8060077383      114.2945545625  LPSA22    33             24.0000000000
     24341       789  AGAL      H3              3.5076392871      -38.9689011179      113.7405815065  LPSA22    33             24.0000000000
     24342       789  AGAL      O3              3.4253300201      -39.6210465454      115.5672660328  LPSA22    33             24.0000000000
     24343       789  AGAL      HO3             3.0179411611      -40.1246331450      116.2400186851  LPSA22    33             24.0000000000
     24344       789  AGAL      C4              3.4195563536      -41.1036259333      113.6708488317  LPSA22    33             24.0000000000
     24345       789  AGAL      H4              4.5135345161      -41.1814759513      113.6729875792  LPSA22    33             24.0000000000
     24346       789  AGAL      O4              2.9468379624      -42.3446324058      114.2435538900  LPSA22    33             24.0000000000
     24347       789  AGAL      HO4             2.2803801370      -42.2181125215      114.9085525172  LPSA22    33             24.0000000000
     24348       789  AGAL      C6              3.4890377318      -42.0732264891      111.2992528405  LPSA22    33             24.0000000000
     24349       789  AGAL      H61             3.2539915884      -41.7097551847      110.2783408757  LPSA22    33             24.0000000000
     24350       789  AGAL      H62             4.5823125534      -42.2367001364      111.3458027743  LPSA22    33             24.0000000000
     24351       789  AGAL      O6              2.9972761687      -43.3717007895      111.4129476537  LPSA22    33             24.0000000000
     24352       789  AGAL      HO6             2.2042800736      -43.5439604325      110.8444757795  LPSA22    33             24.0000000000
     24353       790  ARHM      C1              0.1004401284      -39.1364402365      116.0109133884  LPSA22    34             25.0000000000
     24354       790  ARHM      H1              0.7865965941      -39.7300087228      116.6389743656  LPSA22    34             25.0000000000
     24355       790  ARHM      C5             -2.1104583157      -39.4197144632      115.0727799907  LPSA22    34             25.0000000000
     24356       790  ARHM      H5             -1.6899653983      -39.1862194434      114.0209633333  LPSA22    34             25.0000000000
     24357       790  ARHM      O5             -1.0403184782      -40.0110001274      115.8926868953  LPSA22    34             25.0000000000
     24358       790  ARHM      C2             -0.2747375038      -37.8885674481      116.7601555753  LPSA22    34             25.0000000000
     24359       790  ARHM      H2              0.5373442295      -37.1196355488      116.8710959342  LPSA22    34             25.0000000000
     24360       790  ARHM      O2             -0.7670386725      -38.1191944498      118.1592972339  LPSA22    34             25.0000000000
     24361       790  ARHM      C3             -1.3967001948      -37.1975769148      115.9988665506  LPSA22    34             25.0000000000
     24362       790  ARHM      H3             -1.0877082643      -36.9484294470      114.9724172480  LPSA22    34             25.0000000000
     24363       790  ARHM      O3             -1.8964925433      -35.9723928950      116.5878695042  LPSA22    34             25.0000000000
     24364       790  ARHM      HO3            -2.1110568437      -35.2934814228      115.9559434517  LPSA22    34             25.0000000000
     24365       790  ARHM      C4             -2.6260853617      -38.1252623927      115.7987835878  LPSA22    34             25.0000000000
     24366       790  ARHM      H4             -2.9943844175      -38.5447131975      116.7495315617  LPSA22    34             25.0000000000
     24367       790  ARHM      O4             -3.6691524790      -37.5106303145      115.1362621200  LPSA22    34             25.0000000000
     24368       790  ARHM      HO4            -4.1565764899      -36.9099036300      115.6953140327  LPSA22    34             25.0000000000
     24369       790  ARHM      C6             -3.2901397250      -40.4307447408      114.8413279703  LPSA22    34             25.0000000000
     24370       790  ARHM      H61            -3.8274248037      -40.7297665029      115.7172490283  LPSA22    34             25.0000000000
     24371       790  ARHM      H62            -4.1235539070      -39.8565883239      114.3996926230  LPSA22    34             25.0000000000
     24372       790  ARHM      H63            -3.0907795716      -41.2777369307      114.1590834060  LPSA22    34             25.0000000000
     24373       791  ARHM      C1              0.1208214180      -38.7865843450      119.0795908573  LPSA22    35             26.0000000000
     24374       791  ARHM      H1              1.2067025036      -38.4044341883      118.8787348947  LPSA22    35             26.0000000000
     24375       791  ARHM      C5             -1.2262679145      -40.8017443509      119.2408916176  LPSA22    35             26.0000000000
     24376       791  ARHM      H5             -2.0286344211      -40.3546765134      118.5254732223  LPSA22    35             26.0000000000
     24377       791  ARHM      O5              0.1175288723      -40.2688611710      118.9290334222  LPSA22    35             26.0000000000
     24378       791  ARHM      C2             -0.2491042407      -38.4221640401      120.5365485050  LPSA22    35             26.0000000000
     24379       791  ARHM      H2             -0.1370146032      -37.3147145571      120.7134209997  LPSA22    35             26.0000000000
     24380       791  ARHM      O2              0.6192824179      -39.0394274187      121.4126203716  LPSA22    35             26.0000000000
     24381       791  ARHM      C3             -1.6746742625      -38.9149812774      120.8720061906  LPSA22    35             26.0000000000
     24382       791  ARHM      H3             -2.3635576977      -38.3868409431      120.1344793452  LPSA22    35             26.0000000000
     24383       791  ARHM      O3             -2.0831760913      -38.4853518263      122.1540075829  LPSA22    35             26.0000000000
     24384       791  ARHM      HO3            -1.3149221029      -38.4668033871      122.7288731339  LPSA22    35             26.0000000000
     24385       791  ARHM      C4             -1.6876611252      -40.4065181274      120.6788917534  LPSA22    35             26.0000000000
     24386       791  ARHM      H4             -0.9558728249      -40.9587900671      121.3307119103  LPSA22    35             26.0000000000
     24387       791  ARHM      O4             -3.0336178903      -40.8426968861      120.9693790153  LPSA22    35             26.0000000000
     24388       791  ARHM      HO4            -3.7317347939      -40.2814579489      120.5581709812  LPSA22    35             26.0000000000
     24389       791  ARHM      C6             -1.2828366634      -42.3222738066      118.8642347863  LPSA22    35             26.0000000000
     24390       791  ARHM      H61            -1.1743008308      -42.4690823688      117.7433556958  LPSA22    35             26.0000000000
     24391       791  ARHM      H62            -0.4471203184      -42.7217388821      119.4176110492  LPSA22    35             26.0000000000
     24392       791  ARHM      H63            -2.3378789877      -42.6679372696      119.0633705917  LPSA22    35             26.0000000000
     24393       792  BMANNA    C1              1.9250293026      -38.5473227607      121.4471464502  LPSA22    36             27.0000000000
     24394       792  BMANNA    H1              1.9704189540      -37.4885869790      121.0972061898  LPSA22    36             27.0000000000
     24395       792  BMANNA    C5              4.2356022891      -38.5102567875      120.7299884793  LPSA22    36             27.0000000000
     24396       792  BMANNA    H5              4.0700634257      -37.4684132063      120.4610684421  LPSA22    36             27.0000000000
     24397       792  BMANNA    O5              2.9543349132      -39.2140090208      120.6641532654  LPSA22    36             27.0000000000
     24398       792  BMANNA    C2              2.3998348780      -38.5488400687      122.8920138725  LPSA22    36             27.0000000000
     24399       792  BMANNA    H2              1.6631547136      -37.9619747657      123.4719477421  LPSA22    36             27.0000000000
     24400       792  BMANNA    N               2.4075327749      -39.9050589168      123.4395449790  LPSA22    36             27.0000000000
     24401       792  BMANNA    HN              2.7508174077      -40.6616165091      122.8746519580  LPSA22    36             27.0000000000
     24402       792  BMANNA    C               2.2503668798      -40.1193734830      124.7737151700  LPSA22    36             27.0000000000
     24403       792  BMANNA    O               1.9352760722      -39.2756472861      125.6190347561  LPSA22    36             27.0000000000
     24404       792  BMANNA    CT              2.5177106705      -41.4789537084      125.3570716528  LPSA22    36             27.0000000000
     24405       792  BMANNA    HT1             3.3917289405      -41.9332891188      124.8802869227  LPSA22    36             27.0000000000
     24406       792  BMANNA    HT2             1.6884653693      -42.2188547159      125.1731404614  LPSA22    36             27.0000000000
     24407       792  BMANNA    HT3             2.6264028556      -41.5235191381      126.4547536948  LPSA22    36             27.0000000000
     24408       792  BMANNA    C3              3.7443460378      -37.8730446003      122.9763638711  LPSA22    36             27.0000000000
     24409       792  BMANNA    H3              3.6724006187      -36.8307649944      122.6403873786  LPSA22    36             27.0000000000
     24410       792  BMANNA    O3              4.2304627923      -37.7905156348      124.3414054450  LPSA22    36             27.0000000000
     24411       792  BMANNA    HO3             4.3337028513      -36.9225603388      124.7171830083  LPSA22    36             27.0000000000
     24412       792  BMANNA    C4              4.7495131929      -38.5410489545      122.1146940524  LPSA22    36             27.0000000000
     24413       792  BMANNA    H4              4.9474313734      -39.5423111773      122.4263894750  LPSA22    36             27.0000000000
     24414       792  BMANNA    O4              6.0247862743      -37.9108848027      122.2172873890  LPSA22    36             27.0000000000
     24415       792  BMANNA    HO4             6.1253390879      -37.9957190677      123.1985163392  LPSA22    36             27.0000000000
     24416       792  BMANNA    C6              5.1576550628      -39.1027020412      119.7412642597  LPSA22    36             27.0000000000
     24417       792  BMANNA    H61             4.7758522383      -38.9883235129      118.6946701192  LPSA22    36             27.0000000000
     24418       792  BMANNA    H62             6.0170847028      -38.4261069963      119.7045442506  LPSA22    36             27.0000000000
     24419       792  BMANNA    O6              5.5485946308      -40.4790534326      120.0914698020  LPSA22    36             27.0000000000
     24420       792  BMANNA    HO6             6.3314676607      -40.3930752408      120.6476247167  LPSA22    36             27.0000000000
     24421       793  ECLIPA    HB6S           32.9239426307      -15.1908264239       20.4612168218  LPSA23    1               0.0000000000
     24422       793  ECLIPA    OB6            34.0964116652      -14.1335744572       21.7140249152  LPSA23    1               0.0000000000
     24423       793  ECLIPA    CB6            33.0238938632      -14.1673864104       20.7042159014  LPSA23    1               0.0000000000
     24424       793  ECLIPA    HB6R           32.1482356367      -13.6519174089       21.0541931349  LPSA23    1               0.0000000000
     24425       793  ECLIPA    CB5            33.3994161518      -13.3477609048       19.3988764877  LPSA23    1               0.0000000000
     24426       793  ECLIPA    OB5            34.7011583497      -13.9184844957       18.9716901872  LPSA23    1               0.0000000000
     24427       793  ECLIPA    HB5            33.5804072237      -12.3241844376       19.7771798410  LPSA23    1               0.0000000000
     24428       793  ECLIPA    CB1            35.1593710245      -13.2530338873       17.7717324898  LPSA23    1               0.0000000000
     24429       793  ECLIPA    HB1            35.3095253449      -12.1585891365       17.9003641080  LPSA23    1               0.0000000000
     24430       793  ECLIPA    OA6            36.3502914905      -13.8255854609       17.3217246577  LPSA23    1               0.0000000000
     24431       793  ECLIPA    CA6            36.6085309724      -15.2231651882       17.5745106853  LPSA23    1               0.0000000000
     24432       793  ECLIPA    HA6R           35.6360624523      -15.7350770191       17.7226451425  LPSA23    1               0.0000000000
     24433       793  ECLIPA    HA6S           37.3593428835      -15.2861250954       18.4598965841  LPSA23    1               0.0000000000
     24434       793  ECLIPA    CB4            32.3029321343      -13.4504085281       18.3206521937  LPSA23    1               0.0000000000
     24435       793  ECLIPA    HB4            32.1382144415      -14.5031562149       18.0085584641  LPSA23    1               0.0000000000
     24436       793  ECLIPA    OB4            31.2146762863      -12.6991454690       18.9017319965  LPSA23    1               0.0000000000
     24437       793  ECLIPA    PB             29.8614483179      -13.4625200163       19.3234616795  LPSA23    1               0.0000000000
     24438       793  ECLIPA    OPB4           29.2970185553      -12.7350964959       20.5579515876  LPSA23    1               0.0000000000
     24439       793  ECLIPA    OPB3           30.4097640823      -14.8702565902       19.6614545037  LPSA23    1               0.0000000000
     24440       793  ECLIPA    OPB2           28.9567045695      -13.5032590486       18.0829495795  LPSA23    1               0.0000000000
     24441       793  ECLIPA    CB3            32.8519923295      -12.7449816367       17.0955893951  LPSA23    1               0.0000000000
     24442       793  ECLIPA    OB3            32.0268025043      -12.8020482472       15.9186528231  LPSA23    1               0.0000000000
     24443       793  ECLIPA    HB3            33.2173933351      -11.6986563401       17.3284540628  LPSA23    1               0.0000000000
     24444       793  ECLIPA    C71            31.2015922241      -11.8350294955       15.6929469039  LPSA23    1               0.0000000000
     24445       793  ECLIPA    O71            31.1402373177      -10.7912452682       16.3832172580  LPSA23    1               0.0000000000
     24446       793  ECLIPA    C72            30.4773194263      -12.1371931958       14.3548430386  LPSA23    1               0.0000000000
     24447       793  ECLIPA    H72R           31.2303755741      -12.2546308891       13.5774555414  LPSA23    1               0.0000000000
     24448       793  ECLIPA    H72S           29.6929277191      -11.2935200474       14.1464415926  LPSA23    1               0.0000000000
     24449       793  ECLIPA    CB2            34.1692375580      -13.4247393974       16.6720734084  LPSA23    1               0.0000000000
     24450       793  ECLIPA    HB2            33.9098546848      -14.5691536360       16.5298168153  LPSA23    1               0.0000000000
     24451       793  ECLIPA    NB2            34.7626412811      -12.8252717109       15.4577284722  LPSA23    1               0.0000000000
     24452       793  ECLIPA    HNB2           35.3385582470      -12.0208386697       15.5965609326  LPSA23    1               0.0000000000
     24453       793  ECLIPA    CA4            38.3429555869      -14.9386902766       15.7929312798  LPSA23    1               0.0000000000
     24454       793  ECLIPA    HA4            37.9023988799      -13.9546179530       15.4903430209  LPSA23    1               0.0000000000
     24455       793  ECLIPA    OA4            39.2879316302      -14.7429722921       16.8012065728  LPSA23    1               0.0000000000
     24456       793  ECLIPA    HOA4           38.9064917182      -14.4920702886       17.5928838569  LPSA23    1               0.0000000000
     24457       793  ECLIPA    CA5            37.2833838514      -15.7912121292       16.3547806008  LPSA23    1               0.0000000000
     24458       793  ECLIPA    HA5            37.5542962688      -16.9027843088       16.5880746347  LPSA23    1               0.0000000000
     24459       793  ECLIPA    OA5            36.2474076029      -15.9015039986       15.3689671688  LPSA23    1               0.0000000000
     24460       793  ECLIPA    CA1            36.7577438407      -16.4631087075       14.1076640156  LPSA23    1               0.0000000000
     24461       793  ECLIPA    HA1            35.9287496455      -16.1564734686       13.4118188108  LPSA23    1               0.0000000000
     24462       793  ECLIPA    OA1            36.8653010209      -17.8728923087       14.1359876212  LPSA23    1               0.0000000000
     24463       793  ECLIPA    OPA2           36.2909318601      -19.3257642823       15.9734101064  LPSA23    1               0.0000000000
     24464       793  ECLIPA    OPA3           34.4172236222      -18.0288632656       14.8300177673  LPSA23    1               0.0000000000
     24465       793  ECLIPA    OPA4           35.5043319943      -19.8907340567       13.6615320840  LPSA23    1               0.0000000000
     24466       793  ECLIPA    PA             35.7028438783      -18.7874373768       14.6765383084  LPSA23    1               0.0000000000
     24467       793  ECLIPA    CA3            38.9661696394      -15.4977657620       14.5219348229  LPSA23    1               0.0000000000
     24468       793  ECLIPA    HA3            39.5048130182      -16.5021109513       14.7377032538  LPSA23    1               0.0000000000
     24469       793  ECLIPA    OA3            40.0446562826      -14.6212486944       14.2498111976  LPSA23    1               0.0000000000
     24470       793  ECLIPA    C31            39.7485845644      -13.5115431506       13.5006246295  LPSA23    1               0.0000000000
     24471       793  ECLIPA    O31            39.5861898042      -13.4745246170       12.2941239937  LPSA23    1               0.0000000000
     24472       793  ECLIPA    C32            40.1758908271      -12.2581688061       14.2780289507  LPSA23    1               0.0000000000
     24473       793  ECLIPA    H32R           40.9885044900      -11.7614572120       13.7149713840  LPSA23    1               0.0000000000
     24474       793  ECLIPA    H32S           40.5146178994      -12.5359666161       15.2729523512  LPSA23    1               0.0000000000
     24475       793  ECLIPA    CA2            37.8535379222      -15.6198269011       13.4984733916  LPSA23    1               0.0000000000
     24476       793  ECLIPA    HA2            37.3952546472      -14.6325060476       13.3982259915  LPSA23    1               0.0000000000
     24477       793  ECLIPA    NA2            38.2991595379      -16.1764458499       12.2035087571  LPSA23    1               0.0000000000
     24478       793  ECLIPA    HNA2           39.2590521175      -16.2618093216       12.0865030408  LPSA23    1               0.0000000000
     24479       793  ECLIPA    C73            29.6637116311      -13.4052518776       14.3319064372  LPSA23    1               0.0000000000
     24480       793  ECLIPA    H73R           29.0608865858      -13.5372265875       15.2227416964  LPSA23    1               0.0000000000
     24481       793  ECLIPA    O73            30.6113292779      -14.4997140215       14.2644256719  LPSA23    1               0.0000000000
     24482       793  ECLIPA    C81            30.4367644778      -15.6934650827       14.8555734565  LPSA23    1               0.0000000000
     24483       793  ECLIPA    O81            29.4708398561      -15.8376750707       15.6690894779  LPSA23    1               0.0000000000
     24484       793  ECLIPA    C82            31.4541776926      -16.7368423844       14.3536111794  LPSA23    1               0.0000000000
     24485       793  ECLIPA    H82R           31.3265525720      -17.6919066399       14.8531840528  LPSA23    1               0.0000000000
     24486       793  ECLIPA    H82S           32.5024345860      -16.4038485847       14.5323473422  LPSA23    1               0.0000000000
     24487       793  ECLIPA    C83            31.2986852521      -16.9317156370       12.8301722806  LPSA23    1               0.0000000000
     24488       793  ECLIPA    H83R           31.8467058632      -16.1081673882       12.2351841548  LPSA23    1               0.0000000000
     24489       793  ECLIPA    H83S           30.2496835003      -16.7481685853       12.5911296392  LPSA23    1               0.0000000000
     24490       793  ECLIPA    C84            31.9014829699      -18.2508290969       12.3050927261  LPSA23    1               0.0000000000
     24491       793  ECLIPA    H84R           31.2255481644      -19.0709136079       12.5767117503  LPSA23    1               0.0000000000
     24492       793  ECLIPA    H84S           32.8791189134      -18.2786224669       12.7369555497  LPSA23    1               0.0000000000
     24493       793  ECLIPA    C85            32.0797526673      -18.2114907130       10.7695484051  LPSA23    1               0.0000000000
     24494       793  ECLIPA    H85R           32.4935406280      -17.2187166036       10.5503608829  LPSA23    1               0.0000000000
     24495       793  ECLIPA    H85S           31.0808080819      -18.2429092186       10.2367999955  LPSA23    1               0.0000000000
     24496       793  ECLIPA    C86            33.1275561192      -19.2601226795       10.3034592726  LPSA23    1               0.0000000000
     24497       793  ECLIPA    H86R           32.6666444981      -20.2560924347        9.9932223571  LPSA23    1               0.0000000000
     24498       793  ECLIPA    H86S           33.8316521142      -19.4914126390       11.0807540114  LPSA23    1               0.0000000000
     24499       793  ECLIPA    C87            34.0491771609      -18.7123282918        9.1601018854  LPSA23    1               0.0000000000
     24500       793  ECLIPA    H87R           34.7340905918      -19.4755183067        8.8049419625  LPSA23    1               0.0000000000
     24501       793  ECLIPA    H87S           34.7080450145      -17.8856318928        9.5406723883  LPSA23    1               0.0000000000
     24502       793  ECLIPA    C88            33.2511402616      -18.1068732575        8.0318999685  LPSA23    1               0.0000000000
     24503       793  ECLIPA    H88R           32.8315521755      -17.0962535736        8.3479828359  LPSA23    1               0.0000000000
     24504       793  ECLIPA    H88S           32.2743069433      -18.6624559123        7.9254521495  LPSA23    1               0.0000000000
     24505       793  ECLIPA    C89            34.0545023966      -17.8752299432        6.7101000712  LPSA23    1               0.0000000000
     24506       793  ECLIPA    H89R           35.1533945574      -17.8961676454        6.8746682686  LPSA23    1               0.0000000000
     24507       793  ECLIPA    H89S           33.8679928440      -16.9329469687        6.2317001698  LPSA23    1               0.0000000000
     24508       793  ECLIPA    C810           33.6411652809      -18.9647156128        5.7047246593  LPSA23    1               0.0000000000
     24509       793  ECLIPA    H810R          32.5975990794      -19.1620789343        6.0108430704  LPSA23    1               0.0000000000
     24510       793  ECLIPA    H810S          34.2509325476      -19.8346976204        5.8554647029  LPSA23    1               0.0000000000
     24511       793  ECLIPA    C811           33.7244699701      -18.5776424967        4.2179945741  LPSA23    1               0.0000000000
     24512       793  ECLIPA    H811R          33.7589396193      -19.3572560293        3.5081125689  LPSA23    1               0.0000000000
     24513       793  ECLIPA    H811S          34.6373343897      -17.8737288694        4.1819101877  LPSA23    1               0.0000000000
     24514       793  ECLIPA    C812           32.6487950140      -17.5893901379        3.7413673409  LPSA23    1               0.0000000000
     24515       793  ECLIPA    H812R          32.9401687742      -17.2705889030        2.6403157337  LPSA23    1               0.0000000000
     24516       793  ECLIPA    H812S          32.4820258840      -16.7576902471        4.4144737196  LPSA23    1               0.0000000000
     24517       793  ECLIPA    C813           31.2275651215      -18.1786364926        3.6785234959  LPSA23    1               0.0000000000
     24518       793  ECLIPA    H813R          31.2657579478      -19.0139996417        2.9398073555  LPSA23    1               0.0000000000
     24519       793  ECLIPA    H813S          30.8239259292      -18.6266110654        4.6616087352  LPSA23    1               0.0000000000
     24520       793  ECLIPA    C814           30.1929922302      -17.2133271838        3.1377409857  LPSA23    1               0.0000000000
     24521       793  ECLIPA    H814R          30.4910940296      -16.6212772671        2.1719074593  LPSA23    1               0.0000000000
     24522       793  ECLIPA    H814S          29.9435025040      -16.4800542927        3.9166242729  LPSA23    1               0.0000000000
     24523       793  ECLIPA    H814T          29.2442432444      -17.7445806086        2.8964685373  LPSA23    1               0.0000000000
     24524       793  ECLIPA    C74            28.7197999227      -13.6541835269       13.1792855021  LPSA23    1               0.0000000000
     24525       793  ECLIPA    H74R           27.8991292038      -12.9635368597       12.9935747315  LPSA23    1               0.0000000000
     24526       793  ECLIPA    H74S           28.2383005403      -14.7014625225       13.3086690609  LPSA23    1               0.0000000000
     24527       793  ECLIPA    C75            29.5173244428      -13.8311415603       11.8151371119  LPSA23    1               0.0000000000
     24528       793  ECLIPA    H75R           28.9467253245      -14.6254145809       11.2107603889  LPSA23    1               0.0000000000
     24529       793  ECLIPA    H75S           30.5352731721      -14.2207782716       12.0082837783  LPSA23    1               0.0000000000
     24530       793  ECLIPA    C76            29.6368558010      -12.5634528989       10.9251453624  LPSA23    1               0.0000000000
     24531       793  ECLIPA    H76R           30.4422350696      -11.9067154201       11.3555905686  LPSA23    1               0.0000000000
     24532       793  ECLIPA    H76S           28.6840531482      -11.8889952962       10.9731137071  LPSA23    1               0.0000000000
     24533       793  ECLIPA    C77            29.9396730643      -12.7668743333        9.4191603634  LPSA23    1               0.0000000000
     24534       793  ECLIPA    H77R           29.1300410133      -13.3421321638        9.0408775908  LPSA23    1               0.0000000000
     24535       793  ECLIPA    H77S           30.8002590639      -13.4621605985        9.2852383479  LPSA23    1               0.0000000000
     24536       793  ECLIPA    C78            30.2675104220      -11.3892445655        8.8297405752  LPSA23    1               0.0000000000
     24537       793  ECLIPA    H78R           29.4869124138      -10.7029591282        9.1562620580  LPSA23    1               0.0000000000
     24538       793  ECLIPA    H78S           31.2415889847      -11.1070790104        9.3169442960  LPSA23    1               0.0000000000
     24539       793  ECLIPA    C79            30.6508658397      -11.4404253321        7.2570767761  LPSA23    1               0.0000000000
     24540       793  ECLIPA    H79R           31.7809033615      -11.4661812382        7.1763205913  LPSA23    1               0.0000000000
     24541       793  ECLIPA    H79S           30.3010719392      -10.5156162828        6.7882549413  LPSA23    1               0.0000000000
     24542       793  ECLIPA    C710           29.9178474120      -12.4591864642        6.3785096220  LPSA23    1               0.0000000000
     24543       793  ECLIPA    H710R          30.1408904053      -13.4466495459        6.8460783027  LPSA23    1               0.0000000000
     24544       793  ECLIPA    H710S          28.9140872159      -12.2850516727        6.4843026416  LPSA23    1               0.0000000000
     24545       793  ECLIPA    C711           30.3862829189      -12.4877218434        4.9384125046  LPSA23    1               0.0000000000
     24546       793  ECLIPA    H711R          30.1448895228      -11.4897144475        4.5670708729  LPSA23    1               0.0000000000
     24547       793  ECLIPA    H711S          31.4815925848      -12.7200200993        4.9306188492  LPSA23    1               0.0000000000
     24548       793  ECLIPA    C712           29.6407374480      -13.5948340614        4.2148670498  LPSA23    1               0.0000000000
     24549       793  ECLIPA    H712R          28.5753815334      -13.3588472116        4.3130666899  LPSA23    1               0.0000000000
     24550       793  ECLIPA    H712S          29.7961686661      -14.4814085360        4.8522839389  LPSA23    1               0.0000000000
     24551       793  ECLIPA    C713           30.1863178043      -13.8072487316        2.7357390519  LPSA23    1               0.0000000000
     24552       793  ECLIPA    H713R          31.2595032086      -14.1146202113        2.8800411466  LPSA23    1               0.0000000000
     24553       793  ECLIPA    H713S          29.5405755575      -14.6431954708        2.2750064041  LPSA23    1               0.0000000000
     24554       793  ECLIPA    C714           29.9407405393      -12.5455020243        1.8879763961  LPSA23    1               0.0000000000
     24555       793  ECLIPA    H714R          28.8665028778      -12.3494177076        1.7626189762  LPSA23    1               0.0000000000
     24556       793  ECLIPA    H714S          30.5612194894      -11.6995776646        2.2081901572  LPSA23    1               0.0000000000
     24557       793  ECLIPA    H714T          30.2845282940      -12.8732213531        0.9249202435  LPSA23    1               0.0000000000
     24558       793  ECLIPA    C51            34.3481749932      -13.2050448585       14.2380633031  LPSA23    1               0.0000000000
     24559       793  ECLIPA    O51            33.7658716569      -14.3054331711       14.1304636378  LPSA23    1               0.0000000000
     24560       793  ECLIPA    C52            34.5252023810      -12.2326707442       13.0157035712  LPSA23    1               0.0000000000
     24561       793  ECLIPA    H52R           33.7256555426      -11.5159124315       12.8950255930  LPSA23    1               0.0000000000
     24562       793  ECLIPA    H52S           35.4476823184      -11.7376132088       13.2222025935  LPSA23    1               0.0000000000
     24563       793  ECLIPA    C53            34.8006485613      -13.1343596677       11.7526064304  LPSA23    1               0.0000000000
     24564       793  ECLIPA    H53R           35.2350325298      -14.0952340537       12.0082431084  LPSA23    1               0.0000000000
     24565       793  ECLIPA    O53            35.5467409379      -12.3095467764       10.8431816314  LPSA23    1               0.0000000000
     24566       793  ECLIPA    C61            36.7692652855      -12.6887299368       10.5090573566  LPSA23    1               0.0000000000
     24567       793  ECLIPA    O61            37.3195512234      -13.6829135591       10.8659713306  LPSA23    1               0.0000000000
     24568       793  ECLIPA    C62            37.3839995702      -11.6370345990        9.5765835255  LPSA23    1               0.0000000000
     24569       793  ECLIPA    H62R           37.7332634831      -10.7984386950       10.2152837125  LPSA23    1               0.0000000000
     24570       793  ECLIPA    H62S           36.5299667663      -11.1627661818        9.0470049452  LPSA23    1               0.0000000000
     24571       793  ECLIPA    C63            38.4949718162      -12.2417871749        8.6803029234  LPSA23    1               0.0000000000
     24572       793  ECLIPA    H63R           38.1019947371      -13.1902747475        8.2798705976  LPSA23    1               0.0000000000
     24573       793  ECLIPA    H63S           39.4449978660      -12.4976131552        9.3252199642  LPSA23    1               0.0000000000
     24574       793  ECLIPA    C64            38.9720264521      -11.4456948343        7.5279067597  LPSA23    1               0.0000000000
     24575       793  ECLIPA    H64R           39.8447020588      -11.9320702788        6.9620099216  LPSA23    1               0.0000000000
     24576       793  ECLIPA    H64S           39.2984868345      -10.4321078221        7.9657393466  LPSA23    1               0.0000000000
     24577       793  ECLIPA    C65            37.7828841809      -11.1718231708        6.5414948800  LPSA23    1               0.0000000000
     24578       793  ECLIPA    H65R           37.0994016714      -10.6290393691        7.2423230371  LPSA23    1               0.0000000000
     24579       793  ECLIPA    H65S           37.3692787811      -12.1400712331        6.1828980290  LPSA23    1               0.0000000000
     24580       793  ECLIPA    C66            38.0998441870      -10.3307822512        5.2222643966  LPSA23    1               0.0000000000
     24581       793  ECLIPA    H66R           38.4634215443       -9.3557485800        5.5395647249  LPSA23    1               0.0000000000
     24582       793  ECLIPA    H66S           37.0501487761      -10.2490176017        4.8113963288  LPSA23    1               0.0000000000
     24583       793  ECLIPA    C67            38.9928983958      -10.9373188234        4.1696839457  LPSA23    1               0.0000000000
     24584       793  ECLIPA    H67R           39.9328646609      -11.3140020168        4.5058181646  LPSA23    1               0.0000000000
     24585       793  ECLIPA    H67S           39.1793320436      -10.1887533230        3.3478820057  LPSA23    1               0.0000000000
     24586       793  ECLIPA    C68            38.4222459351      -12.1641408390        3.5077075145  LPSA23    1               0.0000000000
     24587       793  ECLIPA    H68R           37.4252879009      -12.0911881001        3.0112508411  LPSA23    1               0.0000000000
     24588       793  ECLIPA    H68S           38.4466871214      -12.8808965507        4.3087918325  LPSA23    1               0.0000000000
     24589       793  ECLIPA    C69            39.2738990053      -12.5406450791        2.2963532923  LPSA23    1               0.0000000000
     24590       793  ECLIPA    H69R           40.3354482529      -12.2270358005        2.3203210098  LPSA23    1               0.0000000000
     24591       793  ECLIPA    H69S           38.8979836546      -11.9416121473        1.4693744207  LPSA23    1               0.0000000000
     24592       793  ECLIPA    C610           39.2156395964      -13.9810997007        1.9396251084  LPSA23    1               0.0000000000
     24593       793  ECLIPA    H610R          38.1658727347      -14.3668303852        2.0603347121  LPSA23    1               0.0000000000
     24594       793  ECLIPA    H610S          39.8171003547      -14.5870548054        2.6933643884  LPSA23    1               0.0000000000
     24595       793  ECLIPA    C611           39.8288372785      -14.3013285912        0.5312153135  LPSA23    1               0.0000000000
     24596       793  ECLIPA    H611R          40.8800284543      -13.9552927856        0.5735373188  LPSA23    1               0.0000000000
     24597       793  ECLIPA    H611S          40.0132244528      -15.3514326685        0.3609598123  LPSA23    1               0.0000000000
     24598       793  ECLIPA    C612           38.9698004869      -13.7195139528       -0.5788949292  LPSA23    1               0.0000000000
     24599       793  ECLIPA    H612R          37.9969578151      -14.2863480191       -0.6060949542  LPSA23    1               0.0000000000
     24600       793  ECLIPA    H612S          38.6838120052      -12.6942602278       -0.3132441764  LPSA23    1               0.0000000000
     24601       793  ECLIPA    H612T          39.4522250495      -13.7957044464       -1.5574606966  LPSA23    1               0.0000000000
     24602       793  ECLIPA    C54            33.3937391605      -13.3804479452       11.1776054589  LPSA23    1               0.0000000000
     24603       793  ECLIPA    H54R           32.9498657769      -12.3819232299       10.8869876633  LPSA23    1               0.0000000000
     24604       793  ECLIPA    H54S           32.7215261740      -13.7733590930       11.9574517429  LPSA23    1               0.0000000000
     24605       793  ECLIPA    C55            33.2334525430      -14.3239889188        9.9916770240  LPSA23    1               0.0000000000
     24606       793  ECLIPA    H55R           32.1868520259      -14.6437168120        9.7856946516  LPSA23    1               0.0000000000
     24607       793  ECLIPA    H55S           33.8207482713      -15.2776011522       10.2436295858  LPSA23    1               0.0000000000
     24608       793  ECLIPA    C56            33.6442267745      -13.5756999289        8.7515486822  LPSA23    1               0.0000000000
     24609       793  ECLIPA    H56R           34.7248470605      -13.2465128447        8.8382497819  LPSA23    1               0.0000000000
     24610       793  ECLIPA    H56S           33.0834806058      -12.7346895093        8.4741334449  LPSA23    1               0.0000000000
     24611       793  ECLIPA    C57            33.8158015728      -14.4307766965        7.4395707935  LPSA23    1               0.0000000000
     24612       793  ECLIPA    H57R           32.9209630847      -15.0005077394        7.1827428724  LPSA23    1               0.0000000000
     24613       793  ECLIPA    H57S           34.6113952006      -15.2015635782        7.5196553379  LPSA23    1               0.0000000000
     24614       793  ECLIPA    C58            34.2786444162      -13.5136369024        6.2350750625  LPSA23    1               0.0000000000
     24615       793  ECLIPA    H58R           33.6936929919      -12.5528000966        6.2095761879  LPSA23    1               0.0000000000
     24616       793  ECLIPA    H58S           35.2879755195      -13.1096571973        6.5224540661  LPSA23    1               0.0000000000
     24617       793  ECLIPA    C59            34.1272229492      -14.2354485378        4.8667186835  LPSA23    1               0.0000000000
     24618       793  ECLIPA    H59R           33.0900877697      -14.5544374488        4.6589989540  LPSA23    1               0.0000000000
     24619       793  ECLIPA    H59S           34.7923820639      -15.0946114265        5.0825555512  LPSA23    1               0.0000000000
     24620       793  ECLIPA    C510           34.4369380898      -13.3108788630        3.6752379292  LPSA23    1               0.0000000000
     24621       793  ECLIPA    H510R          35.3729060589      -12.6641608194        3.7937959224  LPSA23    1               0.0000000000
     24622       793  ECLIPA    H510S          33.5511841350      -12.5582992833        3.4613250382  LPSA23    1               0.0000000000
     24623       793  ECLIPA    C511           34.5859660789      -13.9960798721        2.3004848829  LPSA23    1               0.0000000000
     24624       793  ECLIPA    H511R          35.6131710737      -14.4073075398        2.2679211996  LPSA23    1               0.0000000000
     24625       793  ECLIPA    H511S          33.9062750725      -14.8908824949        2.1940961976  LPSA23    1               0.0000000000
     24626       793  ECLIPA    C512           34.4450031677      -13.0948612116        1.0189424135  LPSA23    1               0.0000000000
     24627       793  ECLIPA    H512R          34.3481917879      -13.7374470056        0.0815295424  LPSA23    1               0.0000000000
     24628       793  ECLIPA    H512S          33.5535619238      -12.4623886084        1.1129704346  LPSA23    1               0.0000000000
     24629       793  ECLIPA    C513           35.7432423517      -12.2447969593        0.6457389972  LPSA23    1               0.0000000000
     24630       793  ECLIPA    H513R          36.6464614543      -12.9152616974        0.5010832175  LPSA23    1               0.0000000000
     24631       793  ECLIPA    H513S          35.9881584049      -11.6067202873        1.4088770719  LPSA23    1               0.0000000000
     24632       793  ECLIPA    C514           35.5469836026      -11.5183450460       -0.6567184026  LPSA23    1               0.0000000000
     24633       793  ECLIPA    H514R          34.6440071477      -10.9089094192       -0.6273993866  LPSA23    1               0.0000000000
     24634       793  ECLIPA    H514S          36.3792990867      -10.8125270392       -0.7024724270  LPSA23    1               0.0000000000
     24635       793  ECLIPA    H514T          35.5009060728      -12.2509698314       -1.5427815912  LPSA23    1               0.0000000000
     24636       793  ECLIPA    C33            39.0809889546      -11.1164346216       14.4880792826  LPSA23    1               0.0000000000
     24637       793  ECLIPA    H33R           39.6280676193      -10.1970680568       14.8828993596  LPSA23    1               0.0000000000
     24638       793  ECLIPA    O33            38.1355701243      -11.4990988686       15.4699768821  LPSA23    1               0.0000000000
     24639       793  ECLIPA    HO33           38.5442010104      -11.4545063423       16.2926205744  LPSA23    1               0.0000000000
     24640       793  ECLIPA    C34            38.3012100710      -10.6635738937       13.2255459338  LPSA23    1               0.0000000000
     24641       793  ECLIPA    H34R           37.7774777313      -11.5130298066       12.8010908313  LPSA23    1               0.0000000000
     24642       793  ECLIPA    H34S           39.0353885100      -10.3755124023       12.3772221142  LPSA23    1               0.0000000000
     24643       793  ECLIPA    C35            37.2801784904       -9.5287616087       13.4256256262  LPSA23    1               0.0000000000
     24644       793  ECLIPA    H35R           37.8272796555       -8.6285937666       13.6963698038  LPSA23    1               0.0000000000
     24645       793  ECLIPA    H35S           36.6249101963       -9.7893432400       14.2668166019  LPSA23    1               0.0000000000
     24646       793  ECLIPA    C36            36.4782335202       -9.0809593832       12.1865608177  LPSA23    1               0.0000000000
     24647       793  ECLIPA    H36R           36.4104732593      -10.0956758134       11.7430812241  LPSA23    1               0.0000000000
     24648       793  ECLIPA    H36S           37.0139604454       -8.3722613560       11.4785220412  LPSA23    1               0.0000000000
     24649       793  ECLIPA    C37            35.0507391942       -8.6952185633       12.5255831563  LPSA23    1               0.0000000000
     24650       793  ECLIPA    H37R           35.1108895257       -7.5242995806       12.6765215637  LPSA23    1               0.0000000000
     24651       793  ECLIPA    H37S           34.7328459950       -9.0788466244       13.5128993321  LPSA23    1               0.0000000000
     24652       793  ECLIPA    C38            33.9822386221       -8.9726435103       11.4317274953  LPSA23    1               0.0000000000
     24653       793  ECLIPA    H38R           33.6453022878      -10.0223106536       11.4067421357  LPSA23    1               0.0000000000
     24654       793  ECLIPA    H38S           33.0700651437       -8.4210828833       11.7230999881  LPSA23    1               0.0000000000
     24655       793  ECLIPA    C39            34.5075965555       -8.6363306381       10.0213367345  LPSA23    1               0.0000000000
     24656       793  ECLIPA    H39R           35.4649676416       -9.1837279212        9.8128797222  LPSA23    1               0.0000000000
     24657       793  ECLIPA    H39S           34.5822606036       -7.5176931648        9.9697980947  LPSA23    1               0.0000000000
     24658       793  ECLIPA    C310           33.5568800545       -8.9249732018        8.8401719124  LPSA23    1               0.0000000000
     24659       793  ECLIPA    H310R          32.6697285907       -8.2223850385        9.0626900142  LPSA23    1               0.0000000000
     24660       793  ECLIPA    H310S          33.1986904616       -9.9943924154        8.8945759064  LPSA23    1               0.0000000000
     24661       793  ECLIPA    C311           34.2708406293       -8.9316683598        7.5676235846  LPSA23    1               0.0000000000
     24662       793  ECLIPA    H311R          35.0472038434       -8.1250284066        7.5507520616  LPSA23    1               0.0000000000
     24663       793  ECLIPA    H311S          34.7988472784       -9.8943306171        7.2851462164  LPSA23    1               0.0000000000
     24664       793  ECLIPA    C312           33.3623830136       -8.7761956905        6.3280121142  LPSA23    1               0.0000000000
     24665       793  ECLIPA    H312R          32.3833239976       -9.2949777568        6.4861373960  LPSA23    1               0.0000000000
     24666       793  ECLIPA    H312S          33.1760208355       -7.6825826749        6.1820758986  LPSA23    1               0.0000000000
     24667       793  ECLIPA    C313           33.9840185885       -9.2920141740        4.9895779706  LPSA23    1               0.0000000000
     24668       793  ECLIPA    H313R          34.7193091059       -8.5772543663        4.7825120466  LPSA23    1               0.0000000000
     24669       793  ECLIPA    H313S          34.4865571727      -10.2854528096        5.1572698764  LPSA23    1               0.0000000000
     24670       793  ECLIPA    C314           33.0739020116       -9.4104116273        3.8116661598  LPSA23    1               0.0000000000
     24671       793  ECLIPA    H314R          32.6041668077       -8.4100392845        3.6067793993  LPSA23    1               0.0000000000
     24672       793  ECLIPA    H314S          33.5319183327       -9.7658761985        2.8849361441  LPSA23    1               0.0000000000
     24673       793  ECLIPA    H314T          32.1985411170      -10.1127277844        4.0446347774  LPSA23    1               0.0000000000
     24674       793  ECLIPA    C11            37.5350250841      -16.7221520984       11.2900808200  LPSA23    1               0.0000000000
     24675       793  ECLIPA    O11            36.3225283296      -16.6355481283       11.1394597694  LPSA23    1               0.0000000000
     24676       793  ECLIPA    C12            38.2812370144      -17.6492928089       10.2853014675  LPSA23    1               0.0000000000
     24677       793  ECLIPA    H12R           38.0561877258      -18.7279385687       10.4852637814  LPSA23    1               0.0000000000
     24678       793  ECLIPA    H12S           39.3589294165      -17.4445349822       10.5222272274  LPSA23    1               0.0000000000
     24679       793  ECLIPA    C13            38.0286727164      -17.3631481006        8.8110583416  LPSA23    1               0.0000000000
     24680       793  ECLIPA    H13R           36.9130681967      -17.1700033389        8.5839874118  LPSA23    1               0.0000000000
     24681       793  ECLIPA    O13            38.3965323485      -18.5915807341        8.1311342176  LPSA23    1               0.0000000000
     24682       793  ECLIPA    HO13           37.9501114526      -18.6474555764        7.3064966676  LPSA23    1               0.0000000000
     24683       793  ECLIPA    C14            38.8236998253      -16.1277770690        8.4581579993  LPSA23    1               0.0000000000
     24684       793  ECLIPA    H14R           39.8539128570      -16.1075811039        8.9706443184  LPSA23    1               0.0000000000
     24685       793  ECLIPA    H14S           38.1999537652      -15.2490893934        8.7243868424  LPSA23    1               0.0000000000
     24686       793  ECLIPA    C15            39.1128853797      -15.9778650863        6.9526486677  LPSA23    1               0.0000000000
     24687       793  ECLIPA    H15R           39.5488989320      -16.8769293272        6.5500123177  LPSA23    1               0.0000000000
     24688       793  ECLIPA    H15S           39.7877856494      -15.1236376154        6.8782608049  LPSA23    1               0.0000000000
     24689       793  ECLIPA    C16            37.8045112892      -15.7255259070        6.1622847334  LPSA23    1               0.0000000000
     24690       793  ECLIPA    H16R           37.4534306884      -14.6352354894        6.2733383262  LPSA23    1               0.0000000000
     24691       793  ECLIPA    H16S           36.9856215968      -16.2135189818        6.7182496574  LPSA23    1               0.0000000000
     24692       793  ECLIPA    C17            37.9199973376      -16.0742981597        4.6801229578  LPSA23    1               0.0000000000
     24693       793  ECLIPA    H17R           38.9252663448      -15.6184495625        4.4246758429  LPSA23    1               0.0000000000
     24694       793  ECLIPA    H17S           37.1925722152      -15.6121675869        4.0046542873  LPSA23    1               0.0000000000
     24695       793  ECLIPA    C18            37.9090082880      -17.5610309877        4.4504458171  LPSA23    1               0.0000000000
     24696       793  ECLIPA    H18R           38.6881687440      -17.8872419638        5.0865821920  LPSA23    1               0.0000000000
     24697       793  ECLIPA    H18S           36.9029141472      -17.9532096195        4.7749867078  LPSA23    1               0.0000000000
     24698       793  ECLIPA    C19            38.1675366858      -17.9252669147        3.0097966450  LPSA23    1               0.0000000000
     24699       793  ECLIPA    H19R           38.2727791014      -18.9976573666        2.9245509529  LPSA23    1               0.0000000000
     24700       793  ECLIPA    H19S           39.1083394520      -17.4103635707        2.6238151240  LPSA23    1               0.0000000000
     24701       793  ECLIPA    C110           36.9679955551      -17.5520957947        2.1045801788  LPSA23    1               0.0000000000
     24702       793  ECLIPA    H110R          35.9927742125      -17.9072388468        2.4416701971  LPSA23    1               0.0000000000
     24703       793  ECLIPA    H110S          37.0327351143      -16.4430330202        2.1583327743  LPSA23    1               0.0000000000
     24704       793  ECLIPA    C111           37.2537923931      -18.0077812662        0.7563571155  LPSA23    1               0.0000000000
     24705       793  ECLIPA    H111R          38.3055777359      -17.8228174760        0.3999767799  LPSA23    1               0.0000000000
     24706       793  ECLIPA    H111S          37.1839203823      -19.0636641865        0.7977177860  LPSA23    1               0.0000000000
     24707       793  ECLIPA    C112           36.2444878209      -17.5177952082       -0.2937360943  LPSA23    1               0.0000000000
     24708       793  ECLIPA    H112R          35.3052753679      -17.8841953919        0.1973446929  LPSA23    1               0.0000000000
     24709       793  ECLIPA    H112S          36.0881838116      -16.4387832297       -0.2177998937  LPSA23    1               0.0000000000
     24710       793  ECLIPA    C113           36.6519955391      -17.8108067515       -1.7468031795  LPSA23    1               0.0000000000
     24711       793  ECLIPA    H113R          37.5574143707      -17.2042416337       -1.9802017524  LPSA23    1               0.0000000000
     24712       793  ECLIPA    H113S          37.0006177354      -18.8429962854       -1.8531093719  LPSA23    1               0.0000000000
     24713       793  ECLIPA    C114           35.6127746627      -17.7078182550       -2.8344928043  LPSA23    1               0.0000000000
     24714       793  ECLIPA    H114R          34.6528004603      -18.2142024523       -2.7829422503  LPSA23    1               0.0000000000
     24715       793  ECLIPA    H114S          35.3462015321      -16.6257798154       -2.9951089580  LPSA23    1               0.0000000000
     24716       793  ECLIPA    H114T          35.9858979352      -18.2249822979       -3.7399523103  LPSA23    1               0.0000000000
     24717       794  AKDO      C1             33.7570175385      -11.9341068899       22.4410509549  LPSA23    2               0.0000000000
     24718       794  AKDO      O11            32.5958363261      -11.4008202722       22.4913720772  LPSA23    2               0.0000000000
     24719       794  AKDO      O12            34.8644335099      -11.4454959324       22.0800765534  LPSA23    2               0.0000000000
     24720       794  AKDO      C2             33.8149041172      -13.3972113955       22.8913181237  LPSA23    2               0.0000000000
     24721       794  AKDO      C6             32.4734686807      -15.1208060138       23.8039205188  LPSA23    2               0.0000000000
     24722       794  AKDO      H6             32.6417589313      -15.7215956971       22.9487387861  LPSA23    2               0.0000000000
     24723       794  AKDO      O6             32.5686580469      -13.6885006027       23.4267274814  LPSA23    2               0.0000000000
     24724       794  AKDO      C3             34.8092422516      -13.6409128196       23.9587385105  LPSA23    2               0.0000000000
     24725       794  AKDO      H31            34.7379778215      -13.0017674644       24.7868435866  LPSA23    2               0.0000000000
     24726       794  AKDO      H32            35.8667309931      -13.5379513370       23.4151264596  LPSA23    2               0.0000000000
     24727       794  AKDO      C4             34.7660367695      -15.1059274568       24.3842593775  LPSA23    2               0.0000000000
     24728       794  AKDO      H4             34.8759423109      -15.7844131628       23.5563617270  LPSA23    2               0.0000000000
     24729       794  AKDO      O4             35.7922549350      -15.3506842083       25.3355834555  LPSA23    2               0.0000000000
     24730       794  AKDO      C5             33.4694481993      -15.5056702610       24.9292437177  LPSA23    2               0.0000000000
     24731       794  AKDO      H5             33.4026050678      -16.6226267675       25.0107888161  LPSA23    2               0.0000000000
     24732       794  AKDO      O5             33.2632022470      -14.7689966764       26.2083878813  LPSA23    2               0.0000000000
     24733       794  AKDO      C7             30.9853911416      -15.5477432162       24.1981149098  LPSA23    2               0.0000000000
     24734       794  AKDO      H7             30.7054652411      -14.9970315206       25.0939202098  LPSA23    2               0.0000000000
     24735       794  AKDO      O7             30.8584496766      -16.9864124895       24.3482682347  LPSA23    2               0.0000000000
     24736       794  AKDO      HO7            30.8383713750      -17.3256084844       23.4945166536  LPSA23    2               0.0000000000
     24737       794  AKDO      C8             30.0851111599      -15.1274521831       22.9864433882  LPSA23    2               0.0000000000
     24738       794  AKDO      H81            30.2199305658      -14.0215653622       22.9153150275  LPSA23    2               0.0000000000
     24739       794  AKDO      H82            30.4684287698      -15.7189150086       22.0745354517  LPSA23    2               0.0000000000
     24740       794  AKDO      O8             28.6745403924      -15.4299798764       23.3537996748  LPSA23    2               0.0000000000
     24741       794  AKDO      HO8            28.0949350973      -14.7525716087       22.9179804014  LPSA23    2               0.0000000000
     24742       795  AKDO      C1             37.1303579965      -16.5683876217       23.8027969005  LPSA23    3               1.0000000000
     24743       795  AKDO      O11            37.3334853749      -16.0879838204       22.6471489042  LPSA23    3               1.0000000000
     24744       795  AKDO      O12            36.9393804119      -17.7796529602       24.0656860145  LPSA23    3               1.0000000000
     24745       795  AKDO      C2             37.1352492197      -15.6500479138       25.0166033796  LPSA23    3               1.0000000000
     24746       795  AKDO      C6             37.7883796620      -13.4621395589       25.7688829792  LPSA23    3               1.0000000000
     24747       795  AKDO      H6             36.7071632867      -13.1755530764       25.9810553331  LPSA23    3               1.0000000000
     24748       795  AKDO      O6             37.8383138006      -14.3961053253       24.7076657818  LPSA23    3               1.0000000000
     24749       795  AKDO      C3             37.7355762211      -16.2442492026       26.3187707743  LPSA23    3               1.0000000000
     24750       795  AKDO      H31            38.8602400860      -16.5065539593       26.1504935106  LPSA23    3               1.0000000000
     24751       795  AKDO      H32            37.2290926391      -17.1799660195       26.5929217108  LPSA23    3               1.0000000000
     24752       795  AKDO      C4             37.6240899272      -15.2036502090       27.4036122013  LPSA23    3               1.0000000000
     24753       795  AKDO      H4             36.5888385689      -14.8490062740       27.4051754129  LPSA23    3               1.0000000000
     24754       795  AKDO      O4             37.9324825465      -15.6300722656       28.7388570077  LPSA23    3               1.0000000000
     24755       795  AKDO      HO4            37.2345011148      -15.5131677549       29.3717785514  LPSA23    3               1.0000000000
     24756       795  AKDO      C5             38.3531714126      -14.0489082839       27.0369167275  LPSA23    3               1.0000000000
     24757       795  AKDO      H5             38.3341538226      -13.3093989789       27.9236884022  LPSA23    3               1.0000000000
     24758       795  AKDO      O5             39.7453701520      -14.3655899784       26.8495261943  LPSA23    3               1.0000000000
     24759       795  AKDO      HO5            39.8370805982      -15.0204243441       26.1887877298  LPSA23    3               1.0000000000
     24760       795  AKDO      C7             38.5482617417      -12.2370471383       25.3258859863  LPSA23    3               1.0000000000
     24761       795  AKDO      H7             39.6355028752      -12.4723975364       25.1324849511  LPSA23    3               1.0000000000
     24762       795  AKDO      O7             38.4382457200      -11.2269566536       26.3661029982  LPSA23    3               1.0000000000
     24763       795  AKDO      HO7            39.0652656546      -10.5004578195       26.1647669547  LPSA23    3               1.0000000000
     24764       795  AKDO      C8             37.8460623462      -11.6891507681       24.1539635864  LPSA23    3               1.0000000000
     24765       795  AKDO      H81            37.8220215685      -12.4277647015       23.3419478721  LPSA23    3               1.0000000000
     24766       795  AKDO      H82            36.8090500713      -11.3452404625       24.2853144505  LPSA23    3               1.0000000000
     24767       795  AKDO      O8             38.5474648156      -10.5728921213       23.6541307456  LPSA23    3               1.0000000000
     24768       795  AKDO      HO8            39.2734814298      -11.0820800774       23.2473452835  LPSA23    3               1.0000000000
     24769       796  AHEP      C1             32.5913078451      -15.4119236528       27.2793229502  LPSA23    4               2.0000000000
     24770       796  AHEP      H1             31.5541646783      -15.2152098806       26.8517192453  LPSA23    4               2.0000000000
     24771       796  AHEP      C5             33.9317449467      -17.2904890415       28.0185271385  LPSA23    4               2.0000000000
     24772       796  AHEP      H5             34.7904173448      -16.6605536685       27.5619054335  LPSA23    4               2.0000000000
     24773       796  AHEP      O5             32.7365977352      -16.8294727842       27.3942805697  LPSA23    4               2.0000000000
     24774       796  AHEP      C2             32.5553906404      -14.8629266975       28.6827861277  LPSA23    4               2.0000000000
     24775       796  AHEP      H2             32.4916226663      -13.7708879393       28.7442425996  LPSA23    4               2.0000000000
     24776       796  AHEP      O2             31.4432599668      -15.3524574220       29.3407203943  LPSA23    4               2.0000000000
     24777       796  AHEP      HO2            31.0549182165      -14.6670217109       29.8507927467  LPSA23    4               2.0000000000
     24778       796  AHEP      C3             33.8008714532      -15.2894823232       29.4857672188  LPSA23    4               2.0000000000
     24779       796  AHEP      H3             34.7393879759      -14.7802477549       29.2269906369  LPSA23    4               2.0000000000
     24780       796  AHEP      O3             33.6542439186      -14.9346618417       30.7882097304  LPSA23    4               2.0000000000
     24781       796  AHEP      C4             33.9214049325      -16.7914848408       29.4546205599  LPSA23    4               2.0000000000
     24782       796  AHEP      H4             33.1088346242      -17.3540358878       29.9788637739  LPSA23    4               2.0000000000
     24783       796  AHEP      O4             35.1471923815      -17.1603042194       30.0145912217  LPSA23    4               2.0000000000
     24784       796  AHEP      P4             35.2690637804      -17.9000300197       31.4978499249  LPSA23    4               2.0000000000
     24785       796  AHEP      OP42           36.5145215859      -17.4544432344       32.1560374192  LPSA23    4               2.0000000000
     24786       796  AHEP      OP43           35.3293098518      -19.3275177985       31.0397938518  LPSA23    4               2.0000000000
     24787       796  AHEP      OP44           33.9578823590      -17.6604473386       32.3098937101  LPSA23    4               2.0000000000
     24788       796  AHEP      C6             34.1449362899      -18.8313420941       27.7982482844  LPSA23    4               2.0000000000
     24789       796  AHEP      H6             35.2221806615      -19.0328479487       28.0833143566  LPSA23    4               2.0000000000
     24790       796  AHEP      O6             33.2821976480      -19.5159438768       28.7103505027  LPSA23    4               2.0000000000
     24791       796  AHEP      HO6            33.7636961535      -20.2210626033       29.2203787365  LPSA23    4               2.0000000000
     24792       796  AHEP      C7             33.9407318352      -19.2944376080       26.3054198206  LPSA23    4               2.0000000000
     24793       796  AHEP      H71            34.2671613988      -20.3773069192       26.1576126064  LPSA23    4               2.0000000000
     24794       796  AHEP      H72            34.4275532100      -18.5604803665       25.6323487339  LPSA23    4               2.0000000000
     24795       796  AHEP      O7             32.5548696268      -19.3008115373       25.9755159574  LPSA23    4               2.0000000000
     24796       796  AHEP      HO7            32.1734967614      -20.1215394489       26.3256794122  LPSA23    4               2.0000000000
     24797       797  AHEP      C1             34.5836029696      -14.0351033030       31.4342177374  LPSA23    5               3.0000000000
     24798       797  AHEP      H1             35.6062847890      -14.1077949440       30.9794447437  LPSA23    5               3.0000000000
     24799       797  AHEP      C5             32.9003260259      -12.4195129956       31.9165413065  LPSA23    5               3.0000000000
     24800       797  AHEP      H5             32.1728931548      -13.2431256768       31.6031509785  LPSA23    5               3.0000000000
     24801       797  AHEP      O5             34.1548894095      -12.6674749006       31.3013865768  LPSA23    5               3.0000000000
     24802       797  AHEP      C2             34.7512376338      -14.2780525163       32.9718957084  LPSA23    5               3.0000000000
     24803       797  AHEP      H2             35.0237759065      -15.3758198914       33.0921707216  LPSA23    5               3.0000000000
     24804       797  AHEP      O2             35.8155900494      -13.4886586128       33.4691025827  LPSA23    5               3.0000000000
     24805       797  AHEP      HO2            36.5767667013      -14.0340838438       33.6403503244  LPSA23    5               3.0000000000
     24806       797  AHEP      C3             33.4092185639      -14.0582266344       33.7004304811  LPSA23    5               3.0000000000
     24807       797  AHEP      H3             32.6513614594      -14.7613044715       33.3375632548  LPSA23    5               3.0000000000
     24808       797  AHEP      O3             33.4305313966      -14.2257164440       35.1462238331  LPSA23    5               3.0000000000
     24809       797  AHEP      C4             33.0145857148      -12.6428872537       33.4524658705  LPSA23    5               3.0000000000
     24810       797  AHEP      H4             33.7815789367      -11.9177628231       33.8188816395  LPSA23    5               3.0000000000
     24811       797  AHEP      O4             31.7172168834      -12.4179048549       34.0881196202  LPSA23    5               3.0000000000
     24812       797  AHEP      P4             31.5670869449      -11.3707456549       35.2810123301  LPSA23    5               3.0000000000
     24813       797  AHEP      OP42           30.1692352319      -11.5625171183       35.8202965042  LPSA23    5               3.0000000000
     24814       797  AHEP      OP43           31.7467019889       -9.9829336259       34.6107506294  LPSA23    5               3.0000000000
     24815       797  AHEP      OP44           32.6944242968      -11.6421343580       36.2417033353  LPSA23    5               3.0000000000
     24816       797  AHEP      C6             32.2995856728      -11.0538707871       31.5493607386  LPSA23    5               3.0000000000
     24817       797  AHEP      H6             31.2807013740      -10.9316319566       31.9533288164  LPSA23    5               3.0000000000
     24818       797  AHEP      O6             33.1259199007      -10.0049989015       32.0428602265  LPSA23    5               3.0000000000
     24819       797  AHEP      HO6            33.9631977919       -9.8302704218       31.5367188277  LPSA23    5               3.0000000000
     24820       797  AHEP      C7             32.0376958532      -10.9924238655       30.0822725317  LPSA23    5               3.0000000000
     24821       797  AHEP      H71            31.1354970614      -10.3635533770       29.9169108581  LPSA23    5               3.0000000000
     24822       797  AHEP      H72            31.8345057218      -11.9756782227       29.6179339851  LPSA23    5               3.0000000000
     24823       797  AHEP      O7             33.1374643344      -10.2647550361       29.4957736452  LPSA23    5               3.0000000000
     24824       798  AHEP      C1             34.0373606887      -11.0674397744       28.7926622005  LPSA23    6               4.0000000000
     24825       798  AHEP      H1             33.8650016600      -12.1716214361       29.0422981953  LPSA23    6               4.0000000000
     24826       798  AHEP      C5             34.0945661798       -9.5838850589       26.9237617191  LPSA23    6               4.0000000000
     24827       798  AHEP      H5             33.4217522022       -8.9179860228       27.4818042043  LPSA23    6               4.0000000000
     24828       798  AHEP      O5             33.9040578233      -10.9407112271       27.3547530115  LPSA23    6               4.0000000000
     24829       798  AHEP      C2             35.4338779149      -10.7349243462       29.2397872647  LPSA23    6               4.0000000000
     24830       798  AHEP      H2             35.4821831042      -10.9387023087       30.3523091474  LPSA23    6               4.0000000000
     24831       798  AHEP      O2             36.3903142151      -11.6260128998       28.7267108980  LPSA23    6               4.0000000000
     24832       798  AHEP      HO2            36.6490842081      -12.1393370290       29.4669064354  LPSA23    6               4.0000000000
     24833       798  AHEP      C3             35.7195635448       -9.2637433790       28.8468391403  LPSA23    6               4.0000000000
     24834       798  AHEP      H3             35.0314638962       -8.6403148624       29.4311808254  LPSA23    6               4.0000000000
     24835       798  AHEP      O3             37.1057907987       -8.7961162398       29.2225362108  LPSA23    6               4.0000000000
     24836       798  AHEP      HO3            37.1844675479       -8.2917753520       29.9865592523  LPSA23    6               4.0000000000
     24837       798  AHEP      C4             35.5251960627       -9.1708523018       27.2761740859  LPSA23    6               4.0000000000
     24838       798  AHEP      H4             36.3279458225       -9.7111514221       26.7944950683  LPSA23    6               4.0000000000
     24839       798  AHEP      O4             35.7371087020       -7.8354123800       26.7938835778  LPSA23    6               4.0000000000
     24840       798  AHEP      HO4            34.9070333969       -7.3402097271       27.1589530594  LPSA23    6               4.0000000000
     24841       798  AHEP      C6             33.7150449025       -9.3576069883       25.4906533340  LPSA23    6               4.0000000000
     24842       798  AHEP      H6             33.8102130784       -8.2872663374       25.3442628137  LPSA23    6               4.0000000000
     24843       798  AHEP      O6             34.7164842818       -9.9154406557       24.6375675438  LPSA23    6               4.0000000000
     24844       798  AHEP      HO6            34.3306377351      -10.5209045622       23.9977784313  LPSA23    6               4.0000000000
     24845       798  AHEP      C7             32.2917219101       -9.7187386214       25.1799756221  LPSA23    6               4.0000000000
     24846       798  AHEP      H71            32.0730322823       -9.3516010597       24.1408078076  LPSA23    6               4.0000000000
     24847       798  AHEP      H72            31.6744593199       -9.1859888984       25.9252229174  LPSA23    6               4.0000000000
     24848       798  AHEP      O7             32.0212558517      -11.0874422133       25.2517430265  LPSA23    6               4.0000000000
     24849       798  AHEP      HO7            31.8426992167      -11.2465764753       26.2011285002  LPSA23    6               4.0000000000
     24850       799  AGLC      C1             33.2135583372      -15.5349813613       35.6520976122  LPSA23    7               4.0000000000
     24851       799  AGLC      H1             32.2449512328      -15.9485596515       35.2047739589  LPSA23    7               4.0000000000
     24852       799  AGLC      C5             35.4685696932      -16.0638178808       36.0987679218  LPSA23    7               4.0000000000
     24853       799  AGLC      H5             35.7923355489      -15.0473019299       35.8327124756  LPSA23    7               4.0000000000
     24854       799  AGLC      O5             34.2937014602      -16.3966910443       35.4366254460  LPSA23    7               4.0000000000
     24855       799  AGLC      C2             33.0002853565      -15.5202849806       37.1582745954  LPSA23    7               4.0000000000
     24856       799  AGLC      H2             32.9048603309      -16.6165435527       37.4887389927  LPSA23    7               4.0000000000
     24857       799  AGLC      O2             31.7019238492      -14.9988635036       37.5024056006  LPSA23    7               4.0000000000
     24858       799  AGLC      HO2            31.8366354318      -14.0644023928       37.6430208865  LPSA23    7               4.0000000000
     24859       799  AGLC      C3             34.1271426423      -15.1486614040       37.9903802326  LPSA23    7               4.0000000000
     24860       799  AGLC      H3             34.3637931242      -14.1323934586       37.6727250444  LPSA23    7               4.0000000000
     24861       799  AGLC      O3             33.8870080590      -15.0096078907       39.4204481292  LPSA23    7               4.0000000000
     24862       799  AGLC      C4             35.1942549634      -16.1263743545       37.5928595998  LPSA23    7               4.0000000000
     24863       799  AGLC      H4             34.9215590299      -17.1848509049       37.9560286200  LPSA23    7               4.0000000000
     24864       799  AGLC      O4             36.3978926940      -15.6392421548       38.2243117391  LPSA23    7               4.0000000000
     24865       799  AGLC      HO4            36.9170824691      -16.3100795456       38.6132003238  LPSA23    7               4.0000000000
     24866       799  AGLC      C6             36.6462586818      -16.8905707701       35.5245160098  LPSA23    7               4.0000000000
     24867       799  AGLC      H61            36.6172718594      -16.7522952857       34.4135318240  LPSA23    7               4.0000000000
     24868       799  AGLC      H62            37.6728098911      -16.6463832701       35.8722646349  LPSA23    7               4.0000000000
     24869       799  AGLC      O6             36.3150217937      -18.3030100748       35.6892983147  LPSA23    7               4.0000000000
     24870       799  AGLC      HO6            36.8165793769      -18.4838398274       36.4386090630  LPSA23    7               4.0000000000
     24871       800  AGLC      C1             34.0036887943      -13.7298664296       39.9328324507  LPSA23    8               5.0000000000
     24872       800  AGLC      H1             34.9460058614      -13.2691778745       39.5884769495  LPSA23    8               5.0000000000
     24873       800  AGLC      C5             31.5984920137      -13.1828763685       40.2153373402  LPSA23    8               5.0000000000
     24874       800  AGLC      H5             31.3545319883      -14.1841082333       39.8400606936  LPSA23    8               5.0000000000
     24875       800  AGLC      O5             32.8792669372      -12.8385879404       39.6195505863  LPSA23    8               5.0000000000
     24876       800  AGLC      C2             34.1071223494      -13.7592493506       41.4170311384  LPSA23    8               5.0000000000
     24877       800  AGLC      H2             34.3670921734      -12.7025724338       41.6529594578  LPSA23    8               5.0000000000
     24878       800  AGLC      O2             35.2346076583      -14.4492713084       41.9438754185  LPSA23    8               5.0000000000
     24879       800  AGLC      C3             32.8632211895      -14.1506754642       42.1297388169  LPSA23    8               5.0000000000
     24880       800  AGLC      H3             32.7132919802      -15.1693923098       41.6567950186  LPSA23    8               5.0000000000
     24881       800  AGLC      O3             33.1105405750      -14.2526251873       43.5370978028  LPSA23    8               5.0000000000
     24882       800  AGLC      C4             31.8316033215      -13.1918332372       41.7603093222  LPSA23    8               5.0000000000
     24883       800  AGLC      H4             32.1178644456      -12.1949162752       42.0401368658  LPSA23    8               5.0000000000
     24884       800  AGLC      O4             30.6101964694      -13.4965091308       42.3914819843  LPSA23    8               5.0000000000
     24885       800  AGLC      HO4            30.5006219683      -14.4157769232       42.3800652601  LPSA23    8               5.0000000000
     24886       800  AGLC      C6             30.3770564031      -12.3636244953       39.7357334439  LPSA23    8               5.0000000000
     24887       800  AGLC      H61            30.3346417063      -12.2160201471       38.6468043611  LPSA23    8               5.0000000000
     24888       800  AGLC      H62            29.4228817642      -12.7611790404       40.0276014644  LPSA23    8               5.0000000000
     24889       800  AGLC      O6             30.2857473902      -11.0904998186       40.3040784562  LPSA23    8               5.0000000000
     24890       800  AGLC      HO6            29.9250336061      -11.1124649609       41.2121845210  LPSA23    8               5.0000000000
     24891       801  AGAL      C1             36.5094646485      -14.1564720616       41.4573847493  LPSA23    9               6.0000000000
     24892       801  AGAL      H1             36.4945439542      -14.1107651387       40.3420235153  LPSA23    9               6.0000000000
     24893       801  AGAL      C5             37.3524118147      -12.8735801695       43.2125447641  LPSA23    9               6.0000000000
     24894       801  AGAL      H5             36.3968995223      -13.2622109243       43.7424973645  LPSA23    9               6.0000000000
     24895       801  AGAL      O5             37.1192578583      -12.8866053133       41.8451689838  LPSA23    9               6.0000000000
     24896       801  AGAL      C2             37.4286485854      -15.2862550057       41.8393925249  LPSA23    9               6.0000000000
     24897       801  AGAL      H2             38.4048908102      -15.1084136036       41.4115621152  LPSA23    9               6.0000000000
     24898       801  AGAL      O2             37.0915165400      -16.5108402245       41.1608705954  LPSA23    9               6.0000000000
     24899       801  AGAL      C3             37.7078207185      -15.3053316866       43.3264191845  LPSA23    9               6.0000000000
     24900       801  AGAL      H3             36.7338089404      -15.5361872766       43.9424563891  LPSA23    9               6.0000000000
     24901       801  AGAL      O3             38.4774813551      -16.3903987835       43.7491515633  LPSA23    9               6.0000000000
     24902       801  AGAL      HO3            38.2474813927      -17.1226950040       43.1585960960  LPSA23    9               6.0000000000
     24903       801  AGAL      C4             38.3057551624      -13.9953513474       43.6505755014  LPSA23    9               6.0000000000
     24904       801  AGAL      H4             38.4634711429      -13.8452361530       44.7734818408  LPSA23    9               6.0000000000
     24905       801  AGAL      O4             39.5384284724      -13.7431124945       43.0499075873  LPSA23    9               6.0000000000
     24906       801  AGAL      HO4            40.0300429359      -13.1740744664       43.6622427513  LPSA23    9               6.0000000000
     24907       801  AGAL      C6             37.5248346783      -11.4872638053       43.8349081587  LPSA23    9               6.0000000000
     24908       801  AGAL      H61            36.6620045548      -10.7989751975       43.6417203355  LPSA23    9               6.0000000000
     24909       801  AGAL      H62            37.6006617915      -11.4816541517       44.9292747136  LPSA23    9               6.0000000000
     24910       801  AGAL      O6             38.7054458940      -10.8785447881       43.4062227539  LPSA23    9               6.0000000000
     24911       801  AGAL      HO6            38.4621019354      -10.2606564219       42.6923548993  LPSA23    9               6.0000000000
     24912       802  AGAL      C1             36.9290227146      -17.8216430800       41.7517281777  LPSA23    10              7.0000000000
     24913       802  AGAL      H1             37.9625947975      -18.1818165026       41.8429972083  LPSA23    10              7.0000000000
     24914       802  AGAL      C5             34.9184811453      -17.6398530876       43.0613392294  LPSA23    10              7.0000000000
     24915       802  AGAL      H5             34.8553874277      -16.5476787276       42.6233508762  LPSA23    10              7.0000000000
     24916       802  AGAL      O5             36.3033669384      -18.0359320289       43.0470213554  LPSA23    10              7.0000000000
     24917       802  AGAL      C2             36.1526950615      -18.6638750324       40.7227968417  LPSA23    10              7.0000000000
     24918       802  AGAL      H2             36.3290374957      -19.7629746183       41.0433947026  LPSA23    10              7.0000000000
     24919       802  AGAL      O2             36.8260566187      -18.8414588568       39.5532095562  LPSA23    10              7.0000000000
     24920       802  AGAL      HO2            36.9030383890      -19.7629881346       39.3379401176  LPSA23    10              7.0000000000
     24921       802  AGAL      C3             34.7076030063      -18.3148378939       40.6928251787  LPSA23    10              7.0000000000
     24922       802  AGAL      H3             34.7127226506      -17.2502533972       40.4679648945  LPSA23    10              7.0000000000
     24923       802  AGAL      O3             33.9383228175      -19.0300886911       39.7732034444  LPSA23    10              7.0000000000
     24924       802  AGAL      HO3            33.7386203558      -18.4270604488       39.0151094934  LPSA23    10              7.0000000000
     24925       802  AGAL      C4             34.1300243576      -18.5134958063       42.0524071915  LPSA23    10              7.0000000000
     24926       802  AGAL      H4             33.0807706241      -18.1649247330       42.1099272557  LPSA23    10              7.0000000000
     24927       802  AGAL      O4             34.1453164510      -19.8389361473       42.4965010455  LPSA23    10              7.0000000000
     24928       802  AGAL      HO4            35.0608702876      -20.0412745195       42.5675127347  LPSA23    10              7.0000000000
     24929       802  AGAL      C6             34.2500658461      -17.5526323229       44.3959537205  LPSA23    10              7.0000000000
     24930       802  AGAL      H61            34.8204931294      -16.9597973267       45.1044438806  LPSA23    10              7.0000000000
     24931       802  AGAL      H62            33.2390151483      -16.9311340361       44.2564473849  LPSA23    10              7.0000000000
     24932       802  AGAL      O6             33.8875113164      -18.7526699321       45.1112340130  LPSA23    10              7.0000000000
     24933       802  AGAL      HO6            34.4242751815      -18.7889645754       45.9237589285  LPSA23    10              7.0000000000
     24934       803  BGLC      C1             32.8871688562      -13.2402613946       44.5018065681  LPSA23    11              6.0000000000
     24935       803  BGLC      H1             31.8106910283      -13.2419101369       44.5883763758  LPSA23    11              6.0000000000
     24936       803  BGLC      C5             33.2991863077      -10.8485223382       45.1248117688  LPSA23    11              6.0000000000
     24937       803  BGLC      H5             32.2027821719      -10.6424351947       45.3871201921  LPSA23    11              6.0000000000
     24938       803  BGLC      O5             33.4825479809      -11.9479533439       44.0830650888  LPSA23    11              6.0000000000
     24939       803  BGLC      C2             33.5445037861      -13.6415663099       45.7977571702  LPSA23    11              6.0000000000
     24940       803  BGLC      H2             34.6413903815      -13.8532855041       45.7293388291  LPSA23    11              6.0000000000
     24941       803  BGLC      O2             33.0023511526      -14.9215388701       46.0886391483  LPSA23    11              6.0000000000
     24942       803  BGLC      HO2            33.7054459633      -15.5123374424       46.2788110113  LPSA23    11              6.0000000000
     24943       803  BGLC      C3             33.4207634536      -12.6442088927       46.8736276645  LPSA23    11              6.0000000000
     24944       803  BGLC      H3             32.2974576166      -12.5908961967       47.1984917368  LPSA23    11              6.0000000000
     24945       803  BGLC      O3             34.1255403625      -13.1408576695       48.0056213318  LPSA23    11              6.0000000000
     24946       803  BGLC      C4             33.9555803996      -11.3705393983       46.4390836423  LPSA23    11              6.0000000000
     24947       803  BGLC      H4             35.0564347802      -11.5588678683       46.2001611147  LPSA23    11              6.0000000000
     24948       803  BGLC      O4             33.9408228682      -10.4040759779       47.4766894645  LPSA23    11              6.0000000000
     24949       803  BGLC      HO4            34.6112523143      -10.6507975231       48.1247908570  LPSA23    11              6.0000000000
     24950       803  BGLC      C6             33.7671985788       -9.5094844819       44.5291127165  LPSA23    11              6.0000000000
     24951       803  BGLC      H61            33.9902113071       -8.7329312252       45.2481190913  LPSA23    11              6.0000000000
     24952       803  BGLC      H62            34.6580338119       -9.7352930135       43.8913252379  LPSA23    11              6.0000000000
     24953       803  BGLC      O6             32.8532584324       -8.9213942548       43.5637942269  LPSA23    11              6.0000000000
     24954       803  BGLC      HO6            32.5487472124       -8.1639767900       44.0054369298  LPSA23    11              6.0000000000
     24955       804  BGLCNA    C1             33.5362337567      -13.2184972990       49.3238540420  LPSA23    12              7.0000000000
     24956       804  BGLCNA    H1             32.9829384649      -14.2155176545       49.3874222992  LPSA23    12              7.0000000000
     24957       804  BGLCNA    C5             31.9558372740      -12.3026868018       50.8763077070  LPSA23    12              7.0000000000
     24958       804  BGLCNA    H5             31.3817697784      -13.3296021255       50.9814236466  LPSA23    12              7.0000000000
     24959       804  BGLCNA    O5             32.6033742450      -12.1466599943       49.5875345322  LPSA23    12              7.0000000000
     24960       804  BGLCNA    C2             34.6415516738      -13.1499098645       50.3245054808  LPSA23    12              7.0000000000
     24961       804  BGLCNA    H2             35.0066269388      -12.0364176771       50.3375086743  LPSA23    12              7.0000000000
     24962       804  BGLCNA    N              35.6645421707      -14.1735378267       50.0347611965  LPSA23    12              7.0000000000
     24963       804  BGLCNA    HN             35.2366372212      -15.0149778305       49.9972643287  LPSA23    12              7.0000000000
     24964       804  BGLCNA    C              36.9136868748      -13.8501288057       49.8903426450  LPSA23    12              7.0000000000
     24965       804  BGLCNA    O              37.2709815571      -12.6969610312       50.0855928044  LPSA23    12              7.0000000000
     24966       804  BGLCNA    CT             37.8670202852      -14.9602987012       49.5677689528  LPSA23    12              7.0000000000
     24967       804  BGLCNA    HT1            38.5770500807      -15.1541149885       50.3918503408  LPSA23    12              7.0000000000
     24968       804  BGLCNA    HT2            38.6015035660      -14.6179721481       48.7104760971  LPSA23    12              7.0000000000
     24969       804  BGLCNA    HT3            37.2451702671      -15.8266368526       49.2316245990  LPSA23    12              7.0000000000
     24970       804  BGLCNA    C3             34.1176790902      -13.3191452792       51.6995695120  LPSA23    12              7.0000000000
     24971       804  BGLCNA    H3             33.6607442039      -14.4015703131       51.8605307917  LPSA23    12              7.0000000000
     24972       804  BGLCNA    O3             35.1460645179      -13.3130149829       52.7272334264  LPSA23    12              7.0000000000
     24973       804  BGLCNA    C4             33.1034757729      -12.2511690185       51.9591692987  LPSA23    12              7.0000000000
     24974       804  BGLCNA    H4             33.5187971869      -11.1746357328       51.9037868612  LPSA23    12              7.0000000000
     24975       804  BGLCNA    O4             32.5517695438      -12.3549193633       53.2294962294  LPSA23    12              7.0000000000
     24976       804  BGLCNA    HO4            31.8888440070      -13.1038698157       53.2834945119  LPSA23    12              7.0000000000
     24977       804  BGLCNA    C6             30.8548319592      -11.2255264723       50.9528560558  LPSA23    12              7.0000000000
     24978       804  BGLCNA    H61            30.3959309328      -11.2289978777       51.9144325068  LPSA23    12              7.0000000000
     24979       804  BGLCNA    H62            31.4081961710      -10.3012063786       50.8287962869  LPSA23    12              7.0000000000
     24980       804  BGLCNA    O6             29.9790088171      -11.3395717727       49.8597561973  LPSA23    12              7.0000000000
     24981       804  BGLCNA    HO6            29.3128129967      -11.9266185250       50.1903398796  LPSA23    12              7.0000000000
     24982       805  AGAL      C1             34.9814787871      -14.2810656192       53.8132743488  LPSA23    13              8.0000000000
     24983       805  AGAL      H1             33.9379641633      -14.2259639406       54.1959401301  LPSA23    13              8.0000000000
     24984       805  AGAL      C5             36.9216334730      -15.6138832604       53.2950732168  LPSA23    13              8.0000000000
     24985       805  AGAL      H5             37.1247695737      -14.8342429733       52.5641412600  LPSA23    13              8.0000000000
     24986       805  AGAL      O5             35.4987903601      -15.6213362155       53.4918445955  LPSA23    13              8.0000000000
     24987       805  AGAL      C2             35.7722714216      -13.9201042978       55.1010141246  LPSA23    13              8.0000000000
     24988       805  AGAL      H2             35.7301210904      -14.7860879252       55.7917211299  LPSA23    13              8.0000000000
     24989       805  AGAL      O2             35.2343715370      -12.7987220245       55.7701983428  LPSA23    13              8.0000000000
     24990       805  AGAL      C3             37.3067350577      -13.9257713986       54.8979691660  LPSA23    13              8.0000000000
     24991       805  AGAL      H3             37.5396282040      -13.2926005620       54.0477453328  LPSA23    13              8.0000000000
     24992       805  AGAL      O3             38.0128856676      -13.3155962106       55.9888739531  LPSA23    13              8.0000000000
     24993       805  AGAL      HO3            38.7438405781      -12.7872579724       55.6848713412  LPSA23    13              8.0000000000
     24994       805  AGAL      C4             37.7519458986      -15.2292721214       54.5514025965  LPSA23    13              8.0000000000
     24995       805  AGAL      H4             38.8516773629      -15.2131056735       54.1954731349  LPSA23    13              8.0000000000
     24996       805  AGAL      O4             37.5761854797      -16.1850400280       55.5743212917  LPSA23    13              8.0000000000
     24997       805  AGAL      HO4            36.7324911706      -16.1696595737       56.0499681296  LPSA23    13              8.0000000000
     24998       805  AGAL      C6             37.4804817360      -16.7976216241       52.5301443486  LPSA23    13              8.0000000000
     24999       805  AGAL      H61            36.8804724442      -16.9677803198       51.6253596531  LPSA23    13              8.0000000000
     25000       805  AGAL      H62            38.5731286918      -16.6218184655       52.3684678279  LPSA23    13              8.0000000000
     25001       805  AGAL      O6             37.4133857588      -17.9812635855       53.2985910507  LPSA23    13              8.0000000000
     25002       805  AGAL      HO6            38.1496900837      -17.9806134375       53.9299633642  LPSA23    13              8.0000000000
     25003       806  ARHM      C1             34.6066162621      -12.9515405246       57.0117786358  LPSA23    14              9.0000000000
     25004       806  ARHM      H1             34.2082221181      -13.9872527621       56.9981767125  LPSA23    14              9.0000000000
     25005       806  ARHM      C5             33.9101674593      -10.7376542542       57.1930138837  LPSA23    14              9.0000000000
     25006       806  ARHM      H5             34.4598233474      -10.5408393501       56.1976867078  LPSA23    14              9.0000000000
     25007       806  ARHM      O5             33.5157611951      -12.0586255998       57.1718909996  LPSA23    14              9.0000000000
     25008       806  ARHM      C2             35.6381263604      -12.7378912824       58.1413490634  LPSA23    14              9.0000000000
     25009       806  ARHM      H2             36.4470876665      -13.4111994265       57.8875987320  LPSA23    14              9.0000000000
     25010       806  ARHM      O2             35.1627056425      -12.9656851785       59.4330148990  LPSA23    14              9.0000000000
     25011       806  ARHM      C3             36.1095542554      -11.3128401532       58.1095432995  LPSA23    14              9.0000000000
     25012       806  ARHM      H3             36.3955621636      -11.0690989551       57.0440121713  LPSA23    14              9.0000000000
     25013       806  ARHM      O3             37.2588114027      -11.0574320901       58.8567888868  LPSA23    14              9.0000000000
     25014       806  ARHM      HO3            36.9545608002      -11.0695098124       59.8104957846  LPSA23    14              9.0000000000
     25015       806  ARHM      C4             34.9160032597      -10.4610723661       58.3490442956  LPSA23    14              9.0000000000
     25016       806  ARHM      H4             34.3480152123      -10.6491736817       59.2902338481  LPSA23    14              9.0000000000
     25017       806  ARHM      O4             35.3355520371       -9.0719842463       58.4446785014  LPSA23    14              9.0000000000
     25018       806  ARHM      HO4            35.2372270730       -8.6507475031       59.2969967688  LPSA23    14              9.0000000000
     25019       806  ARHM      C6             32.6742366716       -9.8238863530       57.2492155848  LPSA23    14              9.0000000000
     25020       806  ARHM      H61            31.8265775373      -10.1207470573       56.5358243550  LPSA23    14              9.0000000000
     25021       806  ARHM      H62            32.3762770108       -9.7946678175       58.3170764683  LPSA23    14              9.0000000000
     25022       806  ARHM      H63            32.7611225793       -8.7789202420       56.9421594120  LPSA23    14              9.0000000000
     25023       807  ARHM      C1             34.5246762427      -14.1075489536       59.7267990175  LPSA23    15             10.0000000000
     25024       807  ARHM      H1             34.8337552138      -14.9297805580       59.0458905905  LPSA23    15             10.0000000000
     25025       807  ARHM      C5             32.4392454051      -13.1217279123       60.6468530148  LPSA23    15             10.0000000000
     25026       807  ARHM      H5             32.6968371182      -12.0343785109       60.4457705401  LPSA23    15             10.0000000000
     25027       807  ARHM      O5             33.0802478269      -13.9985391944       59.6688136410  LPSA23    15             10.0000000000
     25028       807  ARHM      C2             34.8955629800      -14.5497149873       61.1407671534  LPSA23    15             10.0000000000
     25029       807  ARHM      H2             36.0488176963      -14.5228385706       61.2133420761  LPSA23    15             10.0000000000
     25030       807  ARHM      O2             34.3608837457      -15.8941957632       61.3234079317  LPSA23    15             10.0000000000
     25031       807  ARHM      C3             34.3281829652      -13.5687491675       62.1677656617  LPSA23    15             10.0000000000
     25032       807  ARHM      H3             34.6907156213      -12.5477566558       61.8628392879  LPSA23    15             10.0000000000
     25033       807  ARHM      O3             35.0200607683      -13.8693694596       63.4092175029  LPSA23    15             10.0000000000
     25034       807  ARHM      C4             32.8808373416      -13.5667679774       62.0487117432  LPSA23    15             10.0000000000
     25035       807  ARHM      H4             32.5075625324      -14.6636144482       62.1496903561  LPSA23    15             10.0000000000
     25036       807  ARHM      O4             32.1349188732      -12.7593590209       62.9635513464  LPSA23    15             10.0000000000
     25037       807  ARHM      HO4            31.2391734834      -13.0615158591       62.9565205260  LPSA23    15             10.0000000000
     25038       807  ARHM      C6             30.9417975926      -13.1632616433       60.4460959132  LPSA23    15             10.0000000000
     25039       807  ARHM      H61            30.3638903809      -12.4537023089       61.0956562646  LPSA23    15             10.0000000000
     25040       807  ARHM      H62            30.7147009386      -13.1193370895       59.3910198679  LPSA23    15             10.0000000000
     25041       807  ARHM      H63            30.4840745732      -14.1063686188       60.8578185328  LPSA23    15             10.0000000000
     25042       808  BMANNA    C1             34.6456169691      -16.6106117213       62.5145562334  LPSA23    16             11.0000000000
     25043       808  BMANNA    H1             34.0173340855      -16.1122082536       63.3432051365  LPSA23    16             11.0000000000
     25044       808  BMANNA    C5             36.1606392999      -17.2763007639       64.1851548173  LPSA23    16             11.0000000000
     25045       808  BMANNA    H5             35.5367604323      -16.8470941873       64.9800677769  LPSA23    16             11.0000000000
     25046       808  BMANNA    O5             36.0103664235      -16.5878358663       62.9158851071  LPSA23    16             11.0000000000
     25047       808  BMANNA    C2             34.1650028635      -18.0614848945       62.2781089586  LPSA23    16             11.0000000000
     25048       808  BMANNA    H2             33.0861579875      -17.9528310609       61.9912908466  LPSA23    16             11.0000000000
     25049       808  BMANNA    N              34.8156792413      -18.8481496324       61.2264456342  LPSA23    16             11.0000000000
     25050       808  BMANNA    HN             35.5905355625      -19.3266832988       61.5688724990  LPSA23    16             11.0000000000
     25051       808  BMANNA    C              34.4448770168      -18.8784162262       59.9704010620  LPSA23    16             11.0000000000
     25052       808  BMANNA    O              33.4171720832      -18.2738950820       59.5582221915  LPSA23    16             11.0000000000
     25053       808  BMANNA    CT             35.3171426084      -19.6855256787       59.1331689300  LPSA23    16             11.0000000000
     25054       808  BMANNA    HT1            34.9281025635      -20.6463189130       58.8344492748  LPSA23    16             11.0000000000
     25055       808  BMANNA    HT2            36.3244315734      -19.8719117987       59.5043001239  LPSA23    16             11.0000000000
     25056       808  BMANNA    HT3            35.4854196743      -19.1894842284       58.1231520073  LPSA23    16             11.0000000000
     25057       808  BMANNA    C3             34.2880023622      -18.7546089863       63.6119771117  LPSA23    16             11.0000000000
     25058       808  BMANNA    H3             33.6761322109      -18.2189160890       64.3839812837  LPSA23    16             11.0000000000
     25059       808  BMANNA    O3             33.7891546987      -20.0611853452       63.6122488842  LPSA23    16             11.0000000000
     25060       808  BMANNA    HO3            33.1411720979      -20.1741003305       64.2950500102  LPSA23    16             11.0000000000
     25061       808  BMANNA    C4             35.7407811682      -18.7567483396       64.1045846713  LPSA23    16             11.0000000000
     25062       808  BMANNA    H4             36.4133545149      -19.2983974980       63.4124605202  LPSA23    16             11.0000000000
     25063       808  BMANNA    O4             35.9997161112      -19.3678117372       65.3816866120  LPSA23    16             11.0000000000
     25064       808  BMANNA    HO4            36.9107392994      -19.6531445232       65.4353184152  LPSA23    16             11.0000000000
     25065       808  BMANNA    C6             37.5859118669      -17.1705231626       64.7427751243  LPSA23    16             11.0000000000
     25066       808  BMANNA    H61            37.5018660073      -17.1990647380       65.8875394407  LPSA23    16             11.0000000000
     25067       808  BMANNA    H62            38.1962460940      -18.0236584088       64.4389269682  LPSA23    16             11.0000000000
     25068       808  BMANNA    O6             38.2807430241      -15.9650028704       64.3660927576  LPSA23    16             11.0000000000
     25069       808  BMANNA    HO6            39.0680038810      -16.3286146650       63.9036969990  LPSA23    16             11.0000000000
     25070       809  BGLCNA    C1             35.3352955613      -12.8046740335       64.1715778089  LPSA23    17             11.0000000000
     25071       809  BGLCNA    H1             34.6000046589      -11.9412365015       63.9082176002  LPSA23    17             11.0000000000
     25072       809  BGLCNA    C5             37.0423185153      -11.0989125646       64.5563394407  LPSA23    17             11.0000000000
     25073       809  BGLCNA    H5             36.3514487622      -10.2161848941       64.2825289487  LPSA23    17             11.0000000000
     25074       809  BGLCNA    O5             36.6181996547      -12.2329771055       63.7849982893  LPSA23    17             11.0000000000
     25075       809  BGLCNA    C2             35.3275981598      -13.2435595978       65.5899343931  LPSA23    17             11.0000000000
     25076       809  BGLCNA    H2             36.0774713187      -14.0723631600       65.8249043900  LPSA23    17             11.0000000000
     25077       809  BGLCNA    N              34.1092805617      -13.8825908900       65.8849826081  LPSA23    17             11.0000000000
     25078       809  BGLCNA    HN             33.2664843762      -13.5591082854       65.4150135415  LPSA23    17             11.0000000000
     25079       809  BGLCNA    C              33.8239164956      -14.7874481133       66.8043620798  LPSA23    17             11.0000000000
     25080       809  BGLCNA    O              34.6964198741      -15.3286996523       67.4729873017  LPSA23    17             11.0000000000
     25081       809  BGLCNA    CT             32.3892187184      -15.1158644042       66.9728872304  LPSA23    17             11.0000000000
     25082       809  BGLCNA    HT1            31.9854096524      -16.0548575659       66.5529393721  LPSA23    17             11.0000000000
     25083       809  BGLCNA    HT2            31.8088236125      -14.2120619978       66.7043805047  LPSA23    17             11.0000000000
     25084       809  BGLCNA    HT3            32.1312901578      -15.2078076409       68.1408097225  LPSA23    17             11.0000000000
     25085       809  BGLCNA    C3             35.6579382183      -12.0150269118       66.4076579941  LPSA23    17             11.0000000000
     25086       809  BGLCNA    H3             34.8623557468      -11.2816592853       66.0441361901  LPSA23    17             11.0000000000
     25087       809  BGLCNA    O3             35.3932059263      -12.3396338929       67.8205355914  LPSA23    17             11.0000000000
     25088       809  BGLCNA    C4             37.0627314984      -11.5503877845       66.0496966154  LPSA23    17             11.0000000000
     25089       809  BGLCNA    H4             37.8185496610      -12.4096086372       66.1123142204  LPSA23    17             11.0000000000
     25090       809  BGLCNA    O4             37.5358836492      -10.5413469594       66.9186044206  LPSA23    17             11.0000000000
     25091       809  BGLCNA    HO4            38.3951709134      -10.1889266634       66.7204061560  LPSA23    17             11.0000000000
     25092       809  BGLCNA    C6             38.4592406453      -10.6774702109       64.1200051697  LPSA23    17             11.0000000000
     25093       809  BGLCNA    H61            38.5432159859       -9.6081839418       64.1272946536  LPSA23    17             11.0000000000
     25094       809  BGLCNA    H62            39.2468174320      -11.0933775633       64.8212395067  LPSA23    17             11.0000000000
     25095       809  BGLCNA    O6             38.7780102747      -11.1173535009       62.7926115083  LPSA23    17             11.0000000000
     25096       809  BGLCNA    HO6            38.1460698112      -10.7486644834       62.1856770532  LPSA23    17             11.0000000000
     25097       810  AGAL      C1             34.8606763441      -11.2528070018       68.6198653987  LPSA23    18             12.0000000000
     25098       810  AGAL      H1             35.7100917928      -10.5314321867       68.8082567594  LPSA23    18             12.0000000000
     25099       810  AGAL      C5             32.5862962032      -11.4041708606       67.8636918791  LPSA23    18             12.0000000000
     25100       810  AGAL      H5             32.8758075442      -12.3547522509       67.4068928888  LPSA23    18             12.0000000000
     25101       810  AGAL      O5             33.7988842456      -10.5760319241       67.9834320655  LPSA23    18             12.0000000000
     25102       810  AGAL      C2             34.2928337272      -11.7596785362       70.0000206359  LPSA23    18             12.0000000000
     25103       810  AGAL      H2             33.9294513788      -10.7814525884       70.3908489884  LPSA23    18             12.0000000000
     25104       810  AGAL      O2             35.3299417130      -12.1567825704       70.8342757016  LPSA23    18             12.0000000000
     25105       810  AGAL      C3             33.0906453998      -12.6284074874       69.8682924558  LPSA23    18             12.0000000000
     25106       810  AGAL      H3             33.3311490337      -13.4667653543       69.0958348126  LPSA23    18             12.0000000000
     25107       810  AGAL      O3             32.7216734286      -13.2233032290       71.0758896640  LPSA23    18             12.0000000000
     25108       810  AGAL      HO3            32.5379834487      -14.1581858527       70.9682873819  LPSA23    18             12.0000000000
     25109       810  AGAL      C4             32.0338704543      -11.8788259673       69.1634745928  LPSA23    18             12.0000000000
     25110       810  AGAL      H4             31.1164923074      -12.4576984092       68.9039691178  LPSA23    18             12.0000000000
     25111       810  AGAL      O4             31.5699134989      -10.7670334252       69.9734134928  LPSA23    18             12.0000000000
     25112       810  AGAL      HO4            30.9810976566      -11.1275171213       70.7236544006  LPSA23    18             12.0000000000
     25113       810  AGAL      C6             31.7612157972      -10.8216618084       66.8042742825  LPSA23    18             12.0000000000
     25114       810  AGAL      H61            32.3515412483      -10.8676627584       65.8877991861  LPSA23    18             12.0000000000
     25115       810  AGAL      H62            30.8973157377      -11.5237024938       66.6499463921  LPSA23    18             12.0000000000
     25116       810  AGAL      O6             31.3805691213       -9.5542083213       66.9803033045  LPSA23    18             12.0000000000
     25117       810  AGAL      HO6            31.8053467277       -9.0555575323       67.6707071977  LPSA23    18             12.0000000000
     25118       811  ARHM      C1             35.0973575079      -11.6687351729       72.1803514454  LPSA23    19             13.0000000000
     25119       811  ARHM      H1             34.0631193353      -11.4250662352       72.3185909119  LPSA23    19             13.0000000000
     25120       811  ARHM      C5             37.0959694276      -10.3944610184       72.2512180912  LPSA23    19             13.0000000000
     25121       811  ARHM      H5             37.2938509108      -10.7675482218       71.2133247196  LPSA23    19             13.0000000000
     25122       811  ARHM      O5             35.6770069214      -10.3776957885       72.4162684983  LPSA23    19             13.0000000000
     25123       811  ARHM      C2             35.6337662059      -12.6934165224       73.1100514097  LPSA23    19             13.0000000000
     25124       811  ARHM      H2             35.3087344113      -13.6878337406       72.9420985559  LPSA23    19             13.0000000000
     25125       811  ARHM      O2             35.3059893090      -12.3553097452       74.4131644751  LPSA23    19             13.0000000000
     25126       811  ARHM      C3             37.1889579422      -12.6832121435       72.9859276785  LPSA23    19             13.0000000000
     25127       811  ARHM      H3             37.4251608602      -12.8992865804       71.9471750908  LPSA23    19             13.0000000000
     25128       811  ARHM      O3             37.7597264459      -13.6719771779       73.7644258584  LPSA23    19             13.0000000000
     25129       811  ARHM      HO3            37.3813785190      -13.5842938923       74.6464134549  LPSA23    19             13.0000000000
     25130       811  ARHM      C4             37.7792390482      -11.3615721213       73.2443334127  LPSA23    19             13.0000000000
     25131       811  ARHM      H4             37.4905077685      -11.1004519133       74.2703943704  LPSA23    19             13.0000000000
     25132       811  ARHM      O4             39.1688709633      -11.3027425602       73.1708570575  LPSA23    19             13.0000000000
     25133       811  ARHM      HO4            39.3961562995      -11.4925434469       72.2126258713  LPSA23    19             13.0000000000
     25134       811  ARHM      C6             37.6826946899       -8.9723102490       72.3031700958  LPSA23    19             13.0000000000
     25135       811  ARHM      H61            37.1184449116       -8.4936260787       71.5186681997  LPSA23    19             13.0000000000
     25136       811  ARHM      H62            37.5339043860       -8.4155200304       73.2001761489  LPSA23    19             13.0000000000
     25137       811  ARHM      H63            38.7542414197       -8.9351372429       72.0875448643  LPSA23    19             13.0000000000
     25138       812  ARHM      C1             33.9733601789      -12.6269641182       74.6981797177  LPSA23    20             14.0000000000
     25139       812  ARHM      H1             33.4705801280      -13.2567616139       73.8936196974  LPSA23    20             14.0000000000
     25140       812  ARHM      C5             33.4439574635      -10.6830512009       75.9960310464  LPSA23    20             14.0000000000
     25141       812  ARHM      H5             34.5137023589      -10.4103338378       75.8071112250  LPSA23    20             14.0000000000
     25142       812  ARHM      O5             33.1043643051      -11.5071959597       74.8741575474  LPSA23    20             14.0000000000
     25143       812  ARHM      C2             33.8859981512      -13.5055724635       75.9438944127  LPSA23    20             14.0000000000
     25144       812  ARHM      H2             34.6617377501      -14.3660405006       75.7904987900  LPSA23    20             14.0000000000
     25145       812  ARHM      O2             32.5600998474      -14.0148634200       76.2145535291  LPSA23    20             14.0000000000
     25146       812  ARHM      C3             34.2444010866      -12.6408733865       77.0746584307  LPSA23    20             14.0000000000
     25147       812  ARHM      H3             35.3240140267      -12.2541427595       76.9570890266  LPSA23    20             14.0000000000
     25148       812  ARHM      O3             34.2586617574      -13.4986397550       78.2431898216  LPSA23    20             14.0000000000
     25149       812  ARHM      C4             33.3364644637      -11.4652294025       77.2147849866  LPSA23    20             14.0000000000
     25150       812  ARHM      H4             32.3041948705      -11.7393969775       77.2882629629  LPSA23    20             14.0000000000
     25151       812  ARHM      O4             33.6734276392      -10.7555354492       78.4294019453  LPSA23    20             14.0000000000
     25152       812  ARHM      HO4            33.4217007487       -9.9263945737       78.0714846557  LPSA23    20             14.0000000000
     25153       812  ARHM      C6             32.6336172703       -9.4547173634       75.9818768401  LPSA23    20             14.0000000000
     25154       812  ARHM      H61            31.5069940920       -9.5309155921       76.0487105533  LPSA23    20             14.0000000000
     25155       812  ARHM      H62            32.9877769980       -8.7640079034       76.7492574554  LPSA23    20             14.0000000000
     25156       812  ARHM      H63            32.7113428789       -8.8511748710       75.0059134709  LPSA23    20             14.0000000000
     25157       813  BMANNA    C1             32.4265191380      -15.1577657344       75.4501725836  LPSA23    21             15.0000000000
     25158       813  BMANNA    H1             33.2676366608      -15.2436404478       74.6495731600  LPSA23    21             15.0000000000
     25159       813  BMANNA    C5             31.2691374409      -16.2105688512       73.6578092950  LPSA23    21             15.0000000000
     25160       813  BMANNA    H5             32.2512747156      -16.4010067545       73.0422409194  LPSA23    21             15.0000000000
     25161       813  BMANNA    O5             31.2749768285      -15.0405802237       74.5460975074  LPSA23    21             15.0000000000
     25162       813  BMANNA    C2             32.3042781621      -16.3617955652       76.3268603500  LPSA23    21             15.0000000000
     25163       813  BMANNA    H2             33.2524846669      -16.3267125819       76.8663433126  LPSA23    21             15.0000000000
     25164       813  BMANNA    N              31.1865576351      -16.2499312792       77.2602735953  LPSA23    21             15.0000000000
     25165       813  BMANNA    HN             30.3250260591      -16.0412114784       76.8630196157  LPSA23    21             15.0000000000
     25166       813  BMANNA    C              31.1971331955      -16.6828679496       78.6142451918  LPSA23    21             15.0000000000
     25167       813  BMANNA    O              32.1289682345      -17.3695622383       79.0340579138  LPSA23    21             15.0000000000
     25168       813  BMANNA    CT             29.9929983682      -16.3223832217       79.5125915666  LPSA23    21             15.0000000000
     25169       813  BMANNA    HT1            29.1726400014      -17.0479170327       79.3040814335  LPSA23    21             15.0000000000
     25170       813  BMANNA    HT2            29.7668201770      -15.2599318841       79.3224353366  LPSA23    21             15.0000000000
     25171       813  BMANNA    HT3            30.2736011055      -16.4328713198       80.6000991146  LPSA23    21             15.0000000000
     25172       813  BMANNA    C3             32.2702441669      -17.5584440081       75.4428482744  LPSA23    21             15.0000000000
     25173       813  BMANNA    H3             33.2592908969      -17.5108156599       75.0091666053  LPSA23    21             15.0000000000
     25174       813  BMANNA    O3             32.1841030566      -18.7702941144       76.1769203835  LPSA23    21             15.0000000000
     25175       813  BMANNA    HO3            31.4323693035      -18.7070857380       76.7354970047  LPSA23    21             15.0000000000
     25176       813  BMANNA    C4             31.1086352344      -17.4705038713       74.4866217523  LPSA23    21             15.0000000000
     25177       813  BMANNA    H4             30.0286983175      -17.5183538934       75.0002820064  LPSA23    21             15.0000000000
     25178       813  BMANNA    O4             31.0520850075      -18.5633650119       73.6152290754  LPSA23    21             15.0000000000
     25179       813  BMANNA    HO4            30.2419727188      -19.0977130665       73.7703874424  LPSA23    21             15.0000000000
     25180       813  BMANNA    C6             30.2614956600      -16.1011483814       72.6348027846  LPSA23    21             15.0000000000
     25181       813  BMANNA    H61            30.3413474595      -16.8812689110       71.8494922130  LPSA23    21             15.0000000000
     25182       813  BMANNA    H62            29.2660361940      -16.4094608531       73.0558617198  LPSA23    21             15.0000000000
     25183       813  BMANNA    O6             30.0513183578      -14.8443327123       72.0654385618  LPSA23    21             15.0000000000
     25184       813  BMANNA    HO6            29.8942309771      -14.2263437308       72.7784055652  LPSA23    21             15.0000000000
     25185       814  BGLCNA    C1             35.2173538261      -13.3198183363       79.2248726046  LPSA23    22             15.0000000000
     25186       814  BGLCNA    H1             35.6412064982      -12.2742347918       79.2753119810  LPSA23    22             15.0000000000
     25187       814  BGLCNA    C5             37.3688695476      -13.9294472349       80.1145289529  LPSA23    22             15.0000000000
     25188       814  BGLCNA    H5             37.6271363255      -12.7882104344       80.0727605020  LPSA23    22             15.0000000000
     25189       814  BGLCNA    O5             36.3445031220      -14.1338055598       79.0803056561  LPSA23    22             15.0000000000
     25190       814  BGLCNA    C2             34.5825075039      -13.6102131024       80.5602818744  LPSA23    22             15.0000000000
     25191       814  BGLCNA    H2             34.2986714157      -14.7175578790       80.4633107900  LPSA23    22             15.0000000000
     25192       814  BGLCNA    N              33.4110248138      -12.7720035201       80.7025670875  LPSA23    22             15.0000000000
     25193       814  BGLCNA    HN             33.5216629458      -11.8347406776       80.4501896382  LPSA23    22             15.0000000000
     25194       814  BGLCNA    C              32.3075846254      -13.1243515351       81.3295640408  LPSA23    22             15.0000000000
     25195       814  BGLCNA    O              32.1904514001      -14.2512935854       81.8448112003  LPSA23    22             15.0000000000
     25196       814  BGLCNA    CT             31.2220650061      -12.1136025723       81.4359073222  LPSA23    22             15.0000000000
     25197       814  BGLCNA    HT1            30.6501575537      -12.3049222337       80.5353412834  LPSA23    22             15.0000000000
     25198       814  BGLCNA    HT2            31.6844164225      -11.1127771540       81.2752873926  LPSA23    22             15.0000000000
     25199       814  BGLCNA    HT3            30.6982761531      -12.0792036569       82.3679651303  LPSA23    22             15.0000000000
     25200       814  BGLCNA    C3             35.5762318167      -13.4334871908       81.6855161512  LPSA23    22             15.0000000000
     25201       814  BGLCNA    H3             35.9624884306      -12.3842048588       81.6419517197  LPSA23    22             15.0000000000
     25202       814  BGLCNA    O3             34.8352083054      -13.6031100008       82.8729300216  LPSA23    22             15.0000000000
     25203       814  BGLCNA    C4             36.7973057970      -14.3332155907       81.4704242134  LPSA23    22             15.0000000000
     25204       814  BGLCNA    H4             36.4187374441      -15.3198020137       81.4144045074  LPSA23    22             15.0000000000
     25205       814  BGLCNA    O4             37.7415582563      -14.2392156757       82.5140850489  LPSA23    22             15.0000000000
     25206       814  BGLCNA    HO4            38.0795952333      -15.1293824945       82.7130071916  LPSA23    22             15.0000000000
     25207       814  BGLCNA    C6             38.5643728327      -14.7890023259       79.7284495560  LPSA23    22             15.0000000000
     25208       814  BGLCNA    H61            39.1472764856      -14.8752884375       80.6924177192  LPSA23    22             15.0000000000
     25209       814  BGLCNA    H62            38.2531093260      -15.8220488636       79.4648784538  LPSA23    22             15.0000000000
     25210       814  BGLCNA    O6             39.4260096340      -14.2063923034       78.8100863794  LPSA23    22             15.0000000000
     25211       814  BGLCNA    HO6            38.9339725840      -13.9962685744       78.0328486455  LPSA23    22             15.0000000000
     25212       815  AGAL      C1             35.3216633925      -13.0975402612       84.0628261254  LPSA23    23             16.0000000000
     25213       815  AGAL      H1             36.1369484018      -13.7306100054       84.5106287163  LPSA23    23             16.0000000000
     25214       815  AGAL      C5             34.7869043910      -10.7971218386       83.7583018441  LPSA23    23             16.0000000000
     25215       815  AGAL      H5             34.1794717272      -11.1299280927       82.8366412438  LPSA23    23             16.0000000000
     25216       815  AGAL      O5             35.7979019634      -11.7494381665       83.9976212264  LPSA23    23             16.0000000000
     25217       815  AGAL      C2             34.2575372585      -13.1588368716       85.1427633740  LPSA23    23             16.0000000000
     25218       815  AGAL      H2             34.7368328861      -12.7605263021       86.0076373284  LPSA23    23             16.0000000000
     25219       815  AGAL      O2             33.8760151291      -14.4656894380       85.5000844886  LPSA23    23             16.0000000000
     25220       815  AGAL      C3             33.1395218668      -12.2000734955       84.9194901020  LPSA23    23             16.0000000000
     25221       815  AGAL      H3             32.7799219212      -12.4032897428       83.8641570193  LPSA23    23             16.0000000000
     25222       815  AGAL      O3             32.0214353782      -12.3670299809       85.7108298168  LPSA23    23             16.0000000000
     25223       815  AGAL      HO3            32.3814074196      -12.4709072951       86.6206525111  LPSA23    23             16.0000000000
     25224       815  AGAL      C4             33.7258612779      -10.8203275109       84.8901212015  LPSA23    23             16.0000000000
     25225       815  AGAL      H4             32.9709768941      -10.0373535085       84.6506069022  LPSA23    23             16.0000000000
     25226       815  AGAL      O4             34.2621450012      -10.3395310587       86.1132943683  LPSA23    23             16.0000000000
     25227       815  AGAL      HO4            34.9599163562       -9.8415154080       85.8278371007  LPSA23    23             16.0000000000
     25228       815  AGAL      C6             35.3740840851       -9.4795911944       83.3278962909  LPSA23    23             16.0000000000
     25229       815  AGAL      H61            36.1315934900       -9.6447605428       82.6074235255  LPSA23    23             16.0000000000
     25230       815  AGAL      H62            34.6658927233       -8.8673589818       82.7620574208  LPSA23    23             16.0000000000
     25231       815  AGAL      O6             35.9783395855       -8.8405706576       84.3845202183  LPSA23    23             16.0000000000
     25232       815  AGAL      HO6            36.4057089180       -8.0236084786       84.1740981585  LPSA23    23             16.0000000000
     25233       816  ARHM      C1             34.6591384009      -15.3489315086       86.2818185944  LPSA23    24             17.0000000000
     25234       816  ARHM      H1             35.6389479795      -14.9203304649       86.3680542693  LPSA23    24             17.0000000000
     25235       816  ARHM      C5             33.6500373612      -17.4239574836       85.6157638072  LPSA23    24             17.0000000000
     25236       816  ARHM      H5             32.9754809986      -16.8599818917       85.0070975499  LPSA23    24             17.0000000000
     25237       816  ARHM      O5             34.8786195526      -16.7476860896       85.8657410059  LPSA23    24             17.0000000000
     25238       816  ARHM      C2             33.9445497368      -15.3375584849       87.5921581840  LPSA23    24             17.0000000000
     25239       816  ARHM      H2             33.6745576447      -14.3440347019       87.8984046741  LPSA23    24             17.0000000000
     25240       816  ARHM      O2             34.6517579683      -16.0747421308       88.6075763533  LPSA23    24             17.0000000000
     25241       816  ARHM      C3             32.6232377022      -16.1006341133       87.4133527752  LPSA23    24             17.0000000000
     25242       816  ARHM      H3             32.0645412069      -15.5306222439       86.6640279609  LPSA23    24             17.0000000000
     25243       816  ARHM      O3             31.7365846484      -16.0436147426       88.5620392964  LPSA23    24             17.0000000000
     25244       816  ARHM      HO3            32.0107652959      -16.7829649978       89.1463757531  LPSA23    24             17.0000000000
     25245       816  ARHM      C4             32.8586474562      -17.5288680859       86.9402325015  LPSA23    24             17.0000000000
     25246       816  ARHM      H4             33.5693472142      -18.0366258459       87.7071552895  LPSA23    24             17.0000000000
     25247       816  ARHM      O4             31.6925436301      -18.3170087704       86.8379508285  LPSA23    24             17.0000000000
     25248       816  ARHM      HO4            31.8217511341      -19.2333640743       87.0219124236  LPSA23    24             17.0000000000
     25249       816  ARHM      C6             33.8482493546      -18.8321776894       84.9175891319  LPSA23    24             17.0000000000
     25250       816  ARHM      H61            32.9329829006      -19.0863164329       84.3853494017  LPSA23    24             17.0000000000
     25251       816  ARHM      H62            34.6534877665      -18.7042227228       84.2649634992  LPSA23    24             17.0000000000
     25252       816  ARHM      H63            34.1954454469      -19.6052275100       85.6811466487  LPSA23    24             17.0000000000
     25253       817  ARHM      C1             35.7052103723      -15.2924084062       89.1588742089  LPSA23    25             18.0000000000
     25254       817  ARHM      H1             35.9813480913      -14.5308595278       88.4722246341  LPSA23    25             18.0000000000
     25255       817  ARHM      C5             36.8517564618      -17.1343292825       90.1670531641  LPSA23    25             18.0000000000
     25256       817  ARHM      H5             36.1253761492      -17.8497360770       89.8870230824  LPSA23    25             18.0000000000
     25257       817  ARHM      O5             36.9370398162      -16.0371500814       89.2315309535  LPSA23    25             18.0000000000
     25258       817  ARHM      C2             35.2757488091      -14.7583852152       90.4685713243  LPSA23    25             18.0000000000
     25259       817  ARHM      H2             34.2403844116      -14.2938281957       90.3413143991  LPSA23    25             18.0000000000
     25260       817  ARHM      O2             36.2351315693      -13.7588572300       90.9328696740  LPSA23    25             18.0000000000
     25261       817  ARHM      C3             35.2438136457      -15.9696296090       91.4562257518  LPSA23    25             18.0000000000
     25262       817  ARHM      H3             34.4699347749      -16.6785648894       91.0689171631  LPSA23    25             18.0000000000
     25263       817  ARHM      O3             34.8021360527      -15.4475555625       92.6920647463  LPSA23    25             18.0000000000
     25264       817  ARHM      C4             36.4907991155      -16.6589384580       91.5960769721  LPSA23    25             18.0000000000
     25265       817  ARHM      H4             37.3605028700      -15.9358267200       91.8876801091  LPSA23    25             18.0000000000
     25266       817  ARHM      O4             36.2986573432      -17.6693780250       92.5862492282  LPSA23    25             18.0000000000
     25267       817  ARHM      HO4            37.1345058164      -17.7073011501       93.0149361445  LPSA23    25             18.0000000000
     25268       817  ARHM      C6             38.1420635785      -17.9516179119       90.2083352735  LPSA23    25             18.0000000000
     25269       817  ARHM      H61            38.4921267455      -18.2316882844       89.1912344565  LPSA23    25             18.0000000000
     25270       817  ARHM      H62            39.0059685697      -17.4001201965       90.6686969550  LPSA23    25             18.0000000000
     25271       817  ARHM      H63            38.0481949978      -18.9254899711       90.8233913566  LPSA23    25             18.0000000000
     25272       818  BMANNA    C1             36.0975718865      -12.5019135150       90.3138108879  LPSA23    26             19.0000000000
     25273       818  BMANNA    H1             35.0805643586      -12.3741636146       89.8388342826  LPSA23    26             19.0000000000
     25274       818  BMANNA    C5             36.7749414311      -10.9506249590       88.6312665858  LPSA23    26             19.0000000000
     25275       818  BMANNA    H5             35.7853010680      -11.0069853923       88.1771240033  LPSA23    26             19.0000000000
     25276       818  BMANNA    O5             37.0313635886      -12.2252621382       89.2346891933  LPSA23    26             19.0000000000
     25277       818  BMANNA    C2             36.2456908533      -11.4967626156       91.3475147821  LPSA23    26             19.0000000000
     25278       818  BMANNA    H2             35.4357340770      -11.7486152994       92.1081287357  LPSA23    26             19.0000000000
     25279       818  BMANNA    N              37.6035116110      -11.6162037187       91.9238920796  LPSA23    26             19.0000000000
     25280       818  BMANNA    HN             38.3333800629      -11.5506967809       91.3050515894  LPSA23    26             19.0000000000
     25281       818  BMANNA    C              37.8741558133      -11.7037768499       93.1798471680  LPSA23    26             19.0000000000
     25282       818  BMANNA    O              36.9577792519      -11.8877192758       94.0003587425  LPSA23    26             19.0000000000
     25283       818  BMANNA    CT             39.3123721222      -11.5599978590       93.6758917343  LPSA23    26             19.0000000000
     25284       818  BMANNA    HT1            39.9394917021      -11.7810637341       92.8666282051  LPSA23    26             19.0000000000
     25285       818  BMANNA    HT2            39.6689367644      -12.0004390721       94.6620984389  LPSA23    26             19.0000000000
     25286       818  BMANNA    HT3            39.4416138366      -10.4846984378       93.8484898219  LPSA23    26             19.0000000000
     25287       818  BMANNA    C3             35.9334974747      -10.1398791234       90.7100883268  LPSA23    26             19.0000000000
     25288       818  BMANNA    H3             34.8789588102      -10.1726136558       90.3384445889  LPSA23    26             19.0000000000
     25289       818  BMANNA    O3             35.9595093044       -9.1391728181       91.7636866611  LPSA23    26             19.0000000000
     25290       818  BMANNA    HO3            35.1481948961       -9.3113083696       92.2265744207  LPSA23    26             19.0000000000
     25291       818  BMANNA    C4             36.8581391542       -9.9049283850       89.6481622736  LPSA23    26             19.0000000000
     25292       818  BMANNA    H4             37.9571098230       -9.8683296015       89.9013799111  LPSA23    26             19.0000000000
     25293       818  BMANNA    O4             36.6349189435       -8.6398477558       89.0416847738  LPSA23    26             19.0000000000
     25294       818  BMANNA    HO4            37.0867084667       -7.9746541538       89.5591157304  LPSA23    26             19.0000000000
     25295       818  BMANNA    C6             37.7167027258      -10.9101921793       87.3900617492  LPSA23    26             19.0000000000
     25296       818  BMANNA    H61            37.8197618707      -11.9038291095       86.9191763972  LPSA23    26             19.0000000000
     25297       818  BMANNA    H62            37.3693157328      -10.2368595929       86.6504270337  LPSA23    26             19.0000000000
     25298       818  BMANNA    O6             39.0263058885      -10.4705273046       87.7329108337  LPSA23    26             19.0000000000
     25299       818  BMANNA    HO6            38.9781624755       -9.6450888573       88.1688153196  LPSA23    26             19.0000000000
     25300       819  BGLCNA    C1             33.8501688663      -16.0191208024       93.4616184899  LPSA23    27             19.0000000000
     25301       819  BGLCNA    H1             33.9372235517      -17.1009265645       93.4392217979  LPSA23    27             19.0000000000
     25302       819  BGLCNA    C5             31.5614995760      -16.4061915696       93.9656603721  LPSA23    27             19.0000000000
     25303       819  BGLCNA    H5             31.8120346947      -17.4979478778       93.9564344452  LPSA23    27             19.0000000000
     25304       819  BGLCNA    O5             32.4850720782      -15.7857159080       93.0607755266  LPSA23    27             19.0000000000
     25305       819  BGLCNA    C2             34.1010626685      -15.5037342058       94.8806799918  LPSA23    27             19.0000000000
     25306       819  BGLCNA    H2             33.8801266565      -14.4222964846       94.8757458582  LPSA23    27             19.0000000000
     25307       819  BGLCNA    N              35.4898882444      -15.7034056327       95.2501113516  LPSA23    27             19.0000000000
     25308       819  BGLCNA    HN             35.8749053311      -16.6703105578       95.0827132934  LPSA23    27             19.0000000000
     25309       819  BGLCNA    C              36.0864455057      -14.6610345571       95.9523160909  LPSA23    27             19.0000000000
     25310       819  BGLCNA    O              35.4790329361      -13.7053878619       96.5238801166  LPSA23    27             19.0000000000
     25311       819  BGLCNA    CT             37.6413678635      -14.7631769373       96.0293745529  LPSA23    27             19.0000000000
     25312       819  BGLCNA    HT1            38.0168105804      -15.5871744766       95.3635606282  LPSA23    27             19.0000000000
     25313       819  BGLCNA    HT2            38.0371951871      -14.8496458828       97.0167906789  LPSA23    27             19.0000000000
     25314       819  BGLCNA    HT3            38.0519178027      -13.7285087473       95.7039804309  LPSA23    27             19.0000000000
     25315       819  BGLCNA    C3             33.1424081320      -16.1530382662       95.7540348103  LPSA23    27             19.0000000000
     25316       819  BGLCNA    H3             33.2449808654      -17.2666620470       95.7401190096  LPSA23    27             19.0000000000
     25317       819  BGLCNA    O3             33.4943608859      -15.6237229178       97.0775356047  LPSA23    27             19.0000000000
     25318       819  BGLCNA    C4             31.6810939435      -15.8782066959       95.3486864533  LPSA23    27             19.0000000000
     25319       819  BGLCNA    H4             31.5095766856      -14.7778592748       95.3090014479  LPSA23    27             19.0000000000
     25320       819  BGLCNA    O4             30.7891476991      -16.4765062533       96.2156872787  LPSA23    27             19.0000000000
     25321       819  BGLCNA    HO4            30.8757926652      -17.3871322993       96.0162444362  LPSA23    27             19.0000000000
     25322       819  BGLCNA    C6             30.1563610417      -16.2745258732       93.2852949846  LPSA23    27             19.0000000000
     25323       819  BGLCNA    H61            29.5020700113      -16.9403060295       93.8557506920  LPSA23    27             19.0000000000
     25324       819  BGLCNA    H62            29.7430731432      -15.2554777144       93.4725180191  LPSA23    27             19.0000000000
     25325       819  BGLCNA    O6             30.2121567223      -16.6050945562       91.9076175409  LPSA23    27             19.0000000000
     25326       819  BGLCNA    HO6            29.3149938201      -16.4807380652       91.5273290588  LPSA23    27             19.0000000000
     25327       820  AGAL      C1             33.0096096529      -16.2999481466       98.2622020222  LPSA23    28             20.0000000000
     25328       820  AGAL      H1             31.9626338839      -16.1629811012       98.3007149491  LPSA23    28             20.0000000000
     25329       820  AGAL      C5             34.6251732452      -18.1054745444       98.1710438288  LPSA23    28             20.0000000000
     25330       820  AGAL      H5             35.2906278146      -17.4116670701       97.4646141937  LPSA23    28             20.0000000000
     25331       820  AGAL      O5             33.1948480712      -17.7060881393       98.1147365872  LPSA23    28             20.0000000000
     25332       820  AGAL      C2             33.6223062725      -15.9137956109       99.6197190629  LPSA23    28             20.0000000000
     25333       820  AGAL      H2             33.0791788269      -16.5700210311      100.2965066153  LPSA23    28             20.0000000000
     25334       820  AGAL      O2             33.3838380102      -14.5919551666      100.0788731798  LPSA23    28             20.0000000000
     25335       820  AGAL      C3             35.0636363441      -16.2977946833       99.7396972452  LPSA23    28             20.0000000000
     25336       820  AGAL      H3             35.6127207078      -15.8342686550       98.8607737785  LPSA23    28             20.0000000000
     25337       820  AGAL      O3             35.8050768450      -15.8851990710      100.9043404272  LPSA23    28             20.0000000000
     25338       820  AGAL      HO3            36.5004710947      -15.2912473456      100.5606486229  LPSA23    28             20.0000000000
     25339       820  AGAL      C4             35.1935540495      -17.7503068784       99.5102226768  LPSA23    28             20.0000000000
     25340       820  AGAL      H4             36.2309220117      -17.9844928303       99.4798298294  LPSA23    28             20.0000000000
     25341       820  AGAL      O4             34.5655098342      -18.5317562390      100.4757933835  LPSA23    28             20.0000000000
     25342       820  AGAL      HO4            35.2420832729      -18.8341425618      101.0376442747  LPSA23    28             20.0000000000
     25343       820  AGAL      C6             34.9183373462      -19.5100053088       97.6362902244  LPSA23    28             20.0000000000
     25344       820  AGAL      H61            34.6565628964      -19.5504498919       96.5809275898  LPSA23    28             20.0000000000
     25345       820  AGAL      H62            35.9931838568      -19.9015387215       97.7651048223  LPSA23    28             20.0000000000
     25346       820  AGAL      O6             34.1466837300      -20.4569780182       98.3456070822  LPSA23    28             20.0000000000
     25347       820  AGAL      HO6            33.2828907127      -20.5496679902       97.9416813930  LPSA23    28             20.0000000000
     25348       821  ARHM      C1             33.0285616410      -14.6392361539      101.4808913342  LPSA23    29             21.0000000000
     25349       821  ARHM      H1             33.4981448894      -15.5384464908      101.9964955809  LPSA23    29             21.0000000000
     25350       821  ARHM      C5             30.9583137344      -13.5823151570      101.1486206043  LPSA23    29             21.0000000000
     25351       821  ARHM      H5             31.2896287423      -13.5096696475      100.0935446791  LPSA23    29             21.0000000000
     25352       821  ARHM      O5             31.6442369118      -14.6786201642      101.6833506475  LPSA23    29             21.0000000000
     25353       821  ARHM      C2             33.6277693137      -13.4795474212      102.1437305515  LPSA23    29             21.0000000000
     25354       821  ARHM      H2             34.6671952039      -13.3800517509      101.9067628034  LPSA23    29             21.0000000000
     25355       821  ARHM      O2             33.5008579145      -13.5462968722      103.5748524404  LPSA23    29             21.0000000000
     25356       821  ARHM      C3             32.9288246317      -12.2533407399      101.6289418068  LPSA23    29             21.0000000000
     25357       821  ARHM      H3             33.1651624789      -12.1336713665      100.4952263366  LPSA23    29             21.0000000000
     25358       821  ARHM      O3             33.5394672309      -11.1279050446      102.1995749427  LPSA23    29             21.0000000000
     25359       821  ARHM      HO3            32.9080475157      -10.4915503869      102.2092645043  LPSA23    29             21.0000000000
     25360       821  ARHM      C4             31.4766386618      -12.2724021679      101.8247918557  LPSA23    29             21.0000000000
     25361       821  ARHM      H4             31.1994413899      -12.2781605891      102.9338171738  LPSA23    29             21.0000000000
     25362       821  ARHM      O4             30.7233237345      -11.1355698391      101.3452167393  LPSA23    29             21.0000000000
     25363       821  ARHM      HO4            31.0030859669      -10.8125437855      100.4362974805  LPSA23    29             21.0000000000
     25364       821  ARHM      C6             29.4582039030      -13.9192245416      101.2162231226  LPSA23    29             21.0000000000
     25365       821  ARHM      H61            29.4178359556      -14.9776121202      100.7685423143  LPSA23    29             21.0000000000
     25366       821  ARHM      H62            29.1501153126      -13.9761487547      102.3013153741  LPSA23    29             21.0000000000
     25367       821  ARHM      H63            28.9067941761      -13.1947030619      100.6072571094  LPSA23    29             21.0000000000
     25368       822  ARHM      C1             34.5271611943      -14.0079610713      104.3945976075  LPSA23    30             22.0000000000
     25369       822  ARHM      H1             35.4326123773      -13.3892473989      104.2094096401  LPSA23    30             22.0000000000
     25370       822  ARHM      C5             33.7011960194      -16.2942811747      104.5143062533  LPSA23    30             22.0000000000
     25371       822  ARHM      H5             32.8646443162      -15.8246782929      103.8668162917  LPSA23    30             22.0000000000
     25372       822  ARHM      O5             34.8146782055      -15.4096067392      104.2052433351  LPSA23    30             22.0000000000
     25373       822  ARHM      C2             34.1322217689      -13.8117632514      105.8471183130  LPSA23    30             22.0000000000
     25374       822  ARHM      H2             33.8974964631      -12.8137856892      106.0289718167  LPSA23    30             22.0000000000
     25375       822  ARHM      O2             35.2089991449      -14.2868435453      106.5813641610  LPSA23    30             22.0000000000
     25376       822  ARHM      C3             33.0249739519      -14.6856696657      106.2079894766  LPSA23    30             22.0000000000
     25377       822  ARHM      H3             32.2333073316      -14.5268303380      105.5270001340  LPSA23    30             22.0000000000
     25378       822  ARHM      O3             32.4886374840      -14.4342223937      107.5373891676  LPSA23    30             22.0000000000
     25379       822  ARHM      C4             33.3464664224      -16.1649593103      105.9708288384  LPSA23    30             22.0000000000
     25380       822  ARHM      H4             34.2115482250      -16.5113141774      106.5400372406  LPSA23    30             22.0000000000
     25381       822  ARHM      O4             32.3666570906      -17.0464271974      106.2997755749  LPSA23    30             22.0000000000
     25382       822  ARHM      HO4            31.6258688307      -17.1887260085      105.6964454668  LPSA23    30             22.0000000000
     25383       822  ARHM      C6             34.0246649787      -17.7025083858      104.0930490251  LPSA23    30             22.0000000000
     25384       822  ARHM      H61            33.0816540004      -18.3048009696      104.2143179997  LPSA23    30             22.0000000000
     25385       822  ARHM      H62            34.1782009844      -17.7193877765      103.0019050467  LPSA23    30             22.0000000000
     25386       822  ARHM      H63            34.9035747777      -18.1591637004      104.6493652223  LPSA23    30             22.0000000000
     25387       823  BMANNA    C1             36.1771295736      -13.3299293480      106.9502319096  LPSA23    31             23.0000000000
     25388       823  BMANNA    H1             35.6459197864      -12.3734674049      107.1550799008  LPSA23    31             23.0000000000
     25389       823  BMANNA    C5             38.1101929528      -12.0525551402      106.2136717625  LPSA23    31             23.0000000000
     25390       823  BMANNA    H5             37.5082648366      -11.1952149634      106.5467054000  LPSA23    31             23.0000000000
     25391       823  BMANNA    O5             37.1461717308      -13.0917718817      105.8742289322  LPSA23    31             23.0000000000
     25392       823  BMANNA    C2             36.9149632900      -13.7962636898      108.0830629221  LPSA23    31             23.0000000000
     25393       823  BMANNA    H2             36.1741220321      -13.8560621169      108.9031915743  LPSA23    31             23.0000000000
     25394       823  BMANNA    N              37.3926154593      -15.1107040752      107.8252935315  LPSA23    31             23.0000000000
     25395       823  BMANNA    HN             37.5347000914      -15.3743068913      106.8111160773  LPSA23    31             23.0000000000
     25396       823  BMANNA    C              37.6112397269      -16.0113762940      108.7868858964  LPSA23    31             23.0000000000
     25397       823  BMANNA    O              37.3415053275      -15.7892852267      109.9536662434  LPSA23    31             23.0000000000
     25398       823  BMANNA    CT             38.2065524781      -17.3498901595      108.3237946568  LPSA23    31             23.0000000000
     25399       823  BMANNA    HT1            38.9277635787      -17.1457811872      107.5739831696  LPSA23    31             23.0000000000
     25400       823  BMANNA    HT2            37.3849578986      -17.9610293538      107.9347099034  LPSA23    31             23.0000000000
     25401       823  BMANNA    HT3            38.5889513032      -17.9322234821      109.1768357935  LPSA23    31             23.0000000000
     25402       823  BMANNA    C3             37.9116869071      -12.7602677894      108.4884560283  LPSA23    31             23.0000000000
     25403       823  BMANNA    H3             37.4126878028      -11.7415561767      108.6988550870  LPSA23    31             23.0000000000
     25404       823  BMANNA    O3             38.5232012050      -13.0725274345      109.7404994872  LPSA23    31             23.0000000000
     25405       823  BMANNA    HO3            37.8698749267      -13.6908311365      110.0111610137  LPSA23    31             23.0000000000
     25406       823  BMANNA    C4             38.9083189573      -12.5533917112      107.4199857710  LPSA23    31             23.0000000000
     25407       823  BMANNA    H4             39.5119217804      -13.5129154733      107.0572414185  LPSA23    31             23.0000000000
     25408       823  BMANNA    O4             39.8919779726      -11.6250294200      107.8525671122  LPSA23    31             23.0000000000
     25409       823  BMANNA    HO4            39.4946294894      -10.7928951004      108.1943429300  LPSA23    31             23.0000000000
     25410       823  BMANNA    C6             39.0501232779      -11.6930573728      105.0512686782  LPSA23    31             23.0000000000
     25411       823  BMANNA    H61            39.6219362252      -10.7224019035      105.3397811046  LPSA23    31             23.0000000000
     25412       823  BMANNA    H62            39.8040982408      -12.4536206418      104.8698551944  LPSA23    31             23.0000000000
     25413       823  BMANNA    O6             38.3270535961      -11.4737513632      103.8241467834  LPSA23    31             23.0000000000
     25414       823  BMANNA    HO6            37.7865138027      -10.6334795730      103.8134147631  LPSA23    31             23.0000000000
     25415       824  BGLCNA    C1             33.1672617568      -14.9973189942      108.6103969990  LPSA23    32             23.0000000000
     25416       824  BGLCNA    H1             34.2895655516      -15.0161200276      108.4325564695  LPSA23    32             23.0000000000
     25417       824  BGLCNA    C5             33.5792053875      -16.9818599083      109.9277617404  LPSA23    32             23.0000000000
     25418       824  BGLCNA    H5             34.6586002223      -16.9124647765      109.5374749077  LPSA23    32             23.0000000000
     25419       824  BGLCNA    O5             32.7739882653      -16.3296093906      108.9423333575  LPSA23    32             23.0000000000
     25420       824  BGLCNA    C2             33.0011480419      -14.1849525242      109.8194522937  LPSA23    32             23.0000000000
     25421       824  BGLCNA    H2             31.9876703287      -14.3405896235      110.1044894257  LPSA23    32             23.0000000000
     25422       824  BGLCNA    N              33.2500631124      -12.8013538571      109.5956973249  LPSA23    32             23.0000000000
     25423       824  BGLCNA    HN             33.9722344034      -12.7067104773      108.8809076996  LPSA23    32             23.0000000000
     25424       824  BGLCNA    C              32.6074758256      -11.7174601686      110.0864625708  LPSA23    32             23.0000000000
     25425       824  BGLCNA    O              31.7156605458      -11.8071344766      110.9304085025  LPSA23    32             23.0000000000
     25426       824  BGLCNA    CT             33.0727655081      -10.3327381913      109.5841031968  LPSA23    32             23.0000000000
     25427       824  BGLCNA    HT1            33.6667434289      -10.6588483253      108.6281101354  LPSA23    32             23.0000000000
     25428       824  BGLCNA    HT2            33.7735097807       -9.8154058441      110.1898124037  LPSA23    32             23.0000000000
     25429       824  BGLCNA    HT3            32.2207940202       -9.6629636584      109.3122359934  LPSA23    32             23.0000000000
     25430       824  BGLCNA    C3             33.8863442889      -14.7449389646      110.8930231790  LPSA23    32             23.0000000000
     25431       824  BGLCNA    H3             34.8436694071      -14.8074997979      110.4606187373  LPSA23    32             23.0000000000
     25432       824  BGLCNA    O3             33.9911379151      -13.9211447571      112.0657798240  LPSA23    32             23.0000000000
     25433       824  BGLCNA    C4             33.4165031300      -16.1467250936      111.1707572500  LPSA23    32             23.0000000000
     25434       824  BGLCNA    H4             32.3545829978      -16.0740190521      111.5318289610  LPSA23    32             23.0000000000
     25435       824  BGLCNA    O4             34.1510905554      -16.7432831366      112.2070236435  LPSA23    32             23.0000000000
     25436       824  BGLCNA    HO4            33.7485234798      -16.5936268543      113.0745323218  LPSA23    32             23.0000000000
     25437       824  BGLCNA    C6             33.1954391014      -18.4437692302      110.0229508171  LPSA23    32             23.0000000000
     25438       824  BGLCNA    H61            33.9083036484      -19.0217779597      110.7194343748  LPSA23    32             23.0000000000
     25439       824  BGLCNA    H62            32.1751547738      -18.5320994901      110.5717638480  LPSA23    32             23.0000000000
     25440       824  BGLCNA    O6             33.2445770848      -19.0967060270      108.7709294272  LPSA23    32             23.0000000000
     25441       824  BGLCNA    HO6            33.9997935191      -18.7419001428      108.2360311317  LPSA23    32             23.0000000000
     25442       825  AGAL      C1             35.3055250350      -13.9035354708      112.6842874521  LPSA23    33             24.0000000000
     25443       825  AGAL      H1             35.6995928826      -14.9191120803      112.5979959475  LPSA23    33             24.0000000000
     25444       825  AGAL      C5             35.7231768506      -11.6148588167      112.2149219831  LPSA23    33             24.0000000000
     25445       825  AGAL      H5             34.6716938198      -11.6576961767      111.8792915250  LPSA23    33             24.0000000000
     25446       825  AGAL      O5             36.2120678068      -12.9324858609      112.0726784748  LPSA23    33             24.0000000000
     25447       825  AGAL      C2             35.1074474910      -13.5168033412      114.1482787662  LPSA23    33             24.0000000000
     25448       825  AGAL      H2             36.1789622730      -13.4128523115      114.5751854976  LPSA23    33             24.0000000000
     25449       825  AGAL      O2             34.5613037262      -14.6186847268      114.8486222260  LPSA23    33             24.0000000000
     25450       825  AGAL      C3             34.6134780434      -12.0989679400      114.2945545625  LPSA23    33             24.0000000000
     25451       825  AGAL      H3             33.6221482771      -11.9653235603      113.7405815065  LPSA23    33             24.0000000000
     25452       825  AGAL      O3             34.2461558148      -11.7587247533      115.5672660328  LPSA23    33             24.0000000000
     25453       825  AGAL      HO3            34.8761035064      -11.9094929581      116.2400186851  LPSA23    33             24.0000000000
     25454       825  AGAL      C4             35.5866597133      -11.1253810280      113.6708488317  LPSA23    33             24.0000000000
     25455       825  AGAL      H4             35.1857368799      -10.1045432706      113.6729875792  LPSA23    33             24.0000000000
     25456       825  AGAL      O4             36.9102612541      -11.0174982047      114.2435538900  LPSA23    33             24.0000000000
     25457       825  AGAL      HO4            37.0831247212      -11.6734643135      114.9085525172  LPSA23    33             24.0000000000
     25458       825  AGAL      C6             36.4317912070      -10.6450627396      111.2992528405  LPSA23    33             24.0000000000
     25459       825  AGAL      H61            36.2049965484      -11.0137391037      110.2783408757  LPSA23    33             24.0000000000
     25460       825  AGAL      H62            36.1084460108       -9.5879812134      111.3458027743  LPSA23    33             24.0000000000
     25461       825  AGAL      O6             37.8154590360      -10.5296145578      111.4129476537  LPSA23    33             24.0000000000
     25462       825  AGAL      HO6            38.3124695318      -11.1710946889      110.8444757795  LPSA23    33             24.0000000000
     25463       826  ARHM      C1             35.2408489740      -14.9681361612      116.0109133884  LPSA23    34             25.0000000000
     25464       826  ARHM      H1             35.4810091811      -14.0932319846      116.6389743656  LPSA23    34             25.0000000000
     25465       826  ARHM      C5             36.4487470175      -16.8414483440      115.0727799907  LPSA23    34             25.0000000000
     25466       826  ARHM      H5             36.0569110350      -16.5625240163      114.0209633333  LPSA23    34             25.0000000000
     25467       826  ARHM      O5             36.5214634201      -15.6209851806      115.8926868953  LPSA23    34             25.0000000000
     25468       826  ARHM      C2             34.2762437253      -15.8441963566      116.7601555753  LPSA23    34             25.0000000000
     25469       826  ARHM      H2             33.2325205626      -15.4424813246      116.8710959342  LPSA23    34             25.0000000000
     25470       826  ARHM      O2             34.6964195182      -16.1891623805      118.1592972339  LPSA23    34             25.0000000000
     25471       826  ARHM      C3             34.1358647655      -17.1543726596      115.9988665506  LPSA23    34             25.0000000000
     25472       826  ARHM      H3             33.7779265993      -16.9828187526      114.9724172480  LPSA23    34             25.0000000000
     25473       826  ARHM      O3             33.2454081526      -18.1331245661      116.5878695042  LPSA23    34             25.0000000000
     25474       826  ARHM      HO3            32.7251093960      -18.6191778862      115.9559434517  LPSA23    34             25.0000000000
     25475       826  ARHM      C4             35.5025965751      -17.8643250489      115.7987835878  LPSA23    34             25.0000000000
     25476       826  ARHM      H4             36.0397761464      -18.0160527007      116.7495315617  LPSA23    34             25.0000000000
     25477       826  ARHM      O4             35.3971498461      -19.0704106969      115.1362621200  LPSA23    34             25.0000000000
     25478       826  ARHM      HO4            35.0649343467      -19.7690433456      115.6953140327  LPSA23    34             25.0000000000
     25479       826  ARHM      C6             37.8692892457      -17.4706464270      114.8413279703  LPSA23    34             25.0000000000
     25480       826  ARHM      H61            38.3705656110      -17.8267521356      115.7172490283  LPSA23    34             25.0000000000
     25481       826  ARHM      H62            37.7100729315      -18.4700887491      114.3996926230  LPSA23    34             25.0000000000
     25482       826  ARHM      H63            38.5478281346      -16.9259215268      114.1590834060  LPSA23    34             25.0000000000
     25483       827  ARHM      C1             34.9163282436      -15.1004268916      119.0795908573  LPSA23    35             26.0000000000
     25484       827  ARHM      H1             34.1037460386      -14.2850210819      118.8787348947  LPSA23    35             26.0000000000
     25485       827  ARHM      C5             37.3151937099      -15.4482256750      119.2408916176  LPSA23    35             26.0000000000
     25486       827  ARHM      H5             37.2573015269      -16.3649100031      118.5254732223  LPSA23    35             26.0000000000
     25487       827  ARHM      O5             36.2554904511      -14.4649742876      118.9290334222  LPSA23    35             26.0000000000
     25488       827  ARHM      C2             34.7467704062      -15.5912397799      120.5365485050  LPSA23    35             26.0000000000
     25489       827  ARHM      H2             33.6990277030      -15.9670637707      120.7134209997  LPSA23    35             26.0000000000
     25490       827  ARHM      O2             34.9298276190      -14.5416686655      121.4126203716  LPSA23    35             26.0000000000
     25491       827  ARHM      C3             35.8055345869      -16.6655475228      120.8720061906  LPSA23    35             26.0000000000
     25492       827  ARHM      H3             35.6255973322      -17.5147325346      120.1344793452  LPSA23    35             26.0000000000
     25493       827  ARHM      O3             35.5937409188      -17.2192610330      122.1540075829  LPSA23    35             26.0000000000
     25494       827  ARHM      HO3            35.2461102204      -16.5339062834      122.7288731339  LPSA23    35             26.0000000000
     25495       827  ARHM      C4             37.1572292901      -16.0348556306      120.6788917534  LPSA23    35             26.0000000000
     25496       827  ARHM      H4             37.3404658020      -15.1365556848      121.3307119103  LPSA23    35             26.0000000000
     25497       827  ARHM      O4             38.1305878233      -17.0617074645      120.9693790153  LPSA23    35             26.0000000000
     25498       827  ARHM      HO4            37.9247562208      -17.9334813498      120.5581709812  LPSA23    35             26.0000000000
     25499       827  ARHM      C6             38.7118249677      -14.8443788578      118.8642347863  LPSA23    35             26.0000000000
     25500       827  ARHM      H61            38.7975717006      -14.6831948676      117.7433556958  LPSA23    35             26.0000000000
     25501       827  ARHM      H62            38.7123920594      -13.9180992919      119.4176110492  LPSA23    35             26.0000000000
     25502       827  ARHM      H63            39.4781957862      -15.6476679118      119.0633705917  LPSA23    35             26.0000000000
     25503       828  BMANNA    C1             33.9233149653      -13.5751935239      121.4471464502  LPSA23    36             27.0000000000
     25504       828  BMANNA    H1             32.9482640447      -13.9902325319      121.0972061898  LPSA23    36             27.0000000000
     25505       828  BMANNA    C5             32.8946877579      -11.5058826530      120.7299884793  LPSA23    36             27.0000000000
     25506       828  BMANNA    H5             32.0257299007      -12.1040075607      120.4610684421  LPSA23    36             27.0000000000
     25507       828  BMANNA    O5             34.0816673664      -12.3591075375      120.6641532654  LPSA23    36             27.0000000000
     25508       828  BMANNA    C2             33.7201831694      -13.1460314215      122.8920138725  LPSA23    36             27.0000000000
     25509       828  BMANNA    H2             33.5078333485      -14.0636457752      123.4719477421  LPSA23    36             27.0000000000
     25510       828  BMANNA    N              34.9408453265      -12.5549538294      123.4395449790  LPSA23    36             27.0000000000
     25511       828  BMANNA    HN             35.4757786477      -11.9192887670      122.8746519580  LPSA23    36             27.0000000000
     25512       828  BMANNA    C              35.2019548126      -12.6044885463      124.7737151700  LPSA23    36             27.0000000000
     25513       828  BMANNA    O              34.5762092350      -13.2522528434      125.6190347561  LPSA23    36             27.0000000000
     25514       828  BMANNA    CT             36.3138197927      -11.7776346549      125.3570716528  LPSA23    36             27.0000000000
     25515       828  BMANNA    HT1            36.3474101317      -10.7931549494      124.8802869227  LPSA23    36             27.0000000000
     25516       828  BMANNA    HT2            37.3387352212      -12.2073434341      125.1731404614  LPSA23    36             27.0000000000
     25517       828  BMANNA    HT3            36.3072254978      -11.6603461904      126.4547536948  LPSA23    36             27.0000000000
     25518       828  BMANNA    C3             32.5311949221      -12.2236883609      122.9763638711  LPSA23    36             27.0000000000
     25519       828  BMANNA    H3             31.6215323873      -12.7375336615      122.6403873786  LPSA23    36             27.0000000000
     25520       828  BMANNA    O3             32.2473401918      -11.8205171550      124.3414054450  LPSA23    36             27.0000000000
     25521       828  BMANNA    HO3            31.4195508144      -12.1011764723      124.7171830083  LPSA23    36             27.0000000000
     25522       828  BMANNA    C4             32.7011334481      -11.0288194458      122.1146940524  LPSA23    36             27.0000000000
     25523       828  BMANNA    H4             33.5195209885      -10.4189510347      122.4263894750  LPSA23    36             27.0000000000
     25524       828  BMANNA    O4             31.5831483227      -10.1493096108      122.2172873890  LPSA23    36             27.0000000000
     25525       828  BMANNA    HO4            31.6164020281      -10.0220228798      123.1985163392  LPSA23    36             27.0000000000
     25526       828  BMANNA    C6             33.0322325266      -10.4185675502      119.7412642597  LPSA23    36             27.0000000000
     25527       828  BMANNA    H61            33.0934511354      -10.8124052407      118.6946701192  LPSA23    36             27.0000000000
     25528       828  BMANNA    H62            32.0514497236       -9.9343514267      119.7045442506  LPSA23    36             27.0000000000
     25529       828  BMANNA    O6             34.1060000380       -9.4729459399      120.0914698020  LPSA23    36             27.0000000000
     25530       828  BMANNA    HO6            33.6912179819       -8.8034399457      120.6476247167  LPSA23    36             27.0000000000
     25531       829  ECLIPA    HB6S          -34.7795206435      -14.8721112118       20.4612168218  LPSA24    1               0.0000000000
     25532       829  ECLIPA    OB6           -35.8301585239      -16.0505107206       21.7140249152  LPSA24    1               0.0000000000
     25533       829  ECLIPA    CB6           -34.7676661467      -15.9003520305       20.7042159014  LPSA24    1               0.0000000000
     25534       829  ECLIPA    HB6R          -33.8411790450      -16.3176136648       21.0541931349  LPSA24    1               0.0000000000
     25535       829  ECLIPA    CB5           -35.0518986893      -16.7559306770       19.3988764877  LPSA24    1               0.0000000000
     25536       829  ECLIPA    OB5           -36.4079509295      -16.3300427939       18.9716901872  LPSA24    1               0.0000000000
     25537       829  ECLIPA    HB5           -35.1205893055      -17.7931134726       19.7771798410  LPSA24    1               0.0000000000
     25538       829  ECLIPA    CB1           -36.7911378621      -17.0413452206       17.7717324898  LPSA24    1               0.0000000000
     25539       829  ECLIPA    HB1           -36.8214733126      -18.1456257071       17.9003641080  LPSA24    1               0.0000000000
     25540       829  ECLIPA    OA6           -38.0372232707      -16.6015975485       17.3217246577  LPSA24    1               0.0000000000
     25541       829  ECLIPA    CA6           -38.4458038885      -15.2403559818       17.5745106853  LPSA24    1               0.0000000000
     25542       829  ECLIPA    HA6R          -37.5347218584      -14.6258006306       17.7226451425  LPSA24    1               0.0000000000
     25543       829  ECLIPA    HA6S          -39.1990113176      -15.2593571557       18.4598965841  LPSA24    1               0.0000000000
     25544       829  ECLIPA    CB4           -33.9730621635      -16.5347396155       18.3206521937  LPSA24    1               0.0000000000
     25545       829  ECLIPA    HB4           -33.9237184992      -15.4703267195       18.0085584641  LPSA24    1               0.0000000000
     25546       829  ECLIPA    OB4           -32.8096134315      -17.1632967113       18.9017319965  LPSA24    1               0.0000000000
     25547       829  ECLIPA    PB            -31.5473523406      -16.2573918751       19.3234616795  LPSA24    1               0.0000000000
     25548       829  ECLIPA    OPB4          -30.9072182861      -16.9191730529       20.5579515876  LPSA24    1               0.0000000000
     25549       829  ECLIPA    OPB3          -32.2453951901      -14.9175752387       19.6614545037  LPSA24    1               0.0000000000
     25550       829  ECLIPA    OPB2          -30.6523932423      -16.1185785779       18.0829495795  LPSA24    1               0.0000000000
     25551       829  ECLIPA    CB3           -34.4422145488      -17.2956536950       17.0955893951  LPSA24    1               0.0000000000
     25552       829  ECLIPA    OB3           -33.6281125386      -17.1492543694       15.9186528231  LPSA24    1               0.0000000000
     25553       829  ECLIPA    HB3           -34.6917510276      -18.3754898246       17.3284540628  LPSA24    1               0.0000000000
     25554       829  ECLIPA    C71           -32.7027062243      -18.0208737968       15.6929469039  LPSA24    1               0.0000000000
     25555       829  ECLIPA    O71           -32.5282900663      -19.0518097509       16.3832172580  LPSA24    1               0.0000000000
     25556       829  ECLIPA    C72           -32.0155575255      -17.6417951069       14.3548430386  LPSA24    1               0.0000000000
     25557       829  ECLIPA    H72R          -32.7769158223      -17.6068849728       13.5774555414  LPSA24    1               0.0000000000
     25558       829  ECLIPA    H72S          -31.1441316254      -18.3952349732       14.1464415926  LPSA24    1               0.0000000000
     25559       829  ECLIPA    CB2           -35.8255263971      -16.7630619792       16.6720734084  LPSA24    1               0.0000000000
     25560       829  ECLIPA    HB2           -35.6920392380      -15.5972384065       16.5298168153  LPSA24    1               0.0000000000
     25561       829  ECLIPA    NB2           -36.3502739552      -17.4234629832       15.4577284722  LPSA24    1               0.0000000000
     25562       829  ECLIPA    HNB2          -36.8353654011      -18.2857153583       15.5965609326  LPSA24    1               0.0000000000
     25563       829  ECLIPA    CA4           -40.1390447109      -15.7116204895       15.7929312798  LPSA24    1               0.0000000000
     25564       829  ECLIPA    HA4           -39.5941609888      -16.6419915336       15.4903430209  LPSA24    1               0.0000000000
     25565       829  ECLIPA    OA4           -41.0571568078      -16.0088669014       16.8012065728  LPSA24    1               0.0000000000
     25566       829  ECLIPA    HOA4          -40.6507109998      -16.2168333097       17.5928838569  LPSA24    1               0.0000000000
     25567       829  ECLIPA    CA5           -39.1783882344      -14.7490069087       16.3547806008  LPSA24    1               0.0000000000
     25568       829  ECLIPA    HA5           -39.5684872472      -13.6734563479       16.5880746347  LPSA24    1               0.0000000000
     25569       829  ECLIPA    OA5           -38.1605318401      -14.5267920476       15.3689671688  LPSA24    1               0.0000000000
     25570       829  ECLIPA    CA1           -38.7288737166      -14.0239695779       14.1076640156  LPSA24    1               0.0000000000
     25571       829  ECLIPA    HA1           -37.8714675875      -14.2387049388       13.4118188108  LPSA24    1               0.0000000000
     25572       829  ECLIPA    OA1           -38.9889904916      -12.6342222582       14.1359876212  LPSA24    1               0.0000000000
     25573       829  ECLIPA    OPA2          -38.5759013998      -11.1275390444       15.9734101064  LPSA24    1               0.0000000000
     25574       829  ECLIPA    OPA3          -36.5723588648      -12.2131504474       14.8300177673  LPSA24    1               0.0000000000
     25575       829  ECLIPA    OPA4          -37.8553529859      -10.4804376782       13.6615320840  LPSA24    1               0.0000000000
     25576       829  ECLIPA    PA            -37.9327977282      -11.5987725313       14.6765383084  LPSA24    1               0.0000000000
     25577       829  ECLIPA    CA3           -40.8193211245      -15.2235783247       14.5219348229  LPSA24    1               0.0000000000
     25578       829  ECLIPA    HA3           -41.4639136580      -14.2837132202       14.7377032538  LPSA24    1               0.0000000000
     25579       829  ECLIPA    OA3           -41.7961730185      -16.2121004471       14.2498111976  LPSA24    1               0.0000000000
     25580       829  ECLIPA    C31           -41.3812665335      -17.2830614478       13.5006246295  LPSA24    1               0.0000000000
     25581       829  ECLIPA    O31           -41.2158107542      -17.3022138649       12.2941239937  LPSA24    1               0.0000000000
     25582       829  ECLIPA    C32           -41.6698423458      -18.5754475704       14.2780289507  LPSA24    1               0.0000000000
     25583       829  ECLIPA    H32R          -42.4236679001      -19.1575217982       13.7149713840  LPSA24    1               0.0000000000
     25584       829  ECLIPA    H32S          -42.0367509276      -18.3361031630       15.2729523512  LPSA24    1               0.0000000000
     25585       829  ECLIPA    CA2           -39.7265421244      -14.9813339924       13.4984733916  LPSA24    1               0.0000000000
     25586       829  ECLIPA    HA2           -39.1636837998      -15.9130080419       13.3982259915  LPSA24    1               0.0000000000
     25587       829  ECLIPA    NA2           -40.2300108170      -14.4764354342       12.2035087571  LPSA24    1               0.0000000000
     25588       829  ECLIPA    HNA2          -41.1934953105      -14.4958858171       12.0865030408  LPSA24    1               0.0000000000
     25589       829  ECLIPA    C73           -31.3445634635      -16.2928334937       14.3319064372  LPSA24    1               0.0000000000
     25590       829  ECLIPA    H73R          -30.7596494580      -16.0961333019       15.2227416964  LPSA24    1               0.0000000000
     25591       829  ECLIPA    O73           -32.4055011295      -15.3078269670       14.2644256719  LPSA24    1               0.0000000000
     25592       829  ECLIPA    C81           -32.3616910406      -14.1021756320       14.8555734565  LPSA24    1               0.0000000000
     25593       829  ECLIPA    O81           -31.4171572141      -13.8538557860       15.6690894779  LPSA24    1               0.0000000000
     25594       829  ECLIPA    C82           -33.4864597413      -13.1755358889       14.3536111794  LPSA24    1               0.0000000000
     25595       829  ECLIPA    H82R          -33.4633740606      -12.2122586937       14.8531840528  LPSA24    1               0.0000000000
     25596       829  ECLIPA    H82S          -34.4923237751      -13.6204683901       14.5323473422  LPSA24    1               0.0000000000
     25597       829  ECLIPA    C83           -33.3530643215      -12.9649197793       12.8301722806  LPSA24    1               0.0000000000
     25598       829  ECLIPA    H83R          -33.8083474217      -13.8431427618       12.2351841548  LPSA24    1               0.0000000000
     25599       829  ECLIPA    H83S          -32.2903290538      -13.0333883578       12.5911296392  LPSA24    1               0.0000000000
     25600       829  ECLIPA    C84           -34.0956361146      -11.7191218259       12.3050927261  LPSA24    1               0.0000000000
     25601       829  ECLIPA    H84R          -33.5128199041      -10.8304420572       12.5767117503  LPSA24    1               0.0000000000
     25602       829  ECLIPA    H84S          -35.0705029476      -11.7977295069       12.7369555497  LPSA24    1               0.0000000000
     25603       829  ECLIPA    C85           -34.2685753697      -11.7775992359       10.7695484051  LPSA24    1               0.0000000000
     25604       829  ECLIPA    H85R          -34.5720314981      -12.8094593461       10.5503608829  LPSA24    1               0.0000000000
     25605       829  ECLIPA    H85S          -33.2789604383      -11.6378147781       10.2367999955  LPSA24    1               0.0000000000
     25606       829  ECLIPA    C86           -35.4241253509      -10.8490383514       10.3034592726  LPSA24    1               0.0000000000
     25607       829  ECLIPA    H86R          -35.0741718773       -9.8088807470        9.9932223571  LPSA24    1               0.0000000000
     25608       829  ECLIPA    H86S          -36.1491853744      -10.6956298190       11.0807540114  LPSA24    1               0.0000000000
     25609       829  ECLIPA    C87           -36.2807617703      -11.4937383442        9.1601018854  LPSA24    1               0.0000000000
     25610       829  ECLIPA    H87R          -37.0445526445      -10.8094950343        8.8049419625  LPSA24    1               0.0000000000
     25611       829  ECLIPA    H87S          -36.8458936032      -12.3871362376        9.5406723883  LPSA24    1               0.0000000000
     25612       829  ECLIPA    C88           -35.4216578564      -12.0088879887        8.0318999685  LPSA24    1               0.0000000000
     25613       829  ECLIPA    H88R          -34.8947337703      -12.9679277767        8.3479828359  LPSA24    1               0.0000000000
     25614       829  ECLIPA    H88S          -34.5109824394      -11.3504461136        7.9254521495  LPSA24    1               0.0000000000
     25615       829  ECLIPA    C89           -36.1950907616      -12.3264582741        6.7101000712  LPSA24    1               0.0000000000
     25616       829  ECLIPA    H89R          -37.2897507790      -12.4250575374        6.8746682686  LPSA24    1               0.0000000000
     25617       829  ECLIPA    H89S          -35.9072908984      -13.2428938998        6.2317001698  LPSA24    1               0.0000000000
     25618       829  ECLIPA    C810          -35.9025921339      -11.1985082981        5.7047246593  LPSA24    1               0.0000000000
     25619       829  ECLIPA    H810R         -34.8866524992      -10.8889128261        6.0108430704  LPSA24    1               0.0000000000
     25620       829  ECLIPA    H810S         -36.6032865741      -10.3999395068        5.8554647029  LPSA24    1               0.0000000000
     25621       829  ECLIPA    C811          -35.9433415572      -11.5923417057        4.2179945741  LPSA24    1               0.0000000000
     25622       829  ECLIPA    H811R         -36.0623251102      -10.8210905592        3.5081125689  LPSA24    1               0.0000000000
     25623       829  ECLIPA    H811S         -36.7743082476      -12.3912848844        4.1819101877  LPSA24    1               0.0000000000
     25624       829  ECLIPA    C812          -34.7666463725      -12.4578518317        3.7413673409  LPSA24    1               0.0000000000
     25625       829  ECLIPA    H812R         -35.0216516115      -12.8064278258        2.6403157337  LPSA24    1               0.0000000000
     25626       829  ECLIPA    H812S         -34.5104867320      -13.2665043465        4.4144737196  LPSA24    1               0.0000000000
     25627       829  ECLIPA    C813          -33.4178641135      -11.7176544987        3.6785234959  LPSA24    1               0.0000000000
     25628       829  ECLIPA    H813R         -33.5466069224      -10.8913884569        2.9398073555  LPSA24    1               0.0000000000
     25629       829  ECLIPA    H813S         -33.0652950908      -11.2284705869        4.6616087352  LPSA24    1               0.0000000000
     25630       829  ECLIPA    C814          -32.2845207425      -12.5648238634        3.1377409857  LPSA24    1               0.0000000000
     25631       829  ECLIPA    H814R         -32.5165211482      -13.1857615402        2.1719074593  LPSA24    1               0.0000000000
     25632       829  ECLIPA    H814S         -31.9568260938      -13.2666432657        3.9166242729  LPSA24    1               0.0000000000
     25633       829  ECLIPA    H814T         -31.3991195724      -11.9336189781        2.8964685373  LPSA24    1               0.0000000000
     25634       829  ECLIPA    C74           -30.4332919517      -15.9428041933       13.1792855021  LPSA24    1               0.0000000000
     25635       829  ECLIPA    H74R          -29.5424307571      -16.5401814442       12.9935747315  LPSA24    1               0.0000000000
     25636       829  ECLIPA    H74S          -30.0684482381      -14.8494039855       13.3086690609  LPSA24    1               0.0000000000
     25637       829  ECLIPA    C75           -31.2453231684      -15.8535584153       11.8151371119  LPSA24    1               0.0000000000
     25638       829  ECLIPA    H75R          -30.7644140232      -15.0019837684       11.2107603889  LPSA24    1               0.0000000000
     25639       829  ECLIPA    H75S          -32.2995843839      -15.5768461611       12.0082837783  LPSA24    1               0.0000000000
     25640       829  ECLIPA    C76           -31.2263911555      -17.1267292077       10.9251453624  LPSA24    1               0.0000000000
     25641       829  ECLIPA    H76R          -31.9556356721      -17.8670955477       11.3555905686  LPSA24    1               0.0000000000
     25642       829  ECLIPA    H76S          -30.2059396926      -17.6936549215       10.9731137071  LPSA24    1               0.0000000000
     25643       829  ECLIPA    C77           -31.5495203427      -16.9574185368        9.4191603634  LPSA24    1               0.0000000000
     25644       829  ECLIPA    H77R          -30.8071941037      -16.2975872064        9.0408775908  LPSA24    1               0.0000000000
     25645       829  ECLIPA    H77S          -32.4805646191      -16.3597666240        9.2852383479  LPSA24    1               0.0000000000
     25646       829  ECLIPA    C78           -31.7257138549      -18.3625153150        8.8297405752  LPSA24    1               0.0000000000
     25647       829  ECLIPA    H78R          -30.8751619906      -18.9599117310        9.1562620580  LPSA24    1               0.0000000000
     25648       829  ECLIPA    H78S          -32.6633621615      -18.7488598504        9.3169442960  LPSA24    1               0.0000000000
     25649       829  ECLIPA    C79           -32.1123607791      -18.3532955942        7.2570767761  LPSA24    1               0.0000000000
     25650       829  ECLIPA    H79R          -33.2385053004      -18.4504896494        7.1763205913  LPSA24    1               0.0000000000
     25651       829  ECLIPA    H79S          -31.6641423322      -19.2346172010        6.7882549413  LPSA24    1               0.0000000000
     25652       829  ECLIPA    C710          -31.4943885133      -17.2609126310        6.3785096220  LPSA24    1               0.0000000000
     25653       829  ECLIPA    H710R         -31.8234150478      -16.3035344121        6.8460783027  LPSA24    1               0.0000000000
     25654       829  ECLIPA    H710S         -30.4776496909      -17.3249409368        6.4843026416  LPSA24    1               0.0000000000
     25655       829  ECLIPA    C711          -31.9631509034      -17.2834495691        4.9384125046  LPSA24    1               0.0000000000
     25656       829  ECLIPA    H711R         -31.6147368170      -18.2493155838        4.5670708729  LPSA24    1               0.0000000000
     25657       829  ECLIPA    H711S         -33.0772174931      -17.1715506072        4.9306188492  LPSA24    1               0.0000000000
     25658       829  ECLIPA    C712          -31.3423265969      -16.1018774414        4.2148670498  LPSA24    1               0.0000000000
     25659       829  ECLIPA    H712R         -30.2576355524      -16.2206981294        4.3130666899  LPSA24    1               0.0000000000
     25660       829  ECLIPA    H712S         -31.5931785055      -15.2374432435        4.8522839389  LPSA24    1               0.0000000000
     25661       829  ECLIPA    C713          -31.9077585579      -15.9500070530        2.7357390519  LPSA24    1               0.0000000000
     25662       829  ECLIPA    H713R         -33.0079898595      -15.7610752624        2.8800411466  LPSA24    1               0.0000000000
     25663       829  ECLIPA    H713S         -31.3566798090      -15.0488399139        2.2750064041  LPSA24    1               0.0000000000
     25664       829  ECLIPA    C714          -31.5265256995      -17.1775959313        1.8879763961  LPSA24    1               0.0000000000
     25665       829  ECLIPA    H714R         -30.4373415799      -17.2557852293        1.7626189762  LPSA24    1               0.0000000000
     25666       829  ECLIPA    H714S         -32.0514065199      -18.0859363269        2.2081901572  LPSA24    1               0.0000000000
     25667       829  ECLIPA    H714T         -31.9038898020      -16.8891755559        0.9249202435  LPSA24    1               0.0000000000
     25668       829  ECLIPA    C51           -35.9795307289      -17.0009000795       14.2380633031  LPSA24    1               0.0000000000
     25669       829  ECLIPA    O51           -35.5202512119      -15.8437510228       14.1304636378  LPSA24    1               0.0000000000
     25670       829  ECLIPA    C52           -36.0498451234      -17.9867530097       13.0157035712  LPSA24    1               0.0000000000
     25671       829  ECLIPA    H52R          -35.1771452526      -18.6123827414       12.8950255930  LPSA24    1               0.0000000000
     25672       829  ECLIPA    H52S          -36.9130660917      -18.5791217783       13.2222025935  LPSA24    1               0.0000000000
     25673       829  ECLIPA    C53           -36.4216437317      -17.1203354962       11.7526064304  LPSA24    1               0.0000000000
     25674       829  ECLIPA    H53R          -36.9578704255      -16.2123542459       12.0082431084  LPSA24    1               0.0000000000
     25675       829  ECLIPA    O53           -37.0736882396      -18.0213394360       10.8431816314  LPSA24    1               0.0000000000
     25676       829  ECLIPA    C61           -38.3301776733      -17.7772493854       10.5090573566  LPSA24    1               0.0000000000
     25677       829  ECLIPA    O61           -38.9852395975      -16.8487508319       10.8659713306  LPSA24    1               0.0000000000
     25678       829  ECLIPA    C62           -38.8269873949      -18.8895179791        9.5765835255  LPSA24    1               0.0000000000
     25679       829  ECLIPA    H62R          -39.0830556071      -19.7611012752       10.2152837125  LPSA24    1               0.0000000000
     25680       829  ECLIPA    H62S          -37.9264747866      -19.2681729723        9.0470049452  LPSA24    1               0.0000000000
     25681       829  ECLIPA    C63           -39.9970971941      -18.4090722826        8.6803029234  LPSA24    1               0.0000000000
     25682       829  ECLIPA    H63R          -39.7095162387      -17.4234979048        8.2798705976  LPSA24    1               0.0000000000
     25683       829  ECLIPA    H63S          -40.9692971822      -18.2579974316        9.3252199642  LPSA24    1               0.0000000000
     25684       829  ECLIPA    C64           -40.3848181052      -19.2522903064        7.5279067597  LPSA24    1               0.0000000000
     25685       829  ECLIPA    H64R          -41.3051787488      -18.8636258325        6.9620099216  LPSA24    1               0.0000000000
     25686       829  ECLIPA    H64S          -40.5992021188      -20.2953504711        7.9657393466  LPSA24    1               0.0000000000
     25687       829  ECLIPA    C65           -39.1729569195      -19.3953200093        6.5414948800  LPSA24    1               0.0000000000
     25688       829  ECLIPA    H65R          -38.4345393076      -19.8606177919        7.2423230371  LPSA24    1               0.0000000000
     25689       829  ECLIPA    H65S          -38.8670171065      -18.3878605472        6.1828980290  LPSA24    1               0.0000000000
     25690       829  ECLIPA    C66           -39.3966468291      -20.2658234833        5.2222643966  LPSA24    1               0.0000000000
     25691       829  ECLIPA    H66R          -39.6521174840      -21.2745919895        5.5395647249  LPSA24    1               0.0000000000
     25692       829  ECLIPA    H66S          -38.3442823671      -20.2330370128        4.8113963288  LPSA24    1               0.0000000000
     25693       829  ECLIPA    C67           -40.3503229101      -19.7599239223        4.1696839457  LPSA24    1               0.0000000000
     25694       829  ECLIPA    H67R          -41.3256558389      -19.4876143819        4.5058181646  LPSA24    1               0.0000000000
     25695       829  ECLIPA    H67S          -40.4543084050      -20.5243157264        3.3478820057  LPSA24    1               0.0000000000
     25696       829  ECLIPA    C68           -39.9163644076      -18.4783559346        3.5077075145  LPSA24    1               0.0000000000
     25697       829  ECLIPA    H68R          -38.9173825854      -18.4425405319        3.0112508411  LPSA24    1               0.0000000000
     25698       829  ECLIPA    H68S          -40.0185483322      -17.7685006202        4.3087918325  LPSA24    1               0.0000000000
     25699       829  ECLIPA    C69           -40.8038876645      -18.1966275849        2.2963532923  LPSA24    1               0.0000000000
     25700       829  ECLIPA    H69R          -41.8250717902      -18.6237347917        2.3203210098  LPSA24    1               0.0000000000
     25701       829  ECLIPA    H69S          -40.3651034659      -18.7512637101        1.4693744207  LPSA24    1               0.0000000000
     25702       829  ECLIPA    C610          -40.9025026947      -16.7583721308        1.9396251084  LPSA24    1               0.0000000000
     25703       829  ECLIPA    H610R         -39.9008683771      -16.2608509565        2.0603347121  LPSA24    1               0.0000000000
     25704       829  ECLIPA    H610S         -41.5662488850      -16.2213640979        2.6933643884  LPSA24    1               0.0000000000
     25705       829  ECLIPA    C611          -41.5468673827      -16.5066737231        0.5312153135  LPSA24    1               0.0000000000
     25706       829  ECLIPA    H611R         -42.5542310911      -16.9648898574        0.5735373188  LPSA24    1               0.0000000000
     25707       829  ECLIPA    H611S         -41.8442739985      -15.4828248533        0.3609598123  LPSA24    1               0.0000000000
     25708       829  ECLIPA    C612          -40.6296937268      -16.9916943078       -0.5788949292  LPSA24    1               0.0000000000
     25709       829  ECLIPA    H612R         -39.7242079783      -16.3225012997       -0.6060949542  LPSA24    1               0.0000000000
     25710       829  ECLIPA    H612S         -40.2339878676      -17.9797993050       -0.3132441764  LPSA24    1               0.0000000000
     25711       829  ECLIPA    H612T         -41.1175408565      -16.9683784780       -1.5574606966  LPSA24    1               0.0000000000
     25712       829  ECLIPA    C54           -35.0498073084      -16.7228203014       11.1776054589  LPSA24    1               0.0000000000
     25713       829  ECLIPA    H54R          -34.5000560567      -17.6671977413       10.8869876633  LPSA24    1               0.0000000000
     25714       829  ECLIPA    H54S          -34.4242713603      -16.2591887161       11.9574517429  LPSA24    1               0.0000000000
     25715       829  ECLIPA    C55           -34.9930013474      -15.7674489331        9.9916770240  LPSA24    1               0.0000000000
     25716       829  ECLIPA    H55R          -33.9873423189      -15.3358837738        9.7856946516  LPSA24    1               0.0000000000
     25717       829  ECLIPA    H55S          -35.6804451403      -14.8833032462       10.2436295858  LPSA24    1               0.0000000000
     25718       829  ECLIPA    C56           -35.3200289826      -16.5559442136        8.7515486822  LPSA24    1               0.0000000000
     25719       829  ECLIPA    H56R          -36.3584784241      -17.0006093647        8.8382497819  LPSA24    1               0.0000000000
     25720       829  ECLIPA    H56S          -34.6712135960      -17.3310399404        8.4741334449  LPSA24    1               0.0000000000
     25721       829  ECLIPA    C57           -35.5835061214      -15.7245754704        7.4395707935  LPSA24    1               0.0000000000
     25722       829  ECLIPA    H57R          -34.7558774395      -15.0609790975        7.1827428724  LPSA24    1               0.0000000000
     25723       829  ECLIPA    H57S          -36.4581472974      -15.0448075315        7.5196553379  LPSA24    1               0.0000000000
     25724       829  ECLIPA    C58           -35.9439455722      -16.6865797852        6.2350750625  LPSA24    1               0.0000000000
     25725       829  ECLIPA    H58R          -35.2580471305      -17.5781620101        6.2095761879  LPSA24    1               0.0000000000
     25726       829  ECLIPA    H58S          -36.9034005214      -17.1978478936        6.5224540661  LPSA24    1               0.0000000000
     25727       829  ECLIPA    C59           -35.8718576704      -15.9525880741        4.8667186835  LPSA24    1               0.0000000000
     25728       829  ECLIPA    H59R          -34.8755276254      -15.5227860879        4.6589989540  LPSA24    1               0.0000000000
     25729       829  ECLIPA    H59S          -36.6264402635      -15.1707935824        5.0825555512  LPSA24    1               0.0000000000
     25730       829  ECLIPA    C510          -36.0792688232      -16.9053383906        3.6752379292  LPSA24    1               0.0000000000
     25731       829  ECLIPA    H510R         -36.9394175043      -17.6499352704        3.7937959224  LPSA24    1               0.0000000000
     25732       829  ECLIPA    H510S         -35.1169797551      -17.5572094221        3.4613250382  LPSA24    1               0.0000000000
     25733       829  ECLIPA    C511          -36.3018728325      -16.2403893553        2.3004848829  LPSA24    1               0.0000000000
     25734       829  ECLIPA    H511R         -37.3676817181      -15.9432198490        2.2679211996  LPSA24    1               0.0000000000
     25735       829  ECLIPA    H511S         -35.7234420346      -15.2770257635        2.1940961976  LPSA24    1               0.0000000000
     25736       829  ECLIPA    C512          -36.0638122177      -17.1209532429        1.0189424135  LPSA24    1               0.0000000000
     25737       829  ECLIPA    H512R         -36.0374018050      -16.4716525145        0.0815295424  LPSA24    1               0.0000000000
     25738       829  ECLIPA    H512S         -35.1089211673      -17.6528105236        1.1129704346  LPSA24    1               0.0000000000
     25739       829  ECLIPA    C513          -37.2619898709      -18.1070589793        0.6457389972  LPSA24    1               0.0000000000
     25740       829  ECLIPA    H513R         -38.2327175141      -17.5387144049        0.5010832175  LPSA24    1               0.0000000000
     25741       829  ECLIPA    H513S         -37.4361179082      -18.7679713329        1.4088770719  LPSA24    1               0.0000000000
     25742       829  ECLIPA    C514          -36.9879521914      -18.8078822303       -0.6567184026  LPSA24    1               0.0000000000
     25743       829  ECLIPA    H514R         -36.0240975907      -19.3155854607       -0.6273993866  LPSA24    1               0.0000000000
     25744       829  ECLIPA    H514S         -37.7386399950      -19.5999655246       -0.7024724270  LPSA24    1               0.0000000000
     25745       829  ECLIPA    H514T         -37.0217594346      -18.0745887793       -1.5427815912  LPSA24    1               0.0000000000
     25746       829  ECLIPA    C33           -40.4573557394      -19.5914413144       14.4880792826  LPSA24    1               0.0000000000
     25747       829  ECLIPA    H33R          -40.9012902115      -20.5648128417       14.8828993596  LPSA24    1               0.0000000000
     25748       829  ECLIPA    O33           -39.5591183097      -19.1083075745       15.4699768821  LPSA24    1               0.0000000000
     25749       829  ECLIPA    HO33          -39.9604836599      -19.1970406019       16.2926205744  LPSA24    1               0.0000000000
     25750       829  ECLIPA    C34           -39.6329836404      -19.9568843174       13.2255459338  LPSA24    1               0.0000000000
     25751       829  ECLIPA    H34R          -39.2046602825      -19.0555464159       12.8010908313  LPSA24    1               0.0000000000
     25752       829  ECLIPA    H34S          -40.3315117620      -20.3230207215       12.3772221142  LPSA24    1               0.0000000000
     25753       829  ECLIPA    C35           -38.4946820637      -20.9740243920       13.4256256262  LPSA24    1               0.0000000000
     25754       829  ECLIPA    H35R          -38.9407251647      -21.9283133320       13.6963698038  LPSA24    1               0.0000000000
     25755       829  ECLIPA    H35S          -37.8716106546      -20.6437800235       14.2668166019  LPSA24    1               0.0000000000
     25756       829  ECLIPA    C36           -37.6488248310      -21.3320301325       12.1865608177  LPSA24    1               0.0000000000
     25757       829  ECLIPA    H36R          -37.6917317093      -20.3159593247       11.7430812241  LPSA24    1               0.0000000000
     25758       829  ECLIPA    H36S          -38.1043674393      -22.0947470946       11.4785220412  LPSA24    1               0.0000000000
     25759       829  ECLIPA    C37           -36.1878666026      -21.5603656000       12.5255831563  LPSA24    1               0.0000000000
     25760       829  ECLIPA    H37R          -36.1204208441      -22.7308870205       12.6765215637  LPSA24    1               0.0000000000
     25761       829  ECLIPA    H37S          -35.9135434831      -21.1444648888       13.5128993321  LPSA24    1               0.0000000000
     25762       829  ECLIPA    C38           -35.1558402848      -21.1684730724       11.4317274953  LPSA24    1               0.0000000000
     25763       829  ECLIPA    H38R          -34.9349630639      -20.0884080474       11.4067421357  LPSA24    1               0.0000000000
     25764       829  ECLIPA    H38S          -34.1891322080      -21.6176446147       11.7230999881  LPSA24    1               0.0000000000
     25765       829  ECLIPA    C39           -35.6415411674      -21.5598832905       10.0213367345  LPSA24    1               0.0000000000
     25766       829  ECLIPA    H39R          -36.6527267857      -21.1197619124        9.8128797222  LPSA24    1               0.0000000000
     25767       829  ECLIPA    H39S          -35.5942044376      -22.6800099578        9.9697980947  LPSA24    1               0.0000000000
     25768       829  ECLIPA    C310          -34.7278204131      -21.1696387799        8.8401719124  LPSA24    1               0.0000000000
     25769       829  ECLIPA    H310R         -33.7695745138      -21.7716625693        9.0626900142  LPSA24    1               0.0000000000
     25770       829  ECLIPA    H310S         -34.4879621825      -20.0676291301        8.8945759064  LPSA24    1               0.0000000000
     25771       829  ECLIPA    C311          -35.4382806263      -21.2405670039        7.5676235846  LPSA24    1               0.0000000000
     25772       829  ECLIPA    H311R         -36.1223915083      -22.1267950532        7.5507520616  LPSA24    1               0.0000000000
     25773       829  ECLIPA    H311S         -36.0677698719      -20.3409821369        7.2851462164  LPSA24    1               0.0000000000
     25774       829  ECLIPA    C312          -34.5183079767      -21.2963999163        6.3280121142  LPSA24    1               0.0000000000
     25775       829  ECLIPA    H312R         -33.6014210437      -20.6742988463        6.4861373960  LPSA24    1               0.0000000000
     25776       829  ECLIPA    H312S         -34.2142100801      -22.3632854577        6.1820758986  LPSA24    1               0.0000000000
     25777       829  ECLIPA    C313          -35.1923146646      -20.8511870679        4.9895779706  LPSA24    1               0.0000000000
     25778       829  ECLIPA    H313R         -35.8455803840      -21.6416158297        4.7825120466  LPSA24    1               0.0000000000
     25779       829  ECLIPA    H313S         -35.7998310282      -19.9182405425        5.1572698764  LPSA24    1               0.0000000000
     25780       829  ECLIPA    C314          -34.3004534383      -20.6345913766        3.8116661598  LPSA24    1               0.0000000000
     25781       829  ECLIPA    H314R         -33.7247927383      -21.5779951843        3.6067793993  LPSA24    1               0.0000000000
     25782       829  ECLIPA    H314S         -34.7943846569      -20.3310029000        2.8849361441  LPSA24    1               0.0000000000
     25783       829  ECLIPA    H314T         -33.5065945943      -19.8413115924        4.0446347774  LPSA24    1               0.0000000000
     25784       829  ECLIPA    C11           -39.5297014767      -13.8509247620       11.2900808200  LPSA24    1               0.0000000000
     25785       829  ECLIPA    O11           -38.3149738684      -13.8052578711       11.1394597694  LPSA24    1               0.0000000000
     25786       829  ECLIPA    C12           -40.3722438354      -13.0103627383       10.2853014675  LPSA24    1               0.0000000000
     25787       829  ECLIPA    H12R          -40.2657401025      -11.9136490964       10.4852637814  LPSA24    1               0.0000000000
     25788       829  ECLIPA    H12S          -41.4213040471      -13.3310173084       10.5222272274  LPSA24    1               0.0000000000
     25789       829  ECLIPA    C13           -40.0900807629      -13.2673676395        8.8110583416  LPSA24    1               0.0000000000
     25790       829  ECLIPA    H13R          -38.9600941814      -13.3381395901        8.5839874118  LPSA24    1               0.0000000000
     25791       829  ECLIPA    O13           -40.5892517314      -12.0861835776        8.1311342176  LPSA24    1               0.0000000000
     25792       829  ECLIPA    HO13          -40.1515461667      -11.9821285299        7.3064966676  LPSA24    1               0.0000000000
     25793       829  ECLIPA    C14           -40.7461562279      -14.5818160690        8.4581579993  LPSA24    1               0.0000000000
     25794       829  ECLIPA    H14R          -41.7680739577      -14.7138422821        8.9706443184  LPSA24    1               0.0000000000
     25795       829  ECLIPA    H14S          -40.0306197572      -15.3875199463        8.7243868424  LPSA24    1               0.0000000000
     25796       829  ECLIPA    C15           -41.0173388558      -14.7622651472        6.9526486677  LPSA24    1               0.0000000000
     25797       829  ECLIPA    H15R          -41.5484687792      -13.9159050988        6.5500123177  LPSA24    1               0.0000000000
     25798       829  ECLIPA    H15S          -41.5954164541      -15.6847732697        6.8782608049  LPSA24    1               0.0000000000
     25799       829  ECLIPA    C16           -39.6892917766      -14.8709333484        6.1622847334  LPSA24    1               0.0000000000
     25800       829  ECLIPA    H16R          -39.2218119359      -15.9166165612        6.2733383262  LPSA24    1               0.0000000000
     25801       829  ECLIPA    H16S          -38.9282799454      -14.2968440157        6.7182496574  LPSA24    1               0.0000000000
     25802       829  ECLIPA    C17           -39.8419938721      -14.5367759279        4.6801229578  LPSA24    1               0.0000000000
     25803       829  ECLIPA    H17R          -40.7917743589      -15.0991643587        4.4246758429  LPSA24    1               0.0000000000
     25804       829  ECLIPA    H17S          -39.0686581845      -14.9171229922        4.0046542873  LPSA24    1               0.0000000000
     25805       829  ECLIPA    C18           -39.9926282374      -13.0576530293        4.4504458171  LPSA24    1               0.0000000000
     25806       829  ECLIPA    H18R          -40.8026229613      -12.8180425864        5.0865821920  LPSA24    1               0.0000000000
     25807       829  ECLIPA    H18S          -39.0351086986      -12.5584678612        4.7749867078  LPSA24    1               0.0000000000
     25808       829  ECLIPA    C19           -40.2892060063      -12.7236674457        3.0097966450  LPSA24    1               0.0000000000
     25809       829  ECLIPA    H19R          -40.5103583262      -11.6690637767        2.9245509529  LPSA24    1               0.0000000000
     25810       829  ECLIPA    H19S          -41.1684847216      -13.3377555822        2.6238151240  LPSA24    1               0.0000000000
     25811       829  ECLIPA    C110          -39.0562169971      -12.9642785681        2.1045801788  LPSA24    1               0.0000000000
     25812       829  ECLIPA    H110R         -38.1253629011      -12.5052645087        2.4416701971  LPSA24    1               0.0000000000
     25813       829  ECLIPA    H110S         -39.0000549997      -14.0738087742        2.1583327743  LPSA24    1               0.0000000000
     25814       829  ECLIPA    C111          -39.3898392485      -12.5423481534        0.7563571155  LPSA24    1               0.0000000000
     25815       829  ECLIPA    H111R         -40.4152967688      -12.8405106681        0.3999767799  LPSA24    1               0.0000000000
     25816       829  ECLIPA    H111S         -39.4351203086      -11.4851251566        0.7977177860  LPSA24    1               0.0000000000
     25817       829  ECLIPA    C112          -38.3332663698      -12.9197548416       -0.2937360943  LPSA24    1               0.0000000000
     25818       829  ECLIPA    H112R         -37.4394312028      -12.4534632796        0.1973446929  LPSA24    1               0.0000000000
     25819       829  ECLIPA    H112S         -38.0606352912      -13.9753921317       -0.2177998937  LPSA24    1               0.0000000000
     25820       829  ECLIPA    C113          -38.7702015212      -12.6727609583       -1.7468031795  LPSA24    1               0.0000000000
     25821       829  ECLIPA    H113R         -39.6043452551      -13.3741230144       -1.9802017524  LPSA24    1               0.0000000000
     25822       829  ECLIPA    H113S         -39.2289238846      -11.6845674231       -1.8531093719  LPSA24    1               0.0000000000
     25823       829  ECLIPA    C114          -37.7259432406      -12.6622108853       -2.8344928043  LPSA24    1               0.0000000000
     25824       829  ECLIPA    H114R         -36.8266808703      -12.0545081506       -2.7829422503  LPSA24    1               0.0000000000
     25825       829  ECLIPA    H114S         -37.3433671524      -13.7088741337       -2.9951089580  LPSA24    1               0.0000000000
     25826       829  ECLIPA    H114T         -38.1530554737      -12.1886554354       -3.7399523103  LPSA24    1               0.0000000000
     25827       830  AKDO      C1            -35.2537653394      -18.2000727340       22.4410509549  LPSA24    2               0.0000000000
     25828       830  AKDO      O11           -34.0415098685      -18.6040196343       22.4913720772  LPSA24    2               0.0000000000
     25829       830  AKDO      O12           -36.3015277234      -18.8061294873       22.0800765534  LPSA24    2               0.0000000000
     25830       830  AKDO      C2            -35.4702998565      -16.7519227234       22.8913181237  LPSA24    2               0.0000000000
     25831       830  AKDO      C6            -34.3241054051      -14.8927654633       23.8039205188  LPSA24    2               0.0000000000
     25832       830  AKDO      H6            -34.5566849098      -14.3138210567       22.9487387861  LPSA24    2               0.0000000000
     25833       830  AKDO      O6            -34.2630871898      -16.3269330210       23.4267274814  LPSA24    2               0.0000000000
     25834       830  AKDO      C3            -36.4852319884      -16.6177158777       23.9587385105  LPSA24    2               0.0000000000
     25835       830  AKDO      H31           -36.3449357567      -17.2453322983       24.7868435866  LPSA24    2               0.0000000000
     25836       830  AKDO      H32           -37.5252700527      -16.8349814521       23.4151264596  LPSA24    2               0.0000000000
     25837       830  AKDO      C4            -36.6014806552      -15.1566817069       24.3842593775  LPSA24    2               0.0000000000
     25838       830  AKDO      H4            -36.7844641608      -14.4941569013       23.5563617270  LPSA24    2               0.0000000000
     25839       830  AKDO      O4            -37.6482187111      -15.0248900806       25.3355834555  LPSA24    2               0.0000000000
     25840       830  AKDO      C5            -35.3560088984      -14.6184100904       24.9292437177  LPSA24    2               0.0000000000
     25841       830  AKDO      H5            -35.4109375662      -13.5008043087       25.0107888161  LPSA24    2               0.0000000000
     25842       830  AKDO      O5            -35.0709324024      -15.3283092061       26.2083878813  LPSA24    2               0.0000000000
     25843       830  AKDO      C7            -32.8912337563      -14.3066520142       24.1981149098  LPSA24    2               0.0000000000
     25844       830  AKDO      H7            -32.5531214904      -14.8236839060       25.0939202098  LPSA24    2               0.0000000000
     25845       830  AKDO      O7            -32.9213794410      -12.8627078840       24.3482682347  LPSA24    2               0.0000000000
     25846       830  AKDO      HO7           -32.9382793454      -12.5233386833       23.4945166536  LPSA24    2               0.0000000000
     25847       830  AKDO      C8            -31.9506133786      -14.6266237364       22.9864433882  LPSA24    2               0.0000000000
     25848       830  AKDO      H81           -31.9644613523      -15.7406121414       22.9153150275  LPSA24    2               0.0000000000
     25849       830  AKDO      H82           -32.3959333836      -14.0803172683       22.0745354517  LPSA24    2               0.0000000000
     25850       830  AKDO      O8            -30.5812703550      -14.1726054779       23.3537996748  LPSA24    2               0.0000000000
     25851       830  AKDO      HO8           -29.9314856261      -14.7830185063       22.9179804014  LPSA24    2               0.0000000000
     25852       831  AKDO      C1            -39.1107216527      -13.9598048482       23.8027969005  LPSA24    3               1.0000000000
     25853       831  AKDO      O11           -39.2604422672      -14.4594369947       22.6471489042  LPSA24    3               1.0000000000
     25854       831  AKDO      O12           -39.0524991905      -12.7349594282       24.0656860145  LPSA24    3               1.0000000000
     25855       831  AKDO      C2            -39.0157909718      -14.8732378830       25.0166033796  LPSA24    3               1.0000000000
     25856       831  AKDO      C6            -39.4273009666      -17.1191634980       25.7688829792  LPSA24    3               1.0000000000
     25857       831  AKDO      H6            -38.3213448884      -17.2865606761       25.9810553331  LPSA24    3               1.0000000000
     25858       831  AKDO      O6            -39.5784303789      -16.1961546293       24.7076657818  LPSA24    3               1.0000000000
     25859       831  AKDO      C3            -39.6771328708      -14.3477908611       26.3187707743  LPSA24    3               1.0000000000
     25860       831  AKDO      H31           -40.8236405382      -14.2092529134       26.1504935106  LPSA24    3               1.0000000000
     25861       831  AKDO      H32           -39.2753298149      -13.3625772373       26.5929217108  LPSA24    3               1.0000000000
     25862       831  AKDO      C4            -39.4532283199      -15.3701128316       27.4036122013  LPSA24    3               1.0000000000
     25863       831  AKDO      H4            -38.3855694866      -15.6101593087       27.4051754129  LPSA24    3               1.0000000000
     25864       831  AKDO      O4            -39.8061325875      -14.9797279498       28.7388570077  LPSA24    3               1.0000000000
     25865       831  AKDO      HO4           -39.0995808068      -15.0200928459       29.3717785514  LPSA24    3               1.0000000000
     25866       831  AKDO      C5            -40.0525103739      -16.5972435279       27.0369167275  LPSA24    3               1.0000000000
     25867       831  AKDO      H5            -39.9532453705      -17.3303070586       27.9236884022  LPSA24    3               1.0000000000
     25868       831  AKDO      O5            -41.4708776008      -16.4337227796       26.8495261943  LPSA24    3               1.0000000000
     25869       831  AKDO      HO5           -41.6332036452      -15.7927320560       26.1887877298  LPSA24    3               1.0000000000
     25870       831  AKDO      C7            -40.0495564654      -18.4195750899       25.3258859863  LPSA24    3               1.0000000000
     25871       831  AKDO      H7            -41.1559339688      -18.3037652790       25.1324849511  LPSA24    3               1.0000000000
     25872       831  AKDO      O7            -39.8304287390      -19.4117289852       26.3661029982  LPSA24    3               1.0000000000
     25873       831  AKDO      HO7           -40.3747893867      -20.2020618514       26.1647669547  LPSA24    3               1.0000000000
     25874       831  AKDO      C8            -39.2919772384      -18.8879212636       24.1539635864  LPSA24    3               1.0000000000
     25875       831  AKDO      H81           -39.3483415582      -18.1510687918       23.3419478721  LPSA24    3               1.0000000000
     25876       831  AKDO      H82           -38.2237343043      -19.1171063202       24.2853144505  LPSA24    3               1.0000000000
     25877       831  AKDO      O8            -39.8679260354      -20.0737887830       23.6541307456  LPSA24    3               1.0000000000
     25878       831  AKDO      HO8           -40.6449751259      -19.6465099400       23.2473452835  LPSA24    3               1.0000000000
     25879       832  AHEP      C1            -34.4728815457      -14.6161769451       27.2793229502  LPSA24    4               2.0000000000
     25880       832  AHEP      H1            -33.4205038553      -14.6990229072       26.8517192453  LPSA24    4               2.0000000000
     25881       832  AHEP      C5            -36.0095183914      -12.8943968351       28.0185271385  LPSA24    4               2.0000000000
     25882       832  AHEP      H5            -36.7946529446      -13.6139109730       27.5619054335  LPSA24    4               2.0000000000
     25883       832  AHEP      O5            -34.7713514410      -13.2228103696       27.3942805697  LPSA24    4               2.0000000000
     25884       832  AHEP      C2            -34.3775193501      -15.1580198690       28.6827861277  LPSA24    4               2.0000000000
     25885       832  AHEP      H2            -34.1954607535      -16.2366623822       28.7442425996  LPSA24    4               2.0000000000
     25886       832  AHEP      O2            -33.3251701312      -14.5505364644       29.3407203943  LPSA24    4               2.0000000000
     25887       832  AHEP      HO2           -32.8646440148      -15.1897133766       29.8507927467  LPSA24    4               2.0000000000
     25888       832  AHEP      C3            -35.6619771154      -14.8693324845       29.4857672188  LPSA24    4               2.0000000000
     25889       832  AHEP      H3            -36.5395991330      -15.4775369759       29.2269906369  LPSA24    4               2.0000000000
     25890       832  AHEP      O3            -35.4776607052      -15.2061182754       30.7882097304  LPSA24    4               2.0000000000
     25891       832  AHEP      C4            -35.9450144718      -13.3893224381       29.4546205599  LPSA24    4               2.0000000000
     25892       832  AHEP      H4            -35.1983865710      -12.7418033541       29.9788637739  LPSA24    4               2.0000000000
     25893       832  AHEP      O4            -37.2036214856      -13.1558893879       30.0145912217  LPSA24    4               2.0000000000
     25894       832  AHEP      P4            -37.4051547482      -12.4337874273       31.4978499249  LPSA24    4               2.0000000000
     25895       832  AHEP      OP42          -38.5948168105      -13.0120753367       32.1560374192  LPSA24    4               2.0000000000
     25896       832  AHEP      OP43          -37.6201644338      -11.0212996280       31.0397938518  LPSA24    4               2.0000000000
     25897       832  AHEP      OP44          -36.0757031691      -12.5294696079       32.3098937101  LPSA24    4               2.0000000000
     25898       832  AHEP      C6            -36.3888866732      -11.3858351408       27.7982482844  LPSA24    4               2.0000000000
     25899       832  AHEP      H6            -37.4816488385      -11.3025831392       28.0833143566  LPSA24    4               2.0000000000
     25900       832  AHEP      O6            -35.6056503735      -10.6115364492       28.7103505027  LPSA24    4               2.0000000000
     25901       832  AHEP      HO6           -36.1609204816       -9.9629161162       29.2203787365  LPSA24    4               2.0000000000
     25902       832  AHEP      C7            -36.2362145263      -10.9032917439       26.3054198206  LPSA24    4               2.0000000000
     25903       832  AHEP      H71           -36.6783828803       -9.8623069449       26.1576126064  LPSA24    4               2.0000000000
     25904       832  AHEP      H72           -36.6403963558      -11.6858039369       25.6323487339  LPSA24    4               2.0000000000
     25905       832  AHEP      O7            -34.8592516933      -10.7463584957       25.9755159574  LPSA24    4               2.0000000000
     25906       832  AHEP      HO7           -34.5693230145       -9.8890482086       26.3256794122  LPSA24    4               2.0000000000
     25907       833  AHEP      C1            -36.3037642642      -16.2013402205       31.4342177374  LPSA24    5               3.0000000000
     25908       833  AHEP      H1            -37.3282891688      -16.2402104936       30.9794447437  LPSA24    5               3.0000000000
     25909       833  AHEP      C5            -34.4548944237      -17.6244472522       31.9165413065  LPSA24    5               3.0000000000
     25910       833  AHEP      H5            -33.8212685013      -16.7266640818       31.6031509785  LPSA24    5               3.0000000000
     25911       833  AHEP      O5            -35.7289737860      -17.5142829725       31.3013865768  LPSA24    5               3.0000000000
     25912       833  AHEP      C2            -36.4968067240      -15.9780459985       32.9718957084  LPSA24    5               3.0000000000
     25913       833  AHEP      H2            -36.8870218416      -14.9163951699       33.0921707216  LPSA24    5               3.0000000000
     25914       833  AHEP      O2            -37.4690754761      -16.8784249594       33.4691025827  LPSA24    5               3.0000000000
     25915       833  AHEP      HO2           -38.2850141798      -16.4189441550       33.6403503244  LPSA24    5               3.0000000000
     25916       833  AHEP      C3            -35.1388470155      -16.0507373497       33.7004304811  LPSA24    5               3.0000000000
     25917       833  AHEP      H3            -34.4618789018      -15.2694691443       33.3375632548  LPSA24    5               3.0000000000
     25918       833  AHEP      O3            -35.1782342026      -15.8865553693       35.1462238331  LPSA24    5               3.0000000000
     25919       833  AHEP      C4            -34.5927508363      -17.4148119852       33.4524658705  LPSA24    5               3.0000000000
     25920       833  AHEP      H4            -35.2764052352      -18.2189890212       33.8188816395  LPSA24    5               3.0000000000
     25921       833  AHEP      O4            -33.2786166168      -17.4974813114       34.0881196202  LPSA24    5               3.0000000000
     25922       833  AHEP      P4            -33.0155843837      -18.5221253632       35.2810123301  LPSA24    5               3.0000000000
     25923       833  AHEP      OP42          -31.6468495822      -18.1795896005       35.8202965042  LPSA24    5               3.0000000000
     25924       833  AHEP      OP43          -33.0433268465      -19.9212372771       34.6107506294  LPSA24    5               3.0000000000
     25925       833  AHEP      OP44          -34.1657368289      -18.3748477810       36.2417033353  LPSA24    5               3.0000000000
     25926       833  AHEP      C6            -33.7093116868      -18.9167219892       31.5493607386  LPSA24    5               3.0000000000
     25927       833  AHEP      H6            -32.6831776855      -18.9275181631       31.9533288164  LPSA24    5               3.0000000000
     25928       833  AHEP      O6            -34.4167751231      -20.0491777168       32.0428602265  LPSA24    5               3.0000000000
     25929       833  AHEP      HO6           -35.2301076904      -20.3138557165       31.5367188277  LPSA24    5               3.0000000000
     25930       833  AHEP      C7            -33.4422954817      -18.9493463362       30.0822725317  LPSA24    5               3.0000000000
     25931       833  AHEP      H71           -32.4771020169      -19.4764538459       29.9169108581  LPSA24    5               3.0000000000
     25932       833  AHEP      H72           -33.3471555931      -17.9498345744       29.6179339851  LPSA24    5               3.0000000000
     25933       833  AHEP      O7            -34.4564780337      -19.7922142908       29.4957736452  LPSA24    5               3.0000000000
     25934       834  AHEP      C1            -35.4382705153      -19.0920716192       28.7926622005  LPSA24    6               4.0000000000
     25935       834  AHEP      H1            -35.3869199254      -17.9756989692       29.0422981953  LPSA24    6               4.0000000000
     25936       834  AHEP      C5            -35.3339242637      -20.5730574131       26.9237617191  LPSA24    6               4.0000000000
     25937       834  AHEP      H5            -34.5927334818      -21.1619006856       27.4818042043  LPSA24    6               4.0000000000
     25938       834  AHEP      O5            -35.2919858651      -19.2035641289       27.3547530115  LPSA24    6               4.0000000000
     25939       834  AHEP      C2            -36.7903845513      -19.5743728806       29.2397872647  LPSA24    6               4.0000000000
     25940       834  AHEP      H2            -36.8605475663      -19.3770508072       30.3523091474  LPSA24    6               4.0000000000
     25941       834  AHEP      O2            -37.8379887132      -18.7924939087       28.7267108980  LPSA24    6               4.0000000000
     25942       834  AHEP      HO2           -38.1510075685      -18.3103292406       29.4669064354  LPSA24    6               4.0000000000
     25943       834  AHEP      C3            -36.9145100486      -21.0678863818       28.8468391403  LPSA24    6               4.0000000000
     25944       834  AHEP      H3            -36.1627392446      -21.6128495915       29.4311808254  LPSA24    6               4.0000000000
     25945       834  AHEP      O3            -38.2417129041      -21.6833810780       29.2225362108  LPSA24    6               4.0000000000
     25946       834  AHEP      HO3           -38.2651186919      -22.1932849229       29.9865592523  LPSA24    6               4.0000000000
     25947       834  AHEP      C4            -36.7111993976      -21.1391061088       27.2761740859  LPSA24    6               4.0000000000
     25948       834  AHEP      H4            -37.5679079859      -20.6892386717       26.7944950683  LPSA24    6               4.0000000000
     25949       834  AHEP      O4            -36.7767393008      -22.4896657234       26.7938835778  LPSA24    6               4.0000000000
     25950       834  AHEP      HO4           -35.8977674665      -22.8917343669       27.1589530594  LPSA24    6               4.0000000000
     25951       834  AHEP      C6            -34.9320615302      -20.7567541973       25.4906533340  LPSA24    6               4.0000000000
     25952       834  AHEP      H6            -34.9103557637      -21.8310981601       25.3442628137  LPSA24    6               4.0000000000
     25953       834  AHEP      O6            -35.9881885672      -20.3110469923       24.6375675438  LPSA24    6               4.0000000000
     25954       834  AHEP      HO6           -35.6704206714      -19.6672398286       23.9977784313  LPSA24    6               4.0000000000
     25955       834  AHEP      C7            -33.5564100936      -20.2430932953       25.1799756221  LPSA24    6               4.0000000000
     25956       834  AHEP      H71           -33.2991198682      -20.5842924782       24.1408078076  LPSA24    6               4.0000000000
     25957       834  AHEP      H72           -32.8849106327      -20.7056123182       25.9252229174  LPSA24    6               4.0000000000
     25958       834  AHEP      O7            -33.4362781636      -18.8531041836       25.2517430265  LPSA24    6               4.0000000000
     25959       834  AHEP      HO7           -33.2760714920      -18.6755091171       26.2011285002  LPSA24    6               4.0000000000
     25960       835  AGLC      C1            -35.1048194948      -14.5614658581       35.6520976122  LPSA24    7               4.0000000000
     25961       835  AGLC      H1            -34.1868904332      -14.0450813475       35.2047739589  LPSA24    7               4.0000000000
     25962       835  AGLC      C5            -37.4039441335      -14.2808056087       36.0987679218  LPSA24    7               4.0000000000
     25963       835  AGLC      H5            -37.6153312986      -15.3264845623       35.8327124756  LPSA24    7               4.0000000000
     25964       835  AGLC      O5            -36.2722054127      -13.8222345936       35.4366254460  LPSA24    7               4.0000000000
     25965       835  AGLC      C2            -34.8912124581      -14.5528995408       37.1582745954  LPSA24    7               4.0000000000
     25966       835  AGLC      H2            -34.9154793107      -13.4527632255       37.4887389927  LPSA24    7               4.0000000000
     25967       835  AGLC      O2            -33.5438783866      -14.9301446337       37.5024056006  LPSA24    7               4.0000000000
     25968       835  AGLC      HO2           -33.5762474407      -15.8737107535       37.6430208865  LPSA24    7               4.0000000000
     25969       835  AGLC      C3            -35.9710136616      -15.0447743075       37.9903802326  LPSA24    7               4.0000000000
     25970       835  AGLC      H3            -36.0958282792      -16.0807401847       37.6727250444  LPSA24    7               4.0000000000
     25971       835  AGLC      O3            -35.7171906119      -15.1569097483       39.4204481292  LPSA24    7               4.0000000000
     25972       835  AGLC      C4            -37.1380516345      -14.1888107048       37.5928595998  LPSA24    7               4.0000000000
     25973       835  AGLC      H4            -36.9819916873      -13.1069692317       37.9560286200  LPSA24    7               4.0000000000
     25974       835  AGLC      O4            -38.2816266674      -14.8038535574       38.2243117391  LPSA24    7               4.0000000000
     25975       835  AGLC      HO4           -38.8706396071      -14.1934073399       38.6132003238  LPSA24    7               4.0000000000
     25976       835  AGLC      C6            -38.6644996349      -13.5869241189       35.5245160098  LPSA24    7               4.0000000000
     25977       835  AGLC      H61           -38.6206585257      -13.7212308671       34.4135318240  LPSA24    7               4.0000000000
     25978       835  AGLC      H62           -39.6584368073      -13.9412175250       35.8722646349  LPSA24    7               4.0000000000
     25979       835  AGLC      O6            -38.4887093606      -12.1468545217       35.6892983147  LPSA24    7               4.0000000000
     25980       835  AGLC      HO6           -39.0069470121      -12.0215982033       36.4386090630  LPSA24    7               4.0000000000
     25981       836  AGLC      C1            -35.6941151189      -16.4417521989       39.9328324507  LPSA24    8               5.0000000000
     25982       836  AGLC      H1            -36.5807905097      -17.0021111474       39.5884769495  LPSA24    8               5.0000000000
     25983       836  AGLC      C5            -33.2437217322      -16.7241383355       40.2153373402  LPSA24    8               5.0000000000
     25984       836  AGLC      H5            -33.1100069352      -15.7023251949       39.8400606936  LPSA24    8               5.0000000000
     25985       836  AGLC      O5            -34.4794995304      -17.2055655466       39.6195505863  LPSA24    8               5.0000000000
     25986       836  AGLC      C2            -35.8001291103      -16.4237830589       41.4170311384  LPSA24    8               5.0000000000
     25987       836  AGLC      H2            -35.9437338692      -17.5024526510       41.6529594578  LPSA24    8               5.0000000000
     25988       836  AGLC      O2            -36.9959201279      -15.8603673451       41.9438754185  LPSA24    8               5.0000000000
     25989       836  AGLC      C3            -34.6061290145      -15.8995042502       42.1297388169  LPSA24    8               5.0000000000
     25990       836  AGLC      H3            -34.5677882411      -14.8705276886       41.6567950186  LPSA24    8               5.0000000000
     25991       836  AGLC      O3            -34.8630623737      -15.8250336286       43.5370978028  LPSA24    8               5.0000000000
     25992       836  AGLC      C4            -33.4764259243      -16.7405659423       41.7603093222  LPSA24    8               5.0000000000
     25993       836  AGLC      H4            -33.6526602092      -17.7626864523       42.0401368658  LPSA24    8               5.0000000000
     25994       836  AGLC      O4            -32.2953600708      -16.3049680218       42.3914819843  LPSA24    8               5.0000000000
     25995       836  AGLC      HO4           -32.2863282349      -15.3792368128       42.3800652601  LPSA24    8               5.0000000000
     25996       836  AGLC      C6            -31.9404937764      -17.4058094277       39.7357334439  LPSA24    8               5.0000000000
     25997       836  AGLC      H61           -31.8822905726      -17.5479306337       38.6468043611  LPSA24    8               5.0000000000
     25998       836  AGLC      H62           -31.0351704674      -16.9069221017       40.0276014644  LPSA24    8               5.0000000000
     25999       836  AGLC      O6            -31.7113792244      -18.6614727187       40.3040784562  LPSA24    8               5.0000000000
     26000       836  AGLC      HO6           -31.3551883797      -18.6004400744       41.2121845210  LPSA24    8               5.0000000000
     26001       837  AGAL      C1            -38.2314101965      -16.2899671992       41.4573847493  LPSA24    9               6.0000000000
     26002       837  AGAL      H1            -38.2116110388      -16.3337820742       40.3420235153  LPSA24    9               6.0000000000
     26003       837  AGAL      C5            -38.9299580129      -17.6568623963       43.2125447641  LPSA24    9               6.0000000000
     26004       837  AGAL      H5            -38.0223352530      -17.1667006577       43.7424973645  LPSA24    9               6.0000000000
     26005       837  AGAL      O5            -38.6996001374      -17.6185783148       41.8451689838  LPSA24    9               6.0000000000
     26006       837  AGAL      C2            -39.2679207248      -15.2667592362       41.8393925249  LPSA24    9               6.0000000000
     26007       837  AGAL      H2            -40.2190564415      -15.5496325190       41.4115621152  LPSA24    9               6.0000000000
     26008       837  AGAL      O2            -39.0658567206      -14.0127906910       41.1608705954  LPSA24    9               6.0000000000
     26009       837  AGAL      C3            -39.5475126676      -15.2781322354       43.3264191845  LPSA24    9               6.0000000000
     26010       837  AGAL      H3            -38.6043550660      -14.9428010773       43.9424563891  LPSA24    9               6.0000000000
     26011       837  AGAL      O3            -40.4305262133      -14.2831271206       43.7491515633  LPSA24    9               6.0000000000
     26012       837  AGAL      HO3           -40.2814644641      -13.5301740462       43.1585960960  LPSA24    9               6.0000000000
     26013       837  AGAL      C4            -39.9995550560      -16.6453307460       43.6505755014  LPSA24    9               6.0000000000
     26014       837  AGAL      H4            -40.1400245587      -16.8116954685       44.7734818408  LPSA24    9               6.0000000000
     26015       837  AGAL      O4            -41.1975188100      -17.0300264341       43.0499075873  LPSA24    9               6.0000000000
     26016       837  AGAL      HO4           -41.6243865703      -17.6491168744       43.6622427513  LPSA24    9               6.0000000000
     26017       837  AGAL      C6            -38.9507134146      -19.0537059519       43.8349081587  LPSA24    9               6.0000000000
     26018       837  AGAL      H61           -38.0181987157      -19.6441577841       43.6417203355  LPSA24    9               6.0000000000
     26019       837  AGAL      H62           -39.0254819154      -19.0675222681       44.9292747136  LPSA24    9               6.0000000000
     26020       837  AGAL      O6            -40.0581858526      -19.7871133990       43.4062227539  LPSA24    9               6.0000000000
     26021       837  AGAL      HO6           -39.7491390325      -20.3748993960       42.6923548993  LPSA24    9               6.0000000000
     26022       838  AGAL      C1            -39.0467657566      -12.6920924271       41.7517281777  LPSA24    10              7.0000000000
     26023       838  AGAL      H1            -40.1133561298      -12.4463667253       41.8429972083  LPSA24    10              7.0000000000
     26024       838  AGAL      C5            -37.0283756120      -12.6543269986       43.0613392294  LPSA24    10              7.0000000000
     26025       838  AGAL      H5            -36.8469725437      -13.7331775798       42.6233508762  LPSA24    10              7.0000000000
     26026       838  AGAL      O5            -38.4481010344      -12.4110845012       43.0470213554  LPSA24    10              7.0000000000
     26027       838  AGAL      C2            -38.3665578899      -11.7704870100       40.7227968417  LPSA24    10              7.0000000000
     26028       838  AGAL      H2            -38.6612915845      -10.6970585759       41.0433947026  LPSA24    10              7.0000000000
     26029       838  AGAL      O2            -39.0552294094      -11.6671267681       39.5532095562  LPSA24    10              7.0000000000
     26030       838  AGAL      HO2           -39.2318948518      -10.7594199188       39.3379401176  LPSA24    10              7.0000000000
     26031       838  AGAL      C3            -36.8920946095      -11.9604238593       40.6928251787  LPSA24    10              7.0000000000
     26032       838  AGAL      H3            -36.7814990593      -13.0192604783       40.4679648945  LPSA24    10              7.0000000000
     26033       838  AGAL      O3            -36.2050938515      -11.1658134704       39.7732034444  LPSA24    10              7.0000000000
     26034       838  AGAL      HO3           -35.9410448945      -11.7435697187       39.0151094934  LPSA24    10              7.0000000000
     26035       838  AGAL      C4            -36.3395237406      -11.7001787892       42.0524071915  LPSA24    10              7.0000000000
     26036       838  AGAL      H4            -35.2586053687      -11.9326667749       42.1099272557  LPSA24    10              7.0000000000
     26037       838  AGAL      O4            -36.4987564972      -10.3842491274       42.4965010455  LPSA24    10              7.0000000000
     26038       838  AGAL      HO4           -37.4308760868      -10.2825991624       42.5675127347  LPSA24    10              7.0000000000
     26039       838  AGAL      C6            -36.3544405148      -12.6683967825       44.3959537205  LPSA24    10              7.0000000000
     26040       838  AGAL      H61           -36.8570684466      -13.3197075996       45.1044438806  LPSA24    10              7.0000000000
     26041       838  AGAL      H62           -35.2818408515      -13.1763471701       44.2564473849  LPSA24    10              7.0000000000
     26042       838  AGAL      O6            -36.1244370646      -11.4360679045       45.1112340130  LPSA24    10              7.0000000000
     26043       838  AGAL      HO6           -36.6619663625      -11.4583165438       45.9237589285  LPSA24    10              7.0000000000
     26044       839  BGLC      C1            -34.5310031823      -16.8071293811       44.5018065681  LPSA24    11              6.0000000000
     26045       839  BGLC      H1            -33.4610791597      -16.6885131161       44.5883763758  LPSA24    11              6.0000000000
     26046       839  BGLC      C5            -34.6806783909      -19.2294777100       45.1248117688  LPSA24    11              6.0000000000
     26047       839  BGLC      H5            -33.5683720875      -19.3152018429       45.3871201921  LPSA24    11              6.0000000000
     26048       839  BGLC      O5            -34.9824257727      -18.1564825762       44.0830650888  LPSA24    11              6.0000000000
     26049       839  BGLC      C2            -35.2280540116      -16.4796313100       45.7977571702  LPSA24    11              6.0000000000
     26050       839  BGLC      H2            -36.3414519339      -16.3883609052       45.7293388291  LPSA24    11              6.0000000000
     26051       839  BGLC      O2            -34.8282022610      -15.1483245045       46.0886391483  LPSA24    11              6.0000000000
     26052       839  BGLC      HO2           -35.5913336412      -14.6374274871       46.2788110113  LPSA24    11              6.0000000000
     26053       839  BGLC      C3            -34.9966669067      -17.4576361644       46.8736276645  LPSA24    11              6.0000000000
     26054       839  BGLC      H3            -33.8742197015      -17.3885672244       47.1984917368  LPSA24    11              6.0000000000
     26055       839  BGLC      O3            -35.7512394771      -17.0405141982       48.0056213318  LPSA24    11              6.0000000000
     26056       839  BGLC      C4            -35.3899113433      -18.7818800845       46.4390836423  LPSA24    11              6.0000000000
     26057       839  BGLC      H4            -36.5047117619      -18.7142930558       46.2001611147  LPSA24    11              6.0000000000
     26058       839  BGLC      O4            -35.2702188181      -19.7410166895       47.4766894645  LPSA24    11              6.0000000000
     26059       839  BGLC      HO4           -35.9634885573      -19.5686095210       48.1247908570  LPSA24    11              6.0000000000
     26060       839  BGLC      C6            -35.0004103900      -20.6114434531       44.5291127165  LPSA24    11              6.0000000000
     26061       839  BGLC      H61           -35.1377170161      -21.4076322045       45.2481190913  LPSA24    11              6.0000000000
     26062       839  BGLC      H62           -35.9105081783      -20.4837762243       43.8913252379  LPSA24    11              6.0000000000
     26063       839  BGLC      O6            -34.0279765563      -21.0967362980       43.5637942269  LPSA24    11              6.0000000000
     26064       839  BGLC      HO6           -33.6429625267      -21.8165782919       44.0054369298  LPSA24    11              6.0000000000
     26065       840  BGLCNA    C1            -35.1738594448      -16.8992963316       49.3238540420  LPSA24    12              7.0000000000
     26066       840  BGLCNA    H1            -34.7321835395      -15.8480553202       49.3874222992  LPSA24    12              7.0000000000
     26067       840  BGLCNA    C5            -33.5033035902      -17.6379471598       50.8763077070  LPSA24    12              7.0000000000
     26068       840  BGLCNA    H5            -33.0442270764      -16.5547309644       50.9814236466  LPSA24    12              7.0000000000
     26069       840  BGLCNA    O5            -34.1300510862      -17.8634157157       49.5875345322  LPSA24    12              7.0000000000
     26070       840  BGLCNA    C2            -36.2651787660      -17.0875888511       50.3245054808  LPSA24    12              7.0000000000
     26071       840  BGLCNA    H2            -36.5070926292      -18.2341587284       50.3375086743  LPSA24    12              7.0000000000
     26072       840  BGLCNA    N             -37.3933456260      -16.1811875615       50.0347611965  LPSA24    12              7.0000000000
     26073       840  BGLCNA    HN            -37.0594111294      -15.2982313465       49.9972643287  LPSA24    12              7.0000000000
     26074       840  BGLCNA    C             -38.5999494077      -16.6384218569       49.8903426450  LPSA24    12              7.0000000000
     26075       840  BGLCNA    O             -38.8298173480      -17.8235868818       50.0855928044  LPSA24    12              7.0000000000
     26076       840  BGLCNA    CT            -39.6682758992      -15.6384217092       49.5677689528  LPSA24    12              7.0000000000
     26077       840  BGLCNA    HT1           -40.3951624447      -15.5229097454       50.3918503408  LPSA24    12              7.0000000000
     26078       840  BGLCNA    HT2           -40.3612102527      -16.0585349566       48.7104760971  LPSA24    12              7.0000000000
     26079       840  BGLCNA    HT3           -39.1442504293      -14.7096394181       49.2316245990  LPSA24    12              7.0000000000
     26080       840  BGLCNA    C3            -35.7627986824      -16.8624281062       51.6995695120  LPSA24    12              7.0000000000
     26081       840  BGLCNA    H3            -35.4261932037      -15.7367593290       51.8605307917  LPSA24    12              7.0000000000
     26082       840  BGLCNA    O3            -36.7844281007      -16.9802733445       52.7272334264  LPSA24    12              7.0000000000
     26083       840  BGLCNA    C4            -34.6385477835      -17.8138699482       51.9591692987  LPSA24    12              7.0000000000
     26084       840  BGLCNA    H4            -34.9344264518      -18.9291598683       51.9037868612  LPSA24    12              7.0000000000
     26085       840  BGLCNA    O4            -34.1013828326      -17.6507818963       53.2294962294  LPSA24    12              7.0000000000
     26086       840  BGLCNA    HO4           -33.5237689501      -16.8342286216       53.2834945119  LPSA24    12              7.0000000000
     26087       840  BGLCNA    C6            -32.2917667118      -18.5890861986       50.9528560558  LPSA24    12              7.0000000000
     26088       840  BGLCNA    H61           -31.8359604128      -18.5357680929       51.9144325068  LPSA24    12              7.0000000000
     26089       840  BGLCNA    H62           -32.7414112261      -19.5680649510       50.8287962869  LPSA24    12              7.0000000000
     26090       840  BGLCNA    O6            -31.4335229088      -18.3805434421       49.8597561973  LPSA24    12              7.0000000000
     26091       840  BGLCNA    HO6           -30.8350645688      -17.7245797420       50.1903398796  LPSA24    12              7.0000000000
     26092       841  AGAL      C1            -36.7260118686      -16.0000702833       53.8132743488  LPSA24    13              8.0000000000
     26093       841  AGAL      H1            -35.6826889695      -15.9414503793       54.1959401301  LPSA24    13              8.0000000000
     26094       841  AGAL      C5            -38.7995103126      -14.8859754612       53.2950732168  LPSA24    13              8.0000000000
     26095       841  AGAL      H5            -38.9167225583      -15.6830730350       52.5641412600  LPSA24    13              8.0000000000
     26096       841  AGAL      O5            -37.3859028213      -14.7239509843       53.4918445955  LPSA24    13              8.0000000000
     26097       841  AGAL      C2            -37.4728971467      -16.4448268997       55.1010141246  LPSA24    13              8.0000000000
     26098       841  AGAL      H2            -37.5250999970      -15.5793910813       55.7917211299  LPSA24    13              8.0000000000
     26099       841  AGAL      O2            -36.8163256717      -17.5011168158       55.7701983428  LPSA24    13              8.0000000000
     26100       841  AGAL      C3            -38.9988898844      -16.6059384476       54.8979691660  LPSA24    13              8.0000000000
     26101       841  AGAL      H3            -39.1615993125      -17.2606675274       54.0477453328  LPSA24    13              8.0000000000
     26102       841  AGAL      O3            -39.6345531207      -17.2892353773       55.9888739531  LPSA24    13              8.0000000000
     26103       841  AGAL      HO3           -40.3037667231      -17.8938753771       55.6848713412  LPSA24    13              8.0000000000
     26104       841  AGAL      C4            -39.5831114077      -15.3585363316       54.5514025965  LPSA24    13              8.0000000000
     26105       841  AGAL      H4            -40.6745737731      -15.4941112276       54.1954731349  LPSA24    13              8.0000000000
     26106       841  AGAL      O4            -39.5122519377      -14.3893289484       55.5743212917  LPSA24    13              8.0000000000
     26107       841  AGAL      HO4           -38.6718824396      -14.3129368525       56.0499681296  LPSA24    13              8.0000000000
     26108       841  AGAL      C6            -39.4836821450      -13.7699751034       52.5301443486  LPSA24    13              8.0000000000
     26109       841  AGAL      H61           -38.9057165462      -13.5356230206       51.6253596531  LPSA24    13              8.0000000000
     26110       841  AGAL      H62           -40.5507547612      -14.0634715299       52.3684678279  LPSA24    13              8.0000000000
     26111       841  AGAL      O6            -39.5456059522      -12.5860512862       53.2985910507  LPSA24    13              8.0000000000
     26112       841  AGAL      HO6           -40.2774794110      -12.6667093405       53.9299633642  LPSA24    13              8.0000000000
     26113       842  ARHM      C1            -36.2088940932      -17.2809871799       57.0117786358  LPSA24    14              9.0000000000
     26114       842  ARHM      H1            -35.9254065674      -16.2081160061       56.9981767125  LPSA24    14              9.0000000000
     26115       842  ARHM      C5            -35.2759937914      -19.4060825614       57.1930138837  LPSA24    14              9.0000000000
     26116       842  ARHM      H5            -35.8010075252      -19.6614612630       56.1976867078  LPSA24    14              9.0000000000
     26117       842  ARHM      O5            -35.0274686943      -18.0500748648       57.1718909996  LPSA24    14              9.0000000000
     26118       842  ARHM      C2            -37.2110792808      -17.6054620346       58.1413490634  LPSA24    14              9.0000000000
     26119       842  ARHM      H2            -38.0884162830      -17.0240482092       57.8875987320  LPSA24    14              9.0000000000
     26120       842  ARHM      O2            -36.7632274993      -17.3273546815       59.4330148990  LPSA24    14              9.0000000000
     26121       842  ARHM      C3            -37.5248598993      -19.0733028653       58.1095432995  LPSA24    14              9.0000000000
     26122       842  ARHM      H3            -37.7826875876      -19.3466802205       57.0440121713  LPSA24    14              9.0000000000
     26123       842  ARHM      O3            -38.6395570734      -19.4520844377       58.8567888868  LPSA24    14              9.0000000000
     26124       842  ARHM      HO3           -38.3384206157      -19.4070163297       59.8104957846  LPSA24    14              9.0000000000
     26125       842  ARHM      C4            -36.2458180356      -19.7903274489       58.3490442956  LPSA24    14              9.0000000000
     26126       842  ARHM      H4            -35.7016338245      -19.5416186409       59.2902338481  LPSA24    14              9.0000000000
     26127       842  ARHM      O4            -36.5119347335      -21.2167807023       58.4446785014  LPSA24    14              9.0000000000
     26128       842  ARHM      HO4           -36.3684176221      -21.6248383345       59.2969967688  LPSA24    14              9.0000000000
     26129       842  ARHM      C6            -33.9480857513      -20.1801348375       57.2492155848  LPSA24    14              9.0000000000
     26130       842  ARHM      H61           -33.1377051211      -19.7929197554       56.5358243550  LPSA24    14              9.0000000000
     26131       842  ARHM      H62           -33.6487154541      -20.1768020568       58.3170764683  LPSA24    14              9.0000000000
     26132       842  ARHM      H63           -33.9209041296      -21.2283545156       56.9421594120  LPSA24    14              9.0000000000
     26133       843  ARHM      C1            -36.2530589164      -16.1229202030       59.7267990175  LPSA24    15             10.0000000000
     26134       843  ARHM      H1            -36.6496567861      -15.3391442456       59.0458905905  LPSA24    15             10.0000000000
     26135       843  ARHM      C5            -34.0728515842      -16.8762865764       60.6468530148  LPSA24    15             10.0000000000
     26136       843  ARHM      H5            -34.2107592372      -17.9851885966       60.4457705401  LPSA24    15             10.0000000000
     26137       843  ARHM      O5            -34.8053383272      -16.0743231729       59.6688136410  LPSA24    15             10.0000000000
     26138       843  ARHM      C2            -36.6697980728      -15.7236756053       61.1407671534  LPSA24    15             10.0000000000
     26139       843  ARHM      H2            -37.8133029215      -15.8757132431       61.2133420761  LPSA24    15             10.0000000000
     26140       843  ARHM      O2            -36.2843853603      -14.3290546957       61.3234079317  LPSA24    15             10.0000000000
     26141       843  ARHM      C3            -35.9991796335      -16.6371770720       62.1677656617  LPSA24    15             10.0000000000
     26142       843  ARHM      H3            -36.2486175784      -17.6915187374       61.8628392879  LPSA24    15             10.0000000000
     26143       843  ARHM      O3            -36.7196277163      -16.4135210540       63.4092175029  LPSA24    15             10.0000000000
     26144       843  ARHM      C4            -34.5601895521      -16.4818682668       62.0487117432  LPSA24    15             10.0000000000
     26145       843  ARHM      H4            -34.3083158655      -15.3509545169       62.1496903561  LPSA24    15             10.0000000000
     26146       843  ARHM      O4            -33.7309497714      -17.2034394486       62.9635513464  LPSA24    15             10.0000000000
     26147       843  ARHM      HO4           -32.8733431542      -16.8057342207       62.9565205260  LPSA24    15             10.0000000000
     26148       843  ARHM      C6            -32.5887846296      -16.6722760957       60.4460959132  LPSA24    15             10.0000000000
     26149       843  ARHM      H61           -31.9371941784      -17.3148343250       61.0956562646  LPSA24    15             10.0000000000
     26150       843  ARHM      H62           -32.3582596512      -16.6912626964       59.3910198679  LPSA24    15             10.0000000000
     26151       843  ARHM      H63           -32.2362564522      -15.6850147251       60.8578185328  LPSA24    15             10.0000000000
     26152       844  BMANNA    C1            -36.6452830156      -13.6478221980       62.5145562334  LPSA24    16             11.0000000000
     26153       844  BMANNA    H1            -35.9665608148      -14.0750008171       63.3432051365  LPSA24    16             11.0000000000
     26154       844  BMANNA    C5            -38.2236719767      -13.1507076725       64.1851548173  LPSA24    16             11.0000000000
     26155       844  BMANNA    H5            -37.5568471098      -13.5095777376       64.9800677769  LPSA24    16             11.0000000000
     26156       844  BMANNA    O5            -37.9994757761      -13.8187659905       62.9158851071  LPSA24    16             11.0000000000
     26157       844  BMANNA    C2            -36.3251765811      -12.1533140000       62.2781089586  LPSA24    16             11.0000000000
     26158       844  BMANNA    H2            -35.2409133114      -12.1440899064       61.9912908466  LPSA24    16             11.0000000000
     26159       844  BMANNA    N             -37.0574840663      -11.4420145514       61.2264456342  LPSA24    16             11.0000000000
     26160       844  BMANNA    HN            -37.8797525465      -11.0505157202       61.5688724990  LPSA24    16             11.0000000000
     26161       844  BMANNA    C             -36.6921666138      -11.3716333374       59.9704010620  LPSA24    16             11.0000000000
     26162       844  BMANNA    O             -35.6048561870      -11.8608973562       59.5582221915  LPSA24    16             11.0000000000
     26163       844  BMANNA    CT            -37.6469727745      -10.6640896100       59.1331689300  LPSA24    16             11.0000000000
     26164       844  BMANNA    HT1           -37.3646427547       -9.6667102662       58.8344492748  LPSA24    16             11.0000000000
     26165       844  BMANNA    HT2           -38.6685507806      -10.5882659849       59.5043001239  LPSA24    16             11.0000000000
     26166       844  BMANNA    HT3           -37.7603501599      -11.1754797349       58.1231520073  LPSA24    16             11.0000000000
     26167       844  BMANNA    C3            -36.5227672096      -11.4776603707       63.6119771117  LPSA24    16             11.0000000000
     26168       844  BMANNA    H3            -35.8563084299      -11.9436911177       64.3839812837  LPSA24    16             11.0000000000
     26169       844  BMANNA    O3            -36.1688549343      -10.1246131156       63.6122488842  LPSA24    16             11.0000000000
     26170       844  BMANNA    HO3           -35.5369796283       -9.9419526590       64.2950500102  LPSA24    16             11.0000000000
     26171       844  BMANNA    C4            -37.9671754865      -11.6334023553       64.1045846713  LPSA24    16             11.0000000000
     26172       844  BMANNA    H4            -38.6946252391      -11.1680470342       63.4124605202  LPSA24    16             11.0000000000
     26173       844  BMANNA    O4            -38.2909793181      -11.0540951318       65.3816866120  LPSA24    16             11.0000000000
     26174       844  BMANNA    HO4           -39.2276138172      -10.8694498953       65.4353184152  LPSA24    16             11.0000000000
     26175       844  BMANNA    C6            -39.6290099213      -13.4107385416       64.7427751243  LPSA24    16             11.0000000000
     26176       844  BMANNA    H61           -39.5485632796      -13.3732329969       65.8875394407  LPSA24    16             11.0000000000
     26177       844  BMANNA    H62           -40.3284372826      -12.6289783588       64.4389269682  LPSA24    16             11.0000000000
     26178       844  BMANNA    O6            -40.1887265519      -14.6846250378       64.3660927576  LPSA24    16             11.0000000000
     26179       844  BMANNA    HO6           -41.0108379314      -14.4087154988       63.9036969990  LPSA24    16             11.0000000000
     26180       845  BGLCNA    C1            -36.9172988334      -17.5061671332       64.1715778089  LPSA24    17             11.0000000000
     26181       845  BGLCNA    H1            -36.0925352447      -18.2845899653       63.9082176002  LPSA24    17             11.0000000000
     26182       845  BGLCNA    C5            -38.4288537506      -19.3873240342       64.5563394407  LPSA24    17             11.0000000000
     26183       845  BGLCNA    H5            -37.6461520643      -20.1897498728       64.2825289487  LPSA24    17             11.0000000000
     26184       845  BGLCNA    O5            -38.1304814634      -18.2138875558       63.7849982893  LPSA24    17             11.0000000000
     26185       845  BGLCNA    C2            -36.9573392572      -17.0690440921       65.5899343931  LPSA24    17             11.0000000000
     26186       845  BGLCNA    H2            -37.7928351907      -16.3266347414       65.8249043900  LPSA24    17             11.0000000000
     26187       845  BGLCNA    N             -35.8156776594      -16.3014064441       65.8849826081  LPSA24    17             11.0000000000
     26188       845  BGLCNA    HN            -34.9427205246      -16.5313895880       65.4150135415  LPSA24    17             11.0000000000
     26189       845  BGLCNA    C             -35.6303312931      -15.3708979975       66.8043620798  LPSA24    17             11.0000000000
     26190       845  BGLCNA    O             -36.5564839321      -14.9276636767       67.4729873017  LPSA24    17             11.0000000000
     26191       845  BGLCNA    CT            -34.2398173624      -14.8885226451       66.9728872304  LPSA24    17             11.0000000000
     26192       845  BGLCNA    HT1           -33.9404368384      -13.9112093783       66.5529393721  LPSA24    17             11.0000000000
     26193       845  BGLCNA    HT2           -33.5646459972      -15.7239033346       66.7043805047  LPSA24    17             11.0000000000
     26194       845  BGLCNA    HT3           -33.9934073600      -14.7690956302       68.1408097225  LPSA24    17             11.0000000000
     26195       845  BGLCNA    C3            -37.1522225367      -18.3261986659       66.4076579941  LPSA24    17             11.0000000000
     26196       845  BGLCNA    H3            -36.2816586776      -18.9687701497       66.0441361901  LPSA24    17             11.0000000000
     26197       845  BGLCNA    O3            -36.9243318928      -17.9747463462       67.8205355914  LPSA24    17             11.0000000000
     26198       845  BGLCNA    C4            -38.4982061723      -18.9407405531       66.0496966154  LPSA24    17             11.0000000000
     26199       845  BGLCNA    H4            -39.3429172511      -18.1687400596       66.1123142204  LPSA24    17             11.0000000000
     26200       845  BGLCNA    O4            -38.8589073002      -19.9952219616       66.9186044206  LPSA24    17             11.0000000000
     26201       845  BGLCNA    HO4           -39.6748097242      -20.4389312153       66.7204061560  LPSA24    17             11.0000000000
     26202       845  BGLCNA    C6            -39.7915884625      -19.9602429508       64.1200051697  LPSA24    17             11.0000000000
     26203       845  BGLCNA    H61           -39.7588707182      -21.0323224871       64.1272946536  LPSA24    17             11.0000000000
     26204       845  BGLCNA    H62           -40.6196966863      -19.6323818667       64.8212395067  LPSA24    17             11.0000000000
     26205       845  BGLCNA    O6            -40.1562710777      -19.5576041852       62.7926115083  LPSA24    17             11.0000000000
     26206       845  BGLCNA    HO6           -39.4880085967      -19.8554390345       62.1856770532  LPSA24    17             11.0000000000
     26207       846  AGAL      C1            -36.2768539377      -18.9972690817       68.6198653987  LPSA24    18             12.0000000000
     26208       846  AGAL      H1            -37.0428499371      -19.8066752574       68.8082567594  LPSA24    18             12.0000000000
     26209       846  AGAL      C5            -34.0323903373      -18.5996521936       67.8636918791  LPSA24    18             12.0000000000
     26210       846  AGAL      H5            -34.4234837986      -17.6861601571       67.4068928888  LPSA24    18             12.0000000000
     26211       846  AGAL      O5            -35.1478066060      -19.5546550242       67.9834320655  LPSA24    18             12.0000000000
     26212       846  AGAL      C2            -35.7674540014      -18.4316935387       70.0000206359  LPSA24    18             12.0000000000
     26213       846  AGAL      H2            -35.2999229364      -19.3646391101       70.3908489884  LPSA24    18             12.0000000000
     26214       846  AGAL      O2            -36.8415724663      -18.1496401543       70.8342757016  LPSA24    18             12.0000000000
     26215       846  AGAL      C3            -34.6667866459      -17.4374711603       69.8682924558  LPSA24    18             12.0000000000
     26216       846  AGAL      H3            -34.9969676526      -16.6302125811       69.0958348126  LPSA24    18             12.0000000000
     26217       846  AGAL      O3            -34.3646449910      -16.8060032837       71.0758896640  LPSA24    18             12.0000000000
     26218       846  AGAL      HO3           -34.2836333823      -15.8566958265       70.9682873819  LPSA24    18             12.0000000000
     26219       846  AGAL      C4            -33.5348151214      -18.0677776004       69.1634745928  LPSA24    18             12.0000000000
     26220       846  AGAL      H4            -32.6857736208      -17.3926446516       68.9039691178  LPSA24    18             12.0000000000
     26221       846  AGAL      O4            -32.9527907878      -19.1225697071       69.9734134928  LPSA24    18             12.0000000000
     26222       846  AGAL      HO4           -32.4066343421      -18.7002360378       70.7236544006  LPSA24    18             12.0000000000
     26223       846  AGAL      C6            -33.1488965258      -19.0890530081       66.8042742825  LPSA24    18             12.0000000000
     26224       846  AGAL      H61           -33.7407249831      -19.1074731795       65.8877991861  LPSA24    18             12.0000000000
     26225       846  AGAL      H62           -32.3664007140      -18.2972924753       66.6499463921  LPSA24    18             12.0000000000
     26226       846  AGAL      O6            -32.6327739681      -20.3076373258       66.9803033045  LPSA24    18             12.0000000000
     26227       846  AGAL      HO6           -33.0008494115      -20.8494944031       67.6707071977  LPSA24    18             12.0000000000
     26228       847  ARHM      C1            -36.5573310718      -18.6095232964       72.1803514454  LPSA24    19             13.0000000000
     26229       847  ARHM      H1            -35.5027387104      -18.7393620429       72.3185909119  LPSA24    19             13.0000000000
     26230       847  ARHM      C5            -38.4056365350      -20.0934340556       72.2512180912  LPSA24    19             13.0000000000
     26231       847  ARHM      H5            -38.6428883645      -19.7440593111       71.2133247196  LPSA24    19             13.0000000000
     26232       847  ARHM      O5            -36.9932549602      -19.9559060421       72.4162684983  LPSA24    19             13.0000000000
     26233       847  ARHM      C2            -37.2019120210      -17.6491996222       73.1100514097  LPSA24    19             13.0000000000
     26234       847  ARHM      H2            -36.9868650173      -16.6253509725       72.9420985559  LPSA24    19             13.0000000000
     26235       847  ARHM      O2            -36.8393351944      -17.9496857810       74.4131644751  LPSA24    19             13.0000000000
     26236       847  ARHM      C3            -38.7467854109      -17.8283411170       72.9859276785  LPSA24    19             13.0000000000
     26237       847  ARHM      H3            -39.0050696869      -17.6392136108       71.9471750908  LPSA24    19             13.0000000000
     26238       847  ARHM      O3            -39.4216197882      -16.9074548365       73.7644258584  LPSA24    19             13.0000000000
     26239       847  ARHM      HO3           -39.0359840936      -16.9535050647       74.6464134549  LPSA24    19             13.0000000000
     26240       847  ARHM      C4            -39.1899527634      -19.2062986018       73.2443334127  LPSA24    19             13.0000000000
     26241       847  ARHM      H4            -38.8745562111      -19.4344970454       74.2703943704  LPSA24    19             13.0000000000
     26242       847  ARHM      O4            -40.5649627997      -19.4157864937       73.1708570575  LPSA24    19             13.0000000000
     26243       847  ARHM      HO4           -40.8115272418      -19.2518079080       72.2126258713  LPSA24    19             13.0000000000
     26244       847  ARHM      C6            -38.8343469301      -21.5709206855       72.3031700958  LPSA24    19             13.0000000000
     26245       847  ARHM      H61           -38.2214214768      -21.9854550459       71.5186681997  LPSA24    19             13.0000000000
     26246       847  ARHM      H62           -38.6259331744      -22.1082451764       73.2001761489  LPSA24    19             13.0000000000
     26247       847  ARHM      H63           -39.8955087510      -21.7243150021       72.0875448643  LPSA24    19             13.0000000000
     26248       848  ARHM      C1            -35.5441173549      -17.5348276785       74.6981797177  LPSA24    20             14.0000000000
     26249       848  ARHM      H1            -35.1127526576      -16.8541242460       73.8936196974  LPSA24    20             14.0000000000
     26250       848  ARHM      C5            -34.8066110455      -19.4097007699       75.9960310464  LPSA24    20             14.0000000000
     26251       848  ARHM      H5            -35.8403858757      -19.7970488072       75.8071112250  LPSA24    20             14.0000000000
     26252       848  ARHM      O5            -34.5585859618      -18.5535339319       74.8741575474  LPSA24    20             14.0000000000
     26253       848  ARHM      C2            -35.5527481278      -16.6519288972       75.9438944127  LPSA24    20             14.0000000000
     26254       848  ARHM      H2            -36.4173982004      -15.8808534014       75.7904987900  LPSA24    20             14.0000000000
     26255       848  ARHM      O2            -34.2900444381      -16.0015728543       76.2145535291  LPSA24    20             14.0000000000
     26256       848  ARHM      C3            -35.8150646980      -17.5504538968       77.0746584307  LPSA24    20             14.0000000000
     26257       848  ARHM      H3            -36.8462596921      -18.0522123668       76.9570890266  LPSA24    20             14.0000000000
     26258       848  ARHM      O3            -35.9224515555      -16.6993166737       78.2431898216  LPSA24    20             14.0000000000
     26259       848  ARHM      C4            -34.7847513122      -18.6204735300       77.2147849866  LPSA24    20             14.0000000000
     26260       848  ARHM      H4            -33.7883874544      -18.2357561859       77.2882629629  LPSA24    20             14.0000000000
     26261       848  ARHM      O4            -35.0425989778      -19.3625815211       78.4294019453  LPSA24    20             14.0000000000
     26262       848  ARHM      HO4           -34.7022627559      -20.1594580955       78.0714846557  LPSA24    20             14.0000000000
     26263       848  ARHM      C6            -33.8675905149      -20.5427037213       75.9818768401  LPSA24    20             14.0000000000
     26264       848  ARHM      H61           -32.7559191368      -20.3445303046       76.0487105533  LPSA24    20             14.0000000000
     26265       848  ARHM      H62           -34.1445958810      -21.2678083332       76.7492574554  LPSA24    20             14.0000000000
     26266       848  ARHM      H63           -33.8792708841      -21.1511183656       75.0059134709  LPSA24    20             14.0000000000
     26267       849  BMANNA    C1            -34.2814501769      -14.8509227577       75.4501725836  LPSA24    21             15.0000000000
     26268       849  BMANNA    H1            -35.1269185258      -14.8569580337       74.6495731600  LPSA24    21             15.0000000000
     26269       849  BMANNA    C5            -33.2453268486      -13.6785852449       73.6578092950  LPSA24    21             15.0000000000
     26270       849  BMANNA    H5            -34.2423424005      -13.5960006791       73.0422409194  LPSA24    21             15.0000000000
     26271       849  BMANNA    O5            -33.1239928612      -14.8422800289       74.5460975074  LPSA24    21             15.0000000000
     26272       849  BMANNA    C2            -34.2907710232      -13.6407393785       76.3268603500  LPSA24    21             15.0000000000
     26273       849  BMANNA    H2            -35.2295501260      -13.7786530744       76.8663433126  LPSA24    21             15.0000000000
     26274       849  BMANNA    N             -33.1675134453      -13.6304822372       77.2602735953  LPSA24    21             15.0000000000
     26275       849  BMANNA    HN            -32.2884027609      -13.7443462620       76.8630196157  LPSA24    21             15.0000000000
     26276       849  BMANNA    C             -33.2250721763      -13.2012585245       78.6142451918  LPSA24    21             15.0000000000
     26277       849  BMANNA    O             -34.2260099108      -12.6198901063       79.0340579138  LPSA24    21             15.0000000000
     26278       849  BMANNA    CT            -31.9888952615      -13.4287591986       79.5125915666  LPSA24    21             15.0000000000
     26279       849  BMANNA    HT1           -31.2522362193      -12.6183761926       79.3040814335  LPSA24    21             15.0000000000
     26280       849  BMANNA    HT2           -31.6486033692      -14.4603409195       79.3224353366  LPSA24    21             15.0000000000
     26281       849  BMANNA    HT3           -32.2798427133      -13.3494175561       80.6000991146  LPSA24    21             15.0000000000
     26282       849  BMANNA    C3            -34.3869743986      -12.4474788372       75.4428482744  LPSA24    21             15.0000000000
     26283       849  BMANNA    H3            -35.3649886173      -12.6023015796       75.0091666053  LPSA24    21             15.0000000000
     26284       849  BMANNA    O3            -34.4330311392      -11.2334443452       76.1769203835  LPSA24    21             15.0000000000
     26285       849  BMANNA    HO3           -33.6788803267      -11.2145899955       76.7354970047  LPSA24    21             15.0000000000
     26286       849  BMANNA    C4            -33.2226880701      -12.4086700119       74.4866217523  LPSA24    21             15.0000000000
     26287       849  BMANNA    H4            -32.1543459827      -12.2437501722       75.0002820064  LPSA24    21             15.0000000000
     26288       849  BMANNA    O4            -33.2852303265      -11.3161354052       73.6152290754  LPSA24    21             15.0000000000
     26289       849  BMANNA    HO4           -32.5379811636      -10.6969194071       73.7703874424  LPSA24    21             15.0000000000
     26290       849  BMANNA    C6            -32.2317617185      -13.6778606525       72.6348027846  LPSA24    21             15.0000000000
     26291       849  BMANNA    H61           -32.3959137734      -12.9110370395       71.8494922130  LPSA24    21             15.0000000000
     26292       849  BMANNA    H62           -31.2757004202      -13.2632006442       73.0558617198  LPSA24    21             15.0000000000
     26293       849  BMANNA    O6            -31.8862550325      -14.9043944899       72.0654385618  LPSA24    21             15.0000000000
     26294       849  BMANNA    HO6           -31.6629430662      -15.5016537235       72.7784055652  LPSA24    21             15.0000000000
     26295       850  BGLCNA    C1            -36.8560345487      -16.9812570523       79.2248726046  LPSA24    22             15.0000000000
     26296       850  BGLCNA    H1            -37.1637571611      -18.0667075717       79.2753119810  LPSA24    22             15.0000000000
     26297       850  BGLCNA    C5            -39.0610558698      -16.6090363283       80.1145289529  LPSA24    22             15.0000000000
     26298       850  BGLCNA    H5            -39.1937788246      -17.7715799966       80.0727605020  LPSA24    22             15.0000000000
     26299       850  BGLCNA    O5            -38.0649624385      -16.2945736518       79.0803056561  LPSA24    22             15.0000000000
     26300       850  BGLCNA    C2            -36.2565038723      -16.6235952832       80.5602818744  LPSA24    22             15.0000000000
     26301       850  BGLCNA    H2            -36.0946800884      -15.4919644060       80.4633107900  LPSA24    22             15.0000000000
     26302       850  BGLCNA    N             -35.0008729564      -17.3295400402       80.7025670875  LPSA24    22             15.0000000000
     26303       850  BGLCNA    HN            -35.0090066621      -18.2732753182       80.4501896382  LPSA24    22             15.0000000000
     26304       850  BGLCNA    C             -33.9422555683      -16.8593713485       81.3295640408  LPSA24    22             15.0000000000
     26305       850  BGLCNA    O             -33.9482770441      -15.7263742968       81.8448112003  LPSA24    22             15.0000000000
     26306       850  BGLCNA    CT            -32.7533293866      -17.7461750720       81.4359073222  LPSA24    22             15.0000000000
     26307       850  BGLCNA    HT1           -32.2055987072      -17.4938410676       80.5353412834  LPSA24    22             15.0000000000
     26308       850  BGLCNA    HT2           -33.1041864805      -18.7913160433       81.2752873926  LPSA24    22             15.0000000000
     26309       850  BGLCNA    HT3           -32.2289042684      -17.7234518826       82.3679651303  LPSA24    22             15.0000000000
     26310       850  BGLCNA    C3            -37.2251393690      -16.9072594019       81.6855161512  LPSA24    22             15.0000000000
     26311       850  BGLCNA    H3            -37.4950866230      -17.9923013662       81.6419517197  LPSA24    22             15.0000000000
     26312       850  BGLCNA    O3            -36.5069363701      -16.6581164825       82.8729300216  LPSA24    22             15.0000000000
     26313       850  BGLCNA    C4            -38.5367529540      -16.1455490484       81.4704242134  LPSA24    22             15.0000000000
     26314       850  BGLCNA    H4            -38.2676354760      -15.1236671810       81.4144045074  LPSA24    22             15.0000000000
     26315       850  BGLCNA    O4            -39.4651991182      -16.3416011112       82.5140850489  LPSA24    22             15.0000000000
     26316       850  BGLCNA    HO4           -39.8979658065      -15.4934390060       82.7130071916  LPSA24    22             15.0000000000
     26317       850  BGLCNA    C6            -40.3428846825      -15.8844827042       79.7284495560  LPSA24    22             15.0000000000
     26318       850  BGLCNA    H61           -40.9317129471      -15.8620497708       80.6924177192  LPSA24    22             15.0000000000
     26319       850  BGLCNA    H62           -40.1457221547      -14.8237296428       79.4648784538  LPSA24    22             15.0000000000
     26320       850  BGLCNA    O6            -41.1361087738      -16.5572738729       78.8100863794  LPSA24    22             15.0000000000
     26321       850  BGLCNA    HO6           -40.6241519977      -16.7126852606       78.0328486455  LPSA24    22             15.0000000000
     26322       851  AGAL      C1            -36.9355721956      -17.2135538259       84.0628261254  LPSA24    23             16.0000000000
     26323       851  AGAL      H1            -37.8148228796      -16.6728272942       84.5106287163  LPSA24    23             16.0000000000
     26324       851  AGAL      C5            -36.1540010444      -19.4422392331       83.7583018441  LPSA24    23             16.0000000000
     26325       851  AGAL      H5            -35.5863304054      -19.0453960783       82.8366412438  LPSA24    23             16.0000000000
     26326       851  AGAL      O5            -37.2624967995      -18.6054240560       83.9976212264  LPSA24    23             16.0000000000
     26327       851  AGAL      C2            -35.8844084598      -17.0369851308       85.1427633740  LPSA24    23             16.0000000000
     26328       851  AGAL      H2            -36.3175827218      -17.4850204723       86.0076373284  LPSA24    23             16.0000000000
     26329       851  AGAL      O2            -35.6471569596      -15.6964126817       85.5000844886  LPSA24    23             16.0000000000
     26330       851  AGAL      C3            -34.6688280396      -17.8685799057       84.9194901020  LPSA24    23             16.0000000000
     26331       851  AGAL      H3            -34.3334403959      -17.6274905189       83.8641570193  LPSA24    23             16.0000000000
     26332       851  AGAL      O3            -33.5755051988      -17.5811133345       85.7108298168  LPSA24    23             16.0000000000
     26333       851  AGAL      HO3           -33.9446335768      -17.5169681283       86.6206525111  LPSA24    23             16.0000000000
     26334       851  AGAL      C4            -35.1017628563      -19.3038709325       84.8901212015  LPSA24    23             16.0000000000
     26335       851  AGAL      H4            -34.2662655198      -20.0001775618       84.6506069022  LPSA24    23             16.0000000000
     26336       851  AGAL      O4            -35.5826242761      -19.8400964030       86.1132943683  LPSA24    23             16.0000000000
     26337       851  AGAL      HO4           -36.2221458834      -20.4109874311       85.8278371007  LPSA24    23             16.0000000000
     26338       851  AGAL      C6            -36.5945319033      -20.8157746545       83.3278962909  LPSA24    23             16.0000000000
     26339       851  AGAL      H61           -37.3655039272      -20.7338994414       82.6074235255  LPSA24    23             16.0000000000
     26340       851  AGAL      H62           -35.8240050297      -21.3474245620       82.7620574208  LPSA24    23             16.0000000000
     26341       851  AGAL      O6            -37.1257688996      -21.5166735132       84.3845202183  LPSA24    23             16.0000000000
     26342       851  AGAL      HO6           -37.4618308754      -22.3752386515       84.1740981585  LPSA24    23             16.0000000000
     26343       852  ARHM      C1            -36.5216217597      -14.9035003742       86.2818185944  LPSA24    24             17.0000000000
     26344       852  ARHM      H1            -37.4490544842      -15.4360360130       86.3680542693  LPSA24    24             17.0000000000
     26345       852  ARHM      C5            -35.7439825846      -12.7311065290       85.6157638072  LPSA24    24             17.0000000000
     26346       852  ARHM      H5            -35.0121354192      -13.2184405841       85.0070975499  LPSA24    24             17.0000000000
     26347       852  ARHM      O5            -36.8918012323      -13.5368791714       85.8657410059  LPSA24    24             17.0000000000
     26348       852  ARHM      C2            -35.8100288484      -14.8371540622       87.5921581840  LPSA24    24             17.0000000000
     26349       852  ARHM      H2            -35.4336726400      -15.7954552892       87.8984046741  LPSA24    24             17.0000000000
     26350       852  ARHM      O2            -36.5931564727      -14.1811858202       88.6075763533  LPSA24    24             17.0000000000
     26351       852  ARHM      C3            -34.5794622103      -13.9350145738       87.4133527752  LPSA24    24             17.0000000000
     26352       852  ARHM      H3            -33.9621328758      -14.4409392696       86.6640279609  LPSA24    24             17.0000000000
     26353       852  ARHM      O3            -33.6918635956      -13.8953466339       88.5620392964  LPSA24    24             17.0000000000
     26354       852  ARHM      HO3           -34.0447633589      -13.1901689369       89.1463757531  LPSA24    24             17.0000000000
     26355       852  ARHM      C4            -34.9686793878      -12.5408194578       86.9402325015  LPSA24    24             17.0000000000
     26356       852  ARHM      H4            -35.7303469102      -12.1132979095       87.7071552895  LPSA24    24             17.0000000000
     26357       852  ARHM      O4            -33.8951255895      -11.6306293053       86.8379508285  LPSA24    24             17.0000000000
     26358       852  ARHM      HO4           -34.1231452588      -10.7337409886       87.0219124236  LPSA24    24             17.0000000000
     26359       852  ARHM      C6            -36.0940474478      -11.3527645055       84.9175891319  LPSA24    24             17.0000000000
     26360       852  ARHM      H61           -35.2118173978      -11.0006717311       84.3853494017  LPSA24    24             17.0000000000
     26361       852  ARHM      H62           -36.8806129889      -11.5674643493       84.2649634992  LPSA24    24             17.0000000000
     26362       852  ARHM      H63           -36.5231922965      -10.6220211507       85.6811466487  LPSA24    24             17.0000000000
     26363       853  ARHM      C1            -37.5553569666      -15.0733619426       89.1588742089  LPSA24    25             18.0000000000
     26364       853  ARHM      H1            -37.7471044662      -15.8604080852       88.4722246341  LPSA24    25             18.0000000000
     26365       853  ARHM      C5            -38.8952689381      -13.3669398499       90.1670531641  LPSA24    25             18.0000000000
     26366       853  ARHM      H5            -38.2509309653      -12.5768361751       89.8870230824  LPSA24    25             18.0000000000
     26367       853  ARHM      O5            -38.8608204291      -14.4668892806       89.2315309535  LPSA24    25             18.0000000000
     26368       853  ARHM      C2            -37.0704080368      -15.5575546091       90.4685713243  LPSA24    25             18.0000000000
     26369       853  ARHM      H2            -35.9906929422      -15.9068510084       90.3413143991  LPSA24    25             18.0000000000
     26370       853  ARHM      O2            -37.9154941626      -16.6554165830       90.9328696740  LPSA24    25             18.0000000000
     26371       853  ARHM      C3            -37.1702839090      -14.3500126237       91.4562257518  LPSA24    25             18.0000000000
     26372       853  ARHM      H3            -36.4780254150      -13.5611806290       91.0689171631  LPSA24    25             18.0000000000
     26373       853  ARHM      O3            -36.6744897637      -14.8209994301       92.6920647463  LPSA24    25             18.0000000000
     26374       853  ARHM      C4            -38.4847899451      -13.8002914832       91.5960769721  LPSA24    25             18.0000000000
     26375       853  ARHM      H4            -39.2707653622      -14.6136289593       91.8876801091  LPSA24    25             18.0000000000
     26376       853  ARHM      O4            -38.4035871167      -12.7749560846       92.5862492282  LPSA24    25             18.0000000000
     26377       853  ARHM      HO4           -39.2386068775      -12.8280864208       93.0149361445  LPSA24    25             18.0000000000
     26378       853  ARHM      C6            -40.2667472203      -12.6947044145       90.2083352735  LPSA24    25             18.0000000000
     26379       853  ARHM      H61           -40.6451717190      -12.4543327580       89.1912344565  LPSA24    25             18.0000000000
     26380       853  ARHM      H62           -41.0656069413      -13.3368139923       90.6686969550  LPSA24    25             18.0000000000
     26381       853  ARHM      H63           -40.2792619632      -11.7163990024       90.8233913566  LPSA24    25             18.0000000000
     26382       854  BMANNA    C1            -37.6421611576      -17.8899688247       90.3138108879  LPSA24    26             19.0000000000
     26383       854  BMANNA    H1            -36.6172939437      -17.9064473757       89.8388342826  LPSA24    26             19.0000000000
     26384       854  BMANNA    C5            -38.1469460852      -19.5056785328       88.6312665858  LPSA24    26             19.0000000000
     26385       854  BMANNA    H5            -37.1692906356      -19.3421109064       88.1771240033  LPSA24    26             19.0000000000
     26386       854  BMANNA    O5            -38.5403603802      -18.2664539955       89.2346891933  LPSA24    26             19.0000000000
     26387       854  BMANNA    C2            -37.6801765750      -18.9052630613       91.3475147821  LPSA24    26             19.0000000000
     26388       854  BMANNA    H2            -36.9023841657      -18.5668864636       92.1081287357  LPSA24    26             19.0000000000
     26389       854  BMANNA    N             -39.0429359154      -18.9340791517       91.9238920796  LPSA24    26             19.0000000000
     26390       854  BMANNA    HN            -39.7613638402      -19.0785105646       91.3050515894  LPSA24    26             19.0000000000
     26391       854  BMANNA    C             -39.3214937107      -18.8764346180       93.1798471680  LPSA24    26             19.0000000000
     26392       854  BMANNA    O             -38.4305321254      -18.5940018439       94.0003587425  LPSA24    26             19.0000000000
     26393       854  BMANNA    CT            -40.7355692621      -19.1756483952       93.6758917343  LPSA24    26             19.0000000000
     26394       854  BMANNA    HT1           -41.3829976888      -19.0240386301       92.8666282051  LPSA24    26             19.0000000000
     26395       854  BMANNA    HT2           -41.1378837048      -18.7765620694       94.6620984389  LPSA24    26             19.0000000000
     26396       854  BMANNA    HT3           -40.7471964056      -20.2586244224       93.8484898219  LPSA24    26             19.0000000000
     26397       854  BMANNA    C3            -37.2223838878      -20.2201863947       90.7100883268  LPSA24    26             19.0000000000
     26398       854  BMANNA    H3            -36.1776471002      -20.0730524784       90.3384445889  LPSA24    26             19.0000000000
     26399       854  BMANNA    O3            -37.1394982363      -21.2177933782       91.7636866611  LPSA24    26             19.0000000000
     26400       854  BMANNA    HO3           -36.3516936374      -20.9585143178       92.2265744207  LPSA24    26             19.0000000000
     26401       854  BMANNA    C4            -38.1160187424      -20.5542235654       89.6481622736  LPSA24    26             19.0000000000
     26402       854  BMANNA    H4            -39.2045045032      -20.7100271285       89.9013799111  LPSA24    26             19.0000000000
     26403       854  BMANNA    O4            -37.7566482590      -21.7875560901       89.0416847738  LPSA24    26             19.0000000000
     26404       854  BMANNA    HO4           -38.1334780044      -22.4979050498       89.5591157304  LPSA24    26             19.0000000000
     26405       854  BMANNA    C6            -39.0787368003      -19.6482099653       87.3900617492  LPSA24    26             19.0000000000
     26406       854  BMANNA    H61           -39.2891608935      -18.6716562098       86.9191763972  LPSA24    26             19.0000000000
     26407       854  BMANNA    H62           -38.6602381235      -20.2798058427       86.6504270337  LPSA24    26             19.0000000000
     26408       854  BMANNA    O6            -40.3328078808      -20.2275814961       87.7329108337  LPSA24    26             19.0000000000
     26409       854  BMANNA    HO6           -40.1952518948      -21.0429003106       88.1688153196  LPSA24    26             19.0000000000
     26410       855  BGLCNA    C1            -35.7902700021      -14.1493717352       93.4616184899  LPSA24    27             19.0000000000
     26411       855  BGLCNA    H1            -35.9943654258      -13.0834321107       93.4392217979  LPSA24    27             19.0000000000
     26412       855  BGLCNA    C5            -33.5572153596      -13.5158909835       93.9656603721  LPSA24    27             19.0000000000
     26413       855  BGLCNA    H5            -33.9249044178      -12.4578246157       93.9564344452  LPSA24    27             19.0000000000
     26414       855  BGLCNA    O5            -34.4078936498      -14.2330539079       93.0607755266  LPSA24    27             19.0000000000
     26415       855  BGLCNA    C2            -35.9836727145      -14.6889701367       94.8806799918  LPSA24    27             19.0000000000
     26416       855  BGLCNA    H2            -35.6465287709      -15.7399954587       94.8757458582  LPSA24    27             19.0000000000
     26417       855  BGLCNA    N             -37.3859716341      -14.6414001989       95.2501113516  LPSA24    27             19.0000000000
     26418       855  BGLCNA    HN            -37.8737791036      -13.7220595852       95.0827132934  LPSA24    27             19.0000000000
     26419       855  BGLCNA    C             -37.8657252090      -15.7424245095       95.9523160909  LPSA24    27             19.0000000000
     26420       855  BGLCNA    O             -37.1580626236      -16.6264065800       96.5238801166  LPSA24    27             19.0000000000
     26421       855  BGLCNA    CT            -39.4225391665      -15.8098552631       96.0293745529  LPSA24    27             19.0000000000
     26422       855  BGLCNA    HT1           -39.8852996902      -15.0315353570       95.3635606282  LPSA24    27             19.0000000000
     26423       855  BGLCNA    HT2           -39.8254187906      -15.7669116122       97.0167906789  LPSA24    27             19.0000000000
     26424       855  BGLCNA    HT3           -39.7182239569      -16.8830095021       95.7039804309  LPSA24    27             19.0000000000
     26425       855  BGLCNA    C3            -35.1012528241      -13.9393372796       95.7540348103  LPSA24    27             19.0000000000
     26426       855  BGLCNA    H3            -35.3242319606      -12.8434543500       95.7401190096  LPSA24    27             19.0000000000
     26427       855  BGLCNA    O3            -35.3936024500      -14.5037636922       97.0775356047  LPSA24    27             19.0000000000
     26428       855  BGLCNA    C4            -33.6187271477      -14.0537451826       95.3486864533  LPSA24    27             19.0000000000
     26429       855  BGLCNA    H4            -33.3286544578      -15.1289383985       95.3090014479  LPSA24    27             19.0000000000
     26430       855  BGLCNA    O4            -32.7970780284      -13.3620637617       96.2156872787  LPSA24    27             19.0000000000
     26431       855  BGLCNA    HO4           -32.9821646253      -12.4662456454       96.0162444362  LPSA24    27             19.0000000000
     26432       855  BGLCNA    C6            -32.1460900409      -13.4940852291       93.2852949846  LPSA24    27             19.0000000000
     26433       855  BGLCNA    H61           -31.5680216922      -12.7611480194       93.8557506920  LPSA24    27             19.0000000000
     26434       855  BGLCNA    H62           -31.6245129396      -14.4621882011       93.4725180191  LPSA24    27             19.0000000000
     26435       855  BGLCNA    O6            -32.2374771186      -13.1715372262       91.9076175409  LPSA24    27             19.0000000000
     26436       855  BGLCNA    HO6           -31.3321135900      -13.1976655820       91.5273290588  LPSA24    27             19.0000000000
     26437       856  AGAL      C1            -34.9852049565      -13.7788665924       98.2622020222  LPSA24    28             20.0000000000
     26438       856  AGAL      H1            -33.9295453695      -13.8012511570       98.3007149491  LPSA24    28             20.0000000000
     26439       856  AGAL      C5            -36.7874021546      -12.1595900400       98.1710438288  LPSA24    28             20.0000000000
     26440       856  AGAL      H5            -37.3735222985      -12.9216017015       97.4646141937  LPSA24    28             20.0000000000
     26441       856  AGAL      O5            -35.3221470212      -12.4011826679       98.1147365872  LPSA24    28             20.0000000000
     26442       856  AGAL      C2            -35.5523114153      -14.2293121417       99.6197190629  LPSA24    28             20.0000000000
     26443       856  AGAL      H2            -35.0837100860      -13.5179528665      100.2965066153  LPSA24    28             20.0000000000
     26444       856  AGAL      O2            -35.1716152741      -15.5174114082      100.0788731798  LPSA24    28             20.0000000000
     26445       856  AGAL      C3            -37.0268341874      -14.0042115923       99.7396972452  LPSA24    28             20.0000000000
     26446       856  AGAL      H3            -37.5222971652      -14.5246599135       98.8607737785  LPSA24    28             20.0000000000
     26447       856  AGAL      O3            -37.7190486556      -14.4949338005      100.9043404272  LPSA24    28             20.0000000000
     26448       856  AGAL      HO3           -38.3457821783      -15.1609344809      100.5606486229  LPSA24    28             20.0000000000
     26449       856  AGAL      C4            -37.3138222490      -12.5744185515       99.5102226768  LPSA24    28             20.0000000000
     26450       856  AGAL      H4            -38.3704953815      -12.4543467386       99.4798298294  LPSA24    28             20.0000000000
     26451       856  AGAL      O4            -36.7744146782      -11.7293492572      100.4757933835  LPSA24    28             20.0000000000
     26452       856  AGAL      HO4           -37.4798409340      -11.5022745917      101.0376442747  LPSA24    28             20.0000000000
     26453       856  AGAL      C6            -37.2314559226      -10.7952337415       97.6362902244  LPSA24    28             20.0000000000
     26454       856  AGAL      H61           -36.9756266170      -10.7265824975       96.5809275898  LPSA24    28             20.0000000000
     26455       856  AGAL      H62           -38.3424840928      -10.5228189115       97.7651048223  LPSA24    28             20.0000000000
     26456       856  AGAL      O6            -36.5672762461       -9.7700157290       98.3456070822  LPSA24    28             20.0000000000
     26457       856  AGAL      HO6           -35.7186707154       -9.5840091136       97.9416813930  LPSA24    28             20.0000000000
     26458       857  ARHM      C1            -34.8235806344      -15.4318036992      101.4808913342  LPSA24    29             21.0000000000
     26459       857  ARHM      H1            -35.3880973382      -14.5889463279      101.9964955809  LPSA24    29             21.0000000000
     26460       857  ARHM      C5            -32.6507401265      -16.2574988703      101.1486206043  LPSA24    29             21.0000000000
     26461       857  ARHM      H5            -32.9721990196      -16.3657170970      100.0935446791  LPSA24    29             21.0000000000
     26462       857  ARHM      O5            -33.4517332725      -15.2422229206      101.6833506475  LPSA24    29             21.0000000000
     26463       857  ARHM      C2            -35.2932204038      -16.6497389515      102.1437305515  LPSA24    29             21.0000000000
     26464       857  ARHM      H2            -36.3156791992      -16.8615964071      101.9067628034  LPSA24    29             21.0000000000
     26465       857  ARHM      O2            -35.1743139855      -16.5695937326      103.5748524404  LPSA24    29             21.0000000000
     26466       857  ARHM      C3            -34.4651668780      -17.7927323252      101.6289418068  LPSA24    29             21.0000000000
     26467       857  ARHM      H3            -34.6871011145      -17.9373750978      100.4952263366  LPSA24    29             21.0000000000
     26468       857  ARHM      O3            -34.9498960234      -18.9778599740      102.1995749427  LPSA24    29             21.0000000000
     26469       857  ARHM      HO3           -34.2530648669      -19.5418320002      102.2092645043  LPSA24    29             21.0000000000
     26470       857  ARHM      C4            -33.0236517455      -17.6159795267      101.8247918557  LPSA24    29             21.0000000000
     26471       857  ARHM      H4            -32.7487217175      -17.5801330946      102.9338171738  LPSA24    29             21.0000000000
     26472       857  ARHM      O4            -32.1512619573      -18.6642195664      101.3452167393  LPSA24    29             21.0000000000
     26473       857  ARHM      HO4           -32.3942653321      -19.0157335744      100.4362974805  LPSA24    29             21.0000000000
     26474       857  ARHM      C6            -31.1961244125      -15.7595726066      101.2162231226  LPSA24    29             21.0000000000
     26475       857  ARHM      H61           -31.2710069929      -14.7030658926      100.7685423143  LPSA24    29             21.0000000000
     26476       857  ARHM      H62           -30.8960460144      -15.6695065165      102.3013153741  LPSA24    29             21.0000000000
     26477       857  ARHM      H63           -30.5692486474      -16.4198837731      100.6072571094  LPSA24    29             21.0000000000
     26478       858  ARHM      C1            -36.2447072669      -16.2221883814      104.3945976075  LPSA24    30             22.0000000000
     26479       858  ARHM      H1            -37.0775630174      -16.9356305669      104.2094096401  LPSA24    30             22.0000000000
     26480       858  ARHM      C5            -35.6720801043      -13.8596524096      104.5143062533  LPSA24    30             22.0000000000
     26481       858  ARHM      H5            -34.7894520660      -14.2355691089      103.8668162917  LPSA24    30             22.0000000000
     26482       858  ARHM      O5            -36.6828338718      -14.8600864439      104.2052433351  LPSA24    30             22.0000000000
     26483       858  ARHM      C2            -35.8307864091      -16.3743076036      105.8471183130  LPSA24    30             22.0000000000
     26484       858  ARHM      H2            -35.4890041681      -17.3408685606      106.0289718167  LPSA24    30             22.0000000000
     26485       858  ARHM      O2            -36.9528127740      -16.0190504577      106.5813641610  LPSA24    30             22.0000000000
     26486       858  ARHM      C3            -34.8250599670      -15.3852552932      106.2079894766  LPSA24    30             22.0000000000
     26487       858  ARHM      H3            -34.0208208609      -15.4571262188      105.5270001340  LPSA24    30             22.0000000000
     26488       858  ARHM      O3            -34.2645756106      -15.5769316446      107.5373891676  LPSA24    30             22.0000000000
     26489       858  ARHM      C4            -35.3053981510      -13.9496611688      105.9708288384  LPSA24    30             22.0000000000
     26490       858  ARHM      H4            -36.2029943861      -13.6993629107      106.5400372406  LPSA24    30             22.0000000000
     26491       858  ARHM      O4            -34.4271772144      -12.9669404815      106.2997755749  LPSA24    30             22.0000000000
     26492       858  ARHM      HO4           -33.7062388651      -12.7449853188      105.6964454668  LPSA24    30             22.0000000000
     26493       858  ARHM      C6            -36.1466609531      -12.4949146825      104.0930490251  LPSA24    30             22.0000000000
     26494       858  ARHM      H61           -35.2746834020      -11.7937148452      104.2143179997  LPSA24    30             22.0000000000
     26495       858  ARHM      H62           -36.3011219833      -12.4948194976      103.0019050467  LPSA24    30             22.0000000000
     26496       858  ARHM      H63           -37.0699892834      -12.1364717922      104.6493652223  LPSA24    30             22.0000000000
     26497       859  BMANNA    C1            -37.8112254661      -17.0755015725      106.9502319096  LPSA24    31             23.0000000000
     26498       859  BMANNA    H1            -37.1792258182      -17.9685747676      107.1550799008  LPSA24    31             23.0000000000
     26499       859  BMANNA    C5            -39.5940336788      -18.5553710841      106.2136717625  LPSA24    31             23.0000000000
     26500       859  BMANNA    H5            -38.9025057135      -19.3422247611      106.5467054000  LPSA24    31             23.0000000000
     26501       859  BMANNA    O5            -38.7486494050      -17.4175513348      105.8742289322  LPSA24    31             23.0000000000
     26502       859  BMANNA    C2            -38.5953649201      -16.6921067004      108.0830629221  LPSA24    31             23.0000000000
     26503       859  BMANNA    H2            -37.8654088428      -16.5521576154      108.9031915743  LPSA24    31             23.0000000000
     26504       859  BMANNA    N             -39.2130244389      -15.4373549958      107.8252935315  LPSA24    31             23.0000000000
     26505       859  BMANNA    HN            -39.3829125266      -15.1907530392      106.8111160773  LPSA24    31             23.0000000000
     26506       859  BMANNA    C             -39.5282271383      -14.5657735169      108.7868858964  LPSA24    31             23.0000000000
     26507       859  BMANNA    O             -39.2359561391      -14.7572382691      109.9536662434  LPSA24    31             23.0000000000
     26508       859  BMANNA    CT            -40.2654664669      -13.2998766758      108.3237946568  LPSA24    31             23.0000000000
     26509       859  BMANNA    HT1           -40.9602268823      -13.5811485896      107.5739831696  LPSA24    31             23.0000000000
     26510       859  BMANNA    HT2           -39.5151476478      -12.6030765340      107.9347099034  LPSA24    31             23.0000000000
     26511       859  BMANNA    HT3           -40.7088810551      -12.7625458065      109.1768357935  LPSA24    31             23.0000000000
     26512       859  BMANNA    C3            -39.4736079315      -17.8302783429      108.4884560283  LPSA24    31             23.0000000000
     26513       859  BMANNA    H3            -38.8668637569      -18.7887328085      108.6988550870  LPSA24    31             23.0000000000
     26514       859  BMANNA    O3            -40.1154332124      -17.5863190608      109.7404994872  LPSA24    31             23.0000000000
     26515       859  BMANNA    HO3           -39.5331647935      -16.9006819977      110.0111610137  LPSA24    31             23.0000000000
     26516       859  BMANNA    C4            -40.4418576277      -18.1442300603      107.4199857710  LPSA24    31             23.0000000000
     26517       859  BMANNA    H4            -41.1461543351      -17.2559798894      107.0572414185  LPSA24    31             23.0000000000
     26518       859  BMANNA    O4            -41.3188095912      -19.1739857867      107.8525671122  LPSA24    31             23.0000000000
     26519       859  BMANNA    HO4           -40.8333888248      -19.9580138618      108.1943429300  LPSA24    31             23.0000000000
     26520       859  BMANNA    C6            -40.4893325295      -19.0148791129      105.0512686782  LPSA24    31             23.0000000000
     26521       859  BMANNA    H61           -40.9522814182      -20.0419236170      105.3397811046  LPSA24    31             23.0000000000
     26522       859  BMANNA    H62           -41.3214905302      -18.3407516823      104.8698551944  LPSA24    31             23.0000000000
     26523       859  BMANNA    O6            -39.7467134331      -19.1543128539      103.8241467834  LPSA24    31             23.0000000000
     26524       859  BMANNA    HO6           -39.1180650289      -19.9308700852      103.8134147631  LPSA24    31             23.0000000000
     26525       860  BGLCNA    C1            -35.0003710799      -15.0909134221      108.6103969990  LPSA24    32             23.0000000000
     26526       860  BGLCNA    H1            -36.1180719085      -15.1941807664      108.4325564695  LPSA24    32             23.0000000000
     26527       860  BGLCNA    C5            -35.6255287789      -13.1628890328      109.9277617404  LPSA24    32             23.0000000000
     26528       860  BGLCNA    H5            -36.6909907584      -13.3491674910      109.5374749077  LPSA24    32             23.0000000000
     26529       860  BGLCNA    O5            -34.7542020513      -13.7237767981      108.9423333575  LPSA24    32             23.0000000000
     26530       860  BGLCNA    C2            -34.7469638722      -15.8804182257      109.8194522937  LPSA24    32             23.0000000000
     26531       860  BGLCNA    H2            -33.7564002984      -15.6155714997      110.1044894257  LPSA24    32             23.0000000000
     26532       860  BGLCNA    N             -34.8440538354      -17.2828723329      109.5956973249  LPSA24    32             23.0000000000
     26533       860  BGLCNA    HN            -35.5516640191      -17.4554312238      108.8809076996  LPSA24    32             23.0000000000
     26534       860  BGLCNA    C             -34.0874886523      -18.2905196288      110.0864625708  LPSA24    32             23.0000000000
     26535       860  BGLCNA    O             -33.2106990980      -18.1044657327      110.9304085025  LPSA24    32             23.0000000000
     26536       860  BGLCNA    CT            -34.3995498429      -19.7176031080      109.5841031968  LPSA24    32             23.0000000000
     26537       860  BGLCNA    HT1           -35.0254476798      -19.4579697361      108.6281101354  LPSA24    32             23.0000000000
     26538       860  BGLCNA    HT2           -35.0399276814      -20.3080195009      110.1898124037  LPSA24    32             23.0000000000
     26539       860  BGLCNA    HT3           -33.4798413407      -20.2908304731      109.3122359934  LPSA24    32             23.0000000000
     26540       860  BGLCNA    C3            -35.6877700754      -15.4199392391      110.8930231790  LPSA24    32             23.0000000000
     26541       860  BGLCNA    H3            -36.6462244241      -15.4617782312      110.4606187373  LPSA24    32             23.0000000000
     26542       860  BGLCNA    O3            -35.7024241464      -16.2502427130      112.0657798240  LPSA24    32             23.0000000000
     26543       860  BGLCNA    C4            -35.3730386661      -13.9753980642      111.1707572500  LPSA24    32             23.0000000000
     26544       860  BGLCNA    H4            -34.3095062436      -13.9322782086      111.5318289610  LPSA24    32             23.0000000000
     26545       860  BGLCNA    O4            -36.1681020320      -13.4621978806      112.2070236435  LPSA24    32             23.0000000000
     26546       860  BGLCNA    HO4           -35.7516562082      -13.5672223015      113.0745323218  LPSA24    32             23.0000000000
     26547       860  BGLCNA    C6            -35.4028959164      -11.6679341718      110.0229508171  LPSA24    32             23.0000000000
     26548       860  BGLCNA    H61           -36.1743493490      -11.1708129038      110.7194343748  LPSA24    32             23.0000000000
     26549       860  BGLCNA    H62           -34.3982520237      -11.4692560581      110.5717638480  LPSA24    32             23.0000000000
     26550       860  BGLCNA    O6            -35.5226953993      -11.0242035714      108.7709294272  LPSA24    32             23.0000000000
     26551       860  BGLCNA    HO6           -36.2348840418      -11.4589752535      108.2360311317  LPSA24    32             23.0000000000
     26552       861  AGAL      C1            -37.0071142399      -16.4105778235      112.6842874521  LPSA24    33             24.0000000000
     26553       861  AGAL      H1            -37.5092078649      -15.4438372637      112.5979959475  LPSA24    33             24.0000000000
     26554       861  AGAL      C5            -37.1735898978      -18.7310863285      112.2149219831  LPSA24    33             24.0000000000
     26555       861  AGAL      H5            -36.1329884902      -18.5742414568      111.8792915250  LPSA24    33             24.0000000000
     26556       861  AGAL      O5            -37.8027679339      -17.4743881174      112.0726784748  LPSA24    33             24.0000000000
     26557       861  AGAL      C2            -36.7681847616      -16.7734953870      114.1482787662  LPSA24    33             24.0000000000
     26558       861  AGAL      H2            -37.8220582769      -16.9932688122      114.5751854976  LPSA24    33             24.0000000000
     26559       861  AGAL      O2            -36.3450129351      -15.6187914401      114.8486222260  LPSA24    33             24.0000000000
     26560       861  AGAL      C3            -36.1230689970      -18.1292566825      114.2945545625  LPSA24    33             24.0000000000
     26561       861  AGAL      H3            -35.1230869535      -18.1543851246      113.7405815065  LPSA24    33             24.0000000000
     26562       861  AGAL      O3            -35.7209488599      -18.4275693391      115.5672660328  LPSA24    33             24.0000000000
     26563       861  AGAL      HO3           -36.3635496355      -18.3461482799      116.2400186851  LPSA24    33             24.0000000000
     26564       861  AGAL      C4            -36.9846912493      -19.2028306819      113.6708488317  LPSA24    33             24.0000000000
     26565       861  AGAL      H4            -36.4752115205      -20.1740563258      113.6729875792  LPSA24    33             24.0000000000
     26566       861  AGAL      O4            -38.2887314714      -19.4539060521      114.2435538900  LPSA24    33             24.0000000000
     26567       861  AGAL      HO4           -38.5318529508      -18.8206089176      114.9085525172  LPSA24    33             24.0000000000
     26568       861  AGAL      C6            -37.7726234780      -19.7721422862      111.2992528405  LPSA24    33             24.0000000000
     26569       861  AGAL      H61           -37.5872346841      -19.3810041089      110.2783408757  LPSA24    33             24.0000000000
     26570       861  AGAL      H62           -37.3363234998      -20.7878271773      111.3458027743  LPSA24    33             24.0000000000
     26571       861  AGAL      O6            -39.1355521877      -20.0372654196      111.4129476537  LPSA24    33             24.0000000000
     26572       861  AGAL      HO6           -39.6993270320      -19.4535924663      110.8444757795  LPSA24    33             24.0000000000
     26573       862  ARHM      C1            -37.0585078119      -15.3452533079      116.0109133884  LPSA24    34             25.0000000000
     26574       862  ARHM      H1            -37.2021729042      -16.2410739286      116.6389743656  LPSA24    34             25.0000000000
     26575       862  ARHM      C5            -38.4628196154      -13.6142927143      115.0727799907  LPSA24    34             25.0000000000
     26576       862  ARHM      H5            -38.0429942066      -13.8489857989      114.0209633333  LPSA24    34             25.0000000000
     26577       862  ARHM      O5            -38.4024817124      -14.8354304404      115.8926868953  LPSA24    34             25.0000000000
     26578       862  ARHM      C2            -36.1948132874      -14.3695604667      116.7601555753  LPSA24    34             25.0000000000
     26579       862  ARHM      H2            -35.1136177573      -14.6554786943      116.8710959342  LPSA24    34             25.0000000000
     26580       862  ARHM      O2            -36.6499872179      -14.0722963625      118.1592972339  LPSA24    34             25.0000000000
     26581       862  ARHM      C3            -36.1976381447      -13.0518881943      115.9988665506  LPSA24    34             25.0000000000
     26582       862  ARHM      H3            -35.8231774062      -13.1835302436      114.9724172480  LPSA24    34             25.0000000000
     26583       862  ARHM      O3            -35.4188123344      -11.9821692447      116.5878695042  LPSA24    34             25.0000000000
     26584       862  ARHM      HO3           -34.9544124687      -11.4424550696      115.9559434517  LPSA24    34             25.0000000000
     26585       862  ARHM      C4            -37.6334246769      -12.4946581984      115.7987835878  LPSA24    34             25.0000000000
     26586       862  ARHM      H4            -38.1839109426      -12.4022025689      116.7495315617  LPSA24    34             25.0000000000
     26587       862  ARHM      O4            -37.6596637175      -11.2842561513      115.1362621200  LPSA24    34             25.0000000000
     26588       862  ARHM      HO4           -37.4053336180      -10.5536598768      115.6953140327  LPSA24    34             25.0000000000
     26589       862  ARHM      C6            -39.9433226104      -13.1431862174      114.8413279703  LPSA24    34             25.0000000000
     26590       862  ARHM      H61           -40.4803273678      -12.8436613261      115.7172490283  LPSA24    34             25.0000000000
     26591       862  ARHM      H62           -39.8936552292      -12.1323608413      114.3996926230  LPSA24    34             25.0000000000
     26592       862  ARHM      H63           -40.5586499019      -13.7584199656      114.1590834060  LPSA24    34             25.0000000000
     26593       863  ARHM      C1            -36.7502844112      -15.1784813766      119.0795908573  LPSA24    35             26.0000000000
     26594       863  ARHM      H1            -35.8539066688      -15.9007579284      118.8787348947  LPSA24    35             26.0000000000
     26595       863  ARHM      C5            -39.1727385187      -15.0934189519      119.2408916176  LPSA24    35             26.0000000000
     26596       863  ARHM      H5            -39.2148022142      -14.1758720551      118.5254732223  LPSA24    35             26.0000000000
     26597       863  ARHM      O5            -38.0124638898      -15.9556933127      118.9290334222  LPSA24    35             26.0000000000
     26598       863  ARHM      C2            -36.6350656681      -14.6721496742      120.5365485050  LPSA24    35             26.0000000000
     26599       863  ARHM      H2            -35.6343669948      -14.1846964873      120.7134209997  LPSA24    35             26.0000000000
     26600       863  ARHM      O2            -36.7029854377      -15.7353977038      121.4126203716  LPSA24    35             26.0000000000
     26601       863  ARHM      C3            -37.8043015729      -13.7192561253      120.8720061906  LPSA24    35             26.0000000000
     26602       863  ARHM      H3            -37.7177079906      -12.8555465958      120.1344793452  LPSA24    35             26.0000000000
     26603       863  ARHM      O3            -37.6539323121      -13.1458066553      122.1540075829  LPSA24    35             26.0000000000
     26604       863  ARHM      HO3           -37.2338849644      -13.7893270209      122.7288731339  LPSA24    35             26.0000000000
     26605       863  ARHM      C4            -39.0794566637      -14.4930974063      120.6788917534  LPSA24    35             26.0000000000
     26606       863  ARHM      H4            -39.1639928083      -15.4059895424      121.3307119103  LPSA24    35             26.0000000000
     26607       863  ARHM      O4            -40.1586357959      -13.5780979945      120.9693790153  LPSA24    35             26.0000000000
     26608       863  ARHM      HO4           -40.0487558641      -12.6891195042      120.5581709812  LPSA24    35             26.0000000000
     26609       863  ARHM      C6            -40.4954812261      -15.8454572348      118.8642347863  LPSA24    35             26.0000000000
     26610       863  ARHM      H61           -40.5632048564      -16.0150045462      117.7433556958  LPSA24    35             26.0000000000
     26611       863  ARHM      H62           -40.3953892220      -16.7663132206      119.4176110492  LPSA24    35             26.0000000000
     26612       863  ARHM      H63           -41.3446045469      -15.1302040475      119.0633705917  LPSA24    35             26.0000000000
     26613       864  BMANNA    C1            -35.5974094511      -16.5867752107      121.4471464502  LPSA24    36             27.0000000000
     26614       864  BMANNA    H1            -34.6732334635      -16.0682384041      121.0972061898  LPSA24    36             27.0000000000
     26615       864  BMANNA    C5            -34.3500083558      -18.5320546044      120.7299884793  LPSA24    36             27.0000000000
     26616       864  BMANNA    H5            -33.5511925134      -17.8430448710      120.4610684421  LPSA24    36             27.0000000000
     26617       864  BMANNA    O5            -35.6226760844      -17.8128674611      120.6641532654  LPSA24    36             27.0000000000
     26618       864  BMANNA    C2            -35.3488449261      -16.9913222581      122.8920138725  LPSA24    36             27.0000000000
     26619       864  BMANNA    H2            -35.2374667073      -16.0560664423      123.4719477421  LPSA24    36             27.0000000000
     26620       864  BMANNA    N             -36.4980481689      -17.7115449517      123.4395449790  LPSA24    36             27.0000000000
     26621       864  BMANNA    HN            -36.9607381235      -18.4015751943      122.8746519580  LPSA24    36             27.0000000000
     26622       864  BMANNA    C             -36.7629942015      -17.6906774719      124.7737151700  LPSA24    36             27.0000000000
     26623       864  BMANNA    O             -36.2113445426      -16.9787513759      125.6190347561  LPSA24    36             27.0000000000
     26624       864  BMANNA    CT            -37.7784235070      -18.6334576251      125.3570716528  LPSA24    36             27.0000000000
     26625       864  BMANNA    HT1           -37.7048347778      -19.6157576303      124.8802869227  LPSA24    36             27.0000000000
     26626       864  BMANNA    HT2           -38.8439646659      -18.3176676483      125.1731404614  LPSA24    36             27.0000000000
     26627       864  BMANNA    HT3           -37.7591229124      -18.7493349554      126.4547536948  LPSA24    36             27.0000000000
     26628       864  BMANNA    C3            -34.0666696098      -17.7790000042      122.9763638711  LPSA24    36             27.0000000000
     26629       864  BMANNA    H3            -33.2182317468      -17.1693475516      122.6403873786  LPSA24    36             27.0000000000
     26630       864  BMANNA    O3            -33.7406845168      -18.1489381725      124.3414054450  LPSA24    36             27.0000000000
     26631       864  BMANNA    HO3           -32.9482954284      -17.7799877174      124.7171830083  LPSA24    36             27.0000000000
     26632       864  BMANNA    C4            -34.1057593467      -18.9852598516      122.1146940524  LPSA24    36             27.0000000000
     26633       864  BMANNA    H4            -34.8530282097      -19.6804482371      122.4263894750  LPSA24    36             27.0000000000
     26634       864  BMANNA    O4            -32.8988212338      -19.7380736945      122.2172873890  LPSA24    36             27.0000000000
     26635       864  BMANNA    HO4           -32.9180461906      -19.8682202345      123.1985163392  LPSA24    36             27.0000000000
     26636       864  BMANNA    C6            -34.3685836806      -19.6278774247      119.7412642597  LPSA24    36             27.0000000000
     26637       864  BMANNA    H61           -34.4722368071      -19.2430243698      118.6946701192  LPSA24    36             27.0000000000
     26638       864  BMANNA    H62           -33.3409906716      -20.0026477129      119.7045442506  LPSA24    36             27.0000000000
     26639       864  BMANNA    O6            -35.3332350261      -20.6845820570      120.0914698020  LPSA24    36             27.0000000000
     26640       864  BMANNA    HO6           -34.8481562067      -21.3050504037      120.6476247167  LPSA24    36             27.0000000000
     26641       865  ECLIPA    HB6S           38.0503908325       -1.4619450477       20.4612168218  LPSA25    1               0.0000000000
     26642       865  ECLIPA    OB6            38.6761653414       -0.0125066662       21.7140249152  LPSA25    1               0.0000000000
     26643       865  ECLIPA    CB6            37.7151223642       -0.4898263490       20.7042159014  LPSA25    1               0.0000000000
     26644       865  ECLIPA    HB6R           36.7043507341       -0.3857766823       21.0541931349  LPSA25    1               0.0000000000
     26645       865  ECLIPA    CB5            37.7152650524        0.4117294941       19.3988764877  LPSA25    1               0.0000000000
     26646       865  ECLIPA    OB5            39.1364347403        0.4348570833       18.9716901872  LPSA25    1               0.0000000000
     26647       865  ECLIPA    HB5            37.4536203213        1.4177158693       19.7771798410  LPSA25    1               0.0000000000
     26648       865  ECLIPA    CB1            39.2759544539        1.2306696348       17.7717324898  LPSA25    1               0.0000000000
     26649       865  ECLIPA    HB1            38.9567649276        2.2882487944       17.9003641080  LPSA25    1               0.0000000000
     26650       865  ECLIPA    OA6            40.5971273508        1.2059909527       17.3217246577  LPSA25    1               0.0000000000
     26651       865  ECLIPA    CA6            41.4138444105        0.0428529693       17.5745106853  LPSA25    1               0.0000000000
     26652       865  ECLIPA    HA6R           40.7428378469       -0.8274911793       17.7226451425  LPSA25    1               0.0000000000
     26653       865  ECLIPA    HA6S           42.1226899975        0.2982358378       18.4598965841  LPSA25    1               0.0000000000
     26654       865  ECLIPA    CB4            36.7610942540       -0.1381539685       18.3206521937  LPSA25    1               0.0000000000
     26655       865  ECLIPA    HB4            37.0496809680       -1.1638865452       18.0085584641  LPSA25    1               0.0000000000
     26656       865  ECLIPA    OB4            35.4588504978        0.0917550878       18.9017319965  LPSA25    1               0.0000000000
     26657       865  ECLIPA    PB             34.5463663300       -1.1657580444       19.3234616795  LPSA25    1               0.0000000000
     26658       865  ECLIPA    OPB4           33.7303060209       -0.7394113464       20.5579515876  LPSA25    1               0.0000000000
     26659       865  ECLIPA    OPB3           35.6310467782       -2.2173476812       19.6614545037  LPSA25    1               0.0000000000
     26660       865  ECLIPA    OPB2           33.7407460440       -1.5795174839       18.0829495795  LPSA25    1               0.0000000000
     26661       865  ECLIPA    CB3            36.9665661142        0.7318319577       17.0955893951  LPSA25    1               0.0000000000
     26662       865  ECLIPA    OB3            36.2400739299        0.3363525629       15.9186528231  LPSA25    1               0.0000000000
     26663       865  ECLIPA    HB3            36.8631126936        1.8352864927       17.3284540628  LPSA25    1               0.0000000000
     26664       865  ECLIPA    C71            35.0871513772        0.8719520963       15.6929469039  LPSA25    1               0.0000000000
     26665       865  ECLIPA    O71            34.5967541092        1.7954023967       16.3832172580  LPSA25    1               0.0000000000
     26666       865  ECLIPA    C72            34.5544661435        0.2956531901       14.3548430386  LPSA25    1               0.0000000000
     26667       865  ECLIPA    H72R           35.2880357924        0.5024399010       13.5774555414  LPSA25    1               0.0000000000
     26668       865  ECLIPA    H72S           33.4900144169        0.7361043831       14.1464415926  LPSA25    1               0.0000000000
     26669       865  ECLIPA    CB2            38.4472309700        0.6622820462       16.6720734084  LPSA25    1               0.0000000000
     26670       865  ECLIPA    HB2            38.6879175127       -0.4862097529       16.5298168153  LPSA25    1               0.0000000000
     26671       865  ECLIPA    NB2            38.7371391063        1.4543948906       15.4577284722  LPSA25    1               0.0000000000
     26672       865  ECLIPA    HNB2           38.9258043739        2.4255788516       15.5965609326  LPSA25    1               0.0000000000
     26673       865  ECLIPA    CA4            42.8723141705        1.0236794971       15.7929312798  LPSA25    1               0.0000000000
     26674       865  ECLIPA    HA4            42.0620137096        1.7349471775       15.4903430209  LPSA25    1               0.0000000000
     26675       865  ECLIPA    OA4            43.6499826219        1.5950961854       16.8012065728  LPSA25    1               0.0000000000
     26676       865  ECLIPA    HOA4           43.1987102008        1.6643884922       17.5928838569  LPSA25    1               0.0000000000
     26677       865  ECLIPA    CA5            42.2639385307       -0.1926119371       16.3547806008  LPSA25    1               0.0000000000
     26678       865  ECLIPA    HA5            42.9730889971       -1.0904381255       16.5880746347  LPSA25    1               0.0000000000
     26679       865  ECLIPA    OA5            41.3679636823       -0.7242510579       15.3689671688  LPSA25    1               0.0000000000
     26680       865  ECLIPA    CA1            42.0657985979       -1.0223606941       14.1076640156  LPSA25    1               0.0000000000
     26681       865  ECLIPA    HA1            41.1844082413       -1.0887503371       13.4118188108  LPSA25    1               0.0000000000
     26682       865  ECLIPA    OA1            42.7505984085       -2.2593358631       14.1359876212  LPSA25    1               0.0000000000
     26683       865  ECLIPA    OPA2           42.8333393593       -3.8194290781       15.9734101064  LPSA25    1               0.0000000000
     26684       865  ECLIPA    OPA3           40.5897763123       -3.4204808833       14.8300177673  LPSA25    1               0.0000000000
     26685       865  ECLIPA    OPA4           42.3534150134       -4.6606203864       13.6615320840  LPSA25    1               0.0000000000
     26686       865  ECLIPA    PA             42.0745058729       -3.5748578787       14.6765383084  LPSA25    1               0.0000000000
     26687       865  ECLIPA    CA3            43.6717232609        0.7748698108       14.5219348229  LPSA25    1               0.0000000000
     26688       865  ECLIPA    HA3            44.5796443507        0.0860118840       14.7377032538  LPSA25    1               0.0000000000
     26689       865  ECLIPA    OA3            44.2873049317        2.0208532841       14.2498111976  LPSA25    1               0.0000000000
     26690       865  ECLIPA    C31            43.5560571341        2.9065064412       13.5006246295  LPSA25    1               0.0000000000
     26691       865  ECLIPA    O31            43.3929956676        2.8725448724       12.2941239937  LPSA25    1               0.0000000000
     26692       865  ECLIPA    C32            43.4226755993        4.2239840523       14.2780289507  LPSA25    1               0.0000000000
     26693       865  ECLIPA    H32R           43.9546729592        5.0139474578       13.7149713840  LPSA25    1               0.0000000000
     26694       865  ECLIPA    H32S           43.8463129214        4.1124534644       15.2729523512  LPSA25    1               0.0000000000
     26695       865  ECLIPA    CA2            42.7109546053        0.2006121593       13.4984733916  LPSA25    1               0.0000000000
     26696       865  ECLIPA    HA2            41.8831847059        0.9074523262       13.3982259915  LPSA25    1               0.0000000000
     26697       865  ECLIPA    NA2            43.3478756936       -0.1199105480       12.2035087571  LPSA25    1               0.0000000000
     26698       865  ECLIPA    HNA2           44.2561436497        0.2021608829       12.0865030408  LPSA25    1               0.0000000000
     26699       865  ECLIPA    C73            34.3427407704       -1.1960246676       14.3319064372  LPSA25    1               0.0000000000
     26700       865  ECLIPA    H73R           33.8496107245       -1.5670207824       15.2227416964  LPSA25    1               0.0000000000
     26701       865  ECLIPA    O73            35.6600200565       -1.7965260178       14.2644256719  LPSA25    1               0.0000000000
     26702       865  ECLIPA    C81            35.9983652989       -2.9545575210       14.8555734565  LPSA25    1               0.0000000000
     26703       865  ECLIPA    O81            35.1802035685       -3.4878663231       15.6690894779  LPSA25    1               0.0000000000
     26704       865  ECLIPA    C82            37.3578311064       -3.4795513892       14.3536111794  LPSA25    1               0.0000000000
     26705       865  ECLIPA    H82R           37.6394682664       -4.4010265183       14.8531840528  LPSA25    1               0.0000000000
     26706       865  ECLIPA    H82S           38.1722420801       -2.7403206059       14.5323473422  LPSA25    1               0.0000000000
     26707       865  ECLIPA    C83            37.2976009608       -3.7214724780       12.8301722806  LPSA25    1               0.0000000000
     26708       865  ECLIPA    H83R           37.4529439132       -2.7445247437       12.2351841548  LPSA25    1               0.0000000000
     26709       865  ECLIPA    H83S           36.2674339226       -3.9913799968       12.5911296392  LPSA25    1               0.0000000000
     26710       865  ECLIPA    C84            38.3949146565       -4.6698015674       12.3050927261  LPSA25    1               0.0000000000
     26711       865  ECLIPA    H84R           38.1218312466       -5.6968614088       12.5767117503  LPSA25    1               0.0000000000
     26712       865  ECLIPA    H84S           39.2953434754       -4.2879999809       12.7369555497  LPSA25    1               0.0000000000
     26713       865  ECLIPA    C85            38.5406157207       -4.5598070525       10.7695484051  LPSA25    1               0.0000000000
     26714       865  ECLIPA    H85R           38.5034530073       -3.4848931761       10.5503608829  LPSA25    1               0.0000000000
     26715       865  ECLIPA    H85S           37.6454681332       -5.0043159992       10.2367999955  LPSA25    1               0.0000000000
     26716       865  ECLIPA    C86            39.9298999596       -5.0769244265       10.3034592726  LPSA25    1               0.0000000000
     26717       865  ECLIPA    H86R           39.9255489584       -6.1743652425        9.9932223571  LPSA25    1               0.0000000000
     26718       865  ECLIPA    H86S           40.6663617139       -4.9940371539       11.0807540114  LPSA25    1               0.0000000000
     26719       865  ECLIPA    C87            40.5397356524       -4.1951282689        9.1601018854  LPSA25    1               0.0000000000
     26720       865  ECLIPA    H87R           41.4802309840       -4.6038261253        8.8049419625  LPSA25    1               0.0000000000
     26721       865  ECLIPA    H87S           40.7945488943       -3.1691633590        9.5406723883  LPSA25    1               0.0000000000
     26722       865  ECLIPA    C88            39.5620678446       -3.9769440609        8.0318999685  LPSA25    1               0.0000000000
     26723       865  ECLIPA    H88R           38.7597779588       -3.2328088268        8.3479828359  LPSA25    1               0.0000000000
     26724       865  ECLIPA    H88S           38.9052766434       -4.8888106828        7.9254521495  LPSA25    1               0.0000000000
     26725       865  ECLIPA    C89            40.1960237490       -3.4318300763        6.7101000712  LPSA25    1               0.0000000000
     26726       865  ECLIPA    H89R           41.2038428385       -2.9933063583        6.8746682686  LPSA25    1               0.0000000000
     26727       865  ECLIPA    H89S           39.6341006165       -2.6527758995        6.2317001698  LPSA25    1               0.0000000000
     26728       865  ECLIPA    C810           40.2738654188       -4.5944853433        5.7047246593  LPSA25    1               0.0000000000
     26729       865  ECLIPA    H810R          39.4072449417       -5.2084492237        6.0108430704  LPSA25    1               0.0000000000
     26730       865  ECLIPA    H810S          41.1905050367       -5.1315669238        5.8554647029  LPSA25    1               0.0000000000
     26731       865  ECLIPA    C811           40.1884344715       -4.2078759517        4.2179945741  LPSA25    1               0.0000000000
     26732       865  ECLIPA    H811R          40.5443917560       -4.9023396502        3.5081125689  LPSA25    1               0.0000000000
     26733       865  ECLIPA    H811S          40.7253033345       -3.1877839621        4.1819101877  LPSA25    1               0.0000000000
     26734       865  ECLIPA    C812           38.7989508037       -3.7572602920        3.7413673409  LPSA25    1               0.0000000000
     26735       865  ECLIPA    H812R          38.9311212808       -3.3460865324        2.6403157337  LPSA25    1               0.0000000000
     26736       865  ECLIPA    H812S          38.3010203720       -3.0705274936        4.4144737196  LPSA25    1               0.0000000000
     26737       865  ECLIPA    C813           37.7521359895       -4.8847727835        3.6785234959  LPSA25    1               0.0000000000
     26738       865  ECLIPA    H813R          38.1346915412       -5.6283731685        2.9398073555  LPSA25    1               0.0000000000
     26739       865  ECLIPA    H813S          37.5716805701       -5.4601349799        4.6616087352  LPSA25    1               0.0000000000
     26740       865  ECLIPA    C814           36.4095749756       -4.4379024967        3.1377409857  LPSA25    1               0.0000000000
     26741       865  ECLIPA    H814R          36.4340863986       -3.7754925202        2.1719074593  LPSA25    1               0.0000000000
     26742       865  ECLIPA    H814S          35.8774191966       -3.8751019254        3.9166242729  LPSA25    1               0.0000000000
     26743       865  ECLIPA    H814T          35.7681874703       -5.3159554035        2.8964685373  LPSA25    1               0.0000000000
     26744       865  ECLIPA    C74            33.5881972682       -1.8153794792       13.1792855021  LPSA25    1               0.0000000000
     26745       865  ECLIPA    H74R           32.5544786832       -1.5291642892       12.9935747315  LPSA25    1               0.0000000000
     26746       865  ECLIPA    H74S           33.5864923920       -2.9680425016       13.3086690609  LPSA25    1               0.0000000000
     26747       865  ECLIPA    C75            34.3869803448       -1.6441921483       11.8151371119  LPSA25    1               0.0000000000
     26748       865  ECLIPA    H75R           34.1989195472       -2.6039244659       11.2107603889  LPSA25    1               0.0000000000
     26749       865  ECLIPA    H75S           35.4747265454       -1.5745890930       12.0082837783  LPSA25    1               0.0000000000
     26750       865  ECLIPA    C76            33.9678129239       -0.4418523624       10.9251453624  LPSA25    1               0.0000000000
     26751       865  ECLIPA    H76R           34.4266007864        0.4905925849       11.3555905686  LPSA25    1               0.0000000000
     26752       865  ECLIPA    H76S           32.8207022514       -0.2253735921       10.9731137071  LPSA25    1               0.0000000000
     26753       865  ECLIPA    C77            34.3278323713       -0.5007129811        9.4191603634  LPSA25    1               0.0000000000
     26754       865  ECLIPA    H77R           33.8312511813       -1.3608482911        9.0408775908  LPSA25    1               0.0000000000
     26755       865  ECLIPA    H77S           35.3997733519       -0.7745263982        9.2852383479  LPSA25    1               0.0000000000
     26756       865  ECLIPA    C78            34.0522769230        0.8883191657        8.8297405752  LPSA25    1               0.0000000000
     26757       865  ECLIPA    H78R           33.0568079597        1.1872547690        9.1562620580  LPSA25    1               0.0000000000
     26758       865  ECLIPA    H78S           34.8204097715        1.5504508549        9.3169442960  LPSA25    1               0.0000000000
     26759       865  ECLIPA    C79            34.4221303667        1.0014088529        7.2570767761  LPSA25    1               0.0000000000
     26760       865  ECLIPA    H79R           35.4602727032        1.4485203115        7.1763205913  LPSA25    1               0.0000000000
     26761       865  ECLIPA    H79S           33.7190266996        1.6965870919        6.7882549413  LPSA25    1               0.0000000000
     26762       865  ECLIPA    C710           34.1798727132       -0.2300542968        6.3785096220  LPSA25    1               0.0000000000
     26763       865  ECLIPA    H710R          34.7938238890       -1.0349738383        6.8460783027  LPSA25    1               0.0000000000
     26764       865  ECLIPA    H710S          33.1947579184       -0.4896815254        6.4843026416  LPSA25    1               0.0000000000
     26765       865  ECLIPA    C711           34.6176509078       -0.0609497600        4.9384125046  LPSA25    1               0.0000000000
     26766       865  ECLIPA    H711R          33.9826252689        0.7459157627        4.5670708729  LPSA25    1               0.0000000000
     26767       865  ECLIPA    H711S          35.7102197801        0.1839155158        4.9306188492  LPSA25    1               0.0000000000
     26768       865  ECLIPA    C712           34.4007916941       -1.3779568192        4.2148670498  LPSA25    1               0.0000000000
     26769       865  ECLIPA    H712R          33.3339205838       -1.6069962310        4.3130666899  LPSA25    1               0.0000000000
     26770       865  ECLIPA    H712S          34.9112626634       -2.1193019156        4.8522839389  LPSA25    1               0.0000000000
     26771       865  ECLIPA    C713           34.9852733769       -1.3439115583        2.7357390519  LPSA25    1               0.0000000000
     26772       865  ECLIPA    H713R          36.0889863242       -1.1765142209        2.8800411466  LPSA25    1               0.0000000000
     26773       865  ECLIPA    H713S          34.7462454809       -2.3728214985        2.2750064041  LPSA25    1               0.0000000000
     26774       865  ECLIPA    C714           34.2366272343       -0.2989991699        1.8879763961  LPSA25    1               0.0000000000
     26775       865  ECLIPA    H714R          33.1782956727       -0.5680157462        1.7626189762  LPSA25    1               0.0000000000
     26776       865  ECLIPA    H714S          34.4485314996        0.7284631079        2.2081901572  LPSA25    1               0.0000000000
     26777       865  ECLIPA    H714T          34.6856521482       -0.4538106857        0.9249202435  LPSA25    1               0.0000000000
     26778       865  ECLIPA    C51            38.5184418912        0.9365324807       14.2380633031  LPSA25    1               0.0000000000
     26779       865  ECLIPA    O51            38.4472009581       -0.3063900203       14.1304636378  LPSA25    1               0.0000000000
     26780       865  ECLIPA    C52            38.2745132120        1.8943158141       13.0157035712  LPSA25    1               0.0000000000
     26781       865  ECLIPA    H52R           37.2491277868        2.2130670579       12.8950255930  LPSA25    1               0.0000000000
     26782       865  ECLIPA    H52S           38.9070885342        2.7285218198       13.2222025935  LPSA25    1               0.0000000000
     26783       865  ECLIPA    C53            38.9003938999        1.1892010167       11.7526064304  LPSA25    1               0.0000000000
     26784       865  ECLIPA    H53R           39.6954229454        0.4964544290       12.0082431084  LPSA25    1               0.0000000000
     26785       865  ECLIPA    O53            39.2352950048        2.2497722731       10.8431816314  LPSA25    1               0.0000000000
     26786       865  ECLIPA    C61            40.5046864857        2.4140614018       10.5090573566  LPSA25    1               0.0000000000
     26787       865  ECLIPA    O61            41.4189617615        1.7392900270       10.8659713306  LPSA25    1               0.0000000000
     26788       865  ECLIPA    C62            40.6256882184        3.6262164682        9.5765835255  LPSA25    1               0.0000000000
     26789       865  ECLIPA    H62R           40.5940581207        4.5340864524       10.2152837125  LPSA25    1               0.0000000000
     26790       865  ECLIPA    H62S           39.6517334154        3.7018114641        9.0470049452  LPSA25    1               0.0000000000
     26791       865  ECLIPA    C63            41.8875810008        3.5389718972        8.6803029234  LPSA25    1               0.0000000000
     26792       865  ECLIPA    H63R           41.9252245823        2.5129881640        8.2798705976  LPSA25    1               0.0000000000
     26793       865  ECLIPA    H63S           42.8578561103        3.7019523849        9.3252199642  LPSA25    1               0.0000000000
     26794       865  ECLIPA    C64            41.9898346227        4.4614079856        7.5279067597  LPSA25    1               0.0000000000
     26795       865  ECLIPA    H64R           42.9857804232        4.3825679570        6.9620099216  LPSA25    1               0.0000000000
     26796       865  ECLIPA    H64S           41.8646084706        5.5188830082        7.9657393466  LPSA25    1               0.0000000000
     26797       865  ECLIPA    C65            40.7946436889        4.2152705019        6.5414948800  LPSA25    1               0.0000000000
     26798       865  ECLIPA    H65R           39.9472227436        4.4241732008        7.2423230371  LPSA25    1               0.0000000000
     26799       865  ECLIPA    H65S           40.8217601548        3.1627314603        6.1828980290  LPSA25    1               0.0000000000
     26800       865  ECLIPA    C66            40.7326251621        5.1119126692        5.2222643966  LPSA25    1               0.0000000000
     26801       865  ECLIPA    H66R           40.6571983232        6.1497902856        5.5395647249  LPSA25    1               0.0000000000
     26802       865  ECLIPA    H66S           39.7442079218        4.7491768523        4.8113963288  LPSA25    1               0.0000000000
     26803       865  ECLIPA    C67            41.7971320243        4.9323087342        4.1696839457  LPSA25    1               0.0000000000
     26804       865  ECLIPA    H67R           42.8085837784        4.9812184143        4.5058181646  LPSA25    1               0.0000000000
     26805       865  ECLIPA    H67S           41.6549455258        5.6905242794        3.3478820057  LPSA25    1               0.0000000000
     26806       865  ECLIPA    C68            41.7891287915        3.5792852913        3.5077075145  LPSA25    1               0.0000000000
     26807       865  ECLIPA    H68R           40.8523289395        3.2304967286        3.0112508411  LPSA25    1               0.0000000000
     26808       865  ECLIPA    H68S           42.1097953747        2.9377955686        4.3087918325  LPSA25    1               0.0000000000
     26809       865  ECLIPA    C69            42.7202126213        3.5915855577        2.2963532923  LPSA25    1               0.0000000000
     26810       865  ECLIPA    H69R           43.5547802469        4.3187268527        2.3203210098  LPSA25    1               0.0000000000
     26811       865  ECLIPA    H69S           42.1290072598        3.9796951103        1.4693744207  LPSA25    1               0.0000000000
     26812       865  ECLIPA    C610           43.2670246573        2.2576814108        1.9396251084  LPSA25    1               0.0000000000
     26813       865  ECLIPA    H610R          42.4731995806        1.4698740913        2.0603347121  LPSA25    1               0.0000000000
     26814       865  ECLIPA    H610S          44.0661757635        1.9571915740        2.6933643884  LPSA25    1               0.0000000000
     26815       865  ECLIPA    C611           43.9578753008        2.2218578443        0.5312153135  LPSA25    1               0.0000000000
     26816       865  ECLIPA    H611R          44.7695236228        2.9741680651        0.5735373188  LPSA25    1               0.0000000000
     26817       865  ECLIPA    H611S          44.5627636676        1.3438901531        0.3609598123  LPSA25    1               0.0000000000
     26818       865  ECLIPA    C612           42.9345905039        2.3931491373       -0.5788949292  LPSA25    1               0.0000000000
     26819       865  ECLIPA    H612R          42.2861124526        1.4727144900       -0.6060949542  LPSA25    1               0.0000000000
     26820       865  ECLIPA    H612S          42.2476745814        3.2062180936       -0.3132441764  LPSA25    1               0.0000000000
     26821       865  ECLIPA    H612T          43.4049301792        2.5247509597       -1.5574606966  LPSA25    1               0.0000000000
     26822       865  ECLIPA    C54            37.7237139219        0.3796469841       11.1776054589  LPSA25    1               0.0000000000
     26823       865  ECLIPA    H54R           36.9043802434        1.1026736164       10.8869876633  LPSA25    1               0.0000000000
     26824       865  ECLIPA    H54S           37.2761466087       -0.2574817074       11.9574517429  LPSA25    1               0.0000000000
     26825       865  ECLIPA    C55            37.9708574995       -0.5449509937        9.9916770240  LPSA25    1               0.0000000000
     26826       865  ECLIPA    H55R           37.1524287869       -1.2714308699        9.7856946516  LPSA25    1               0.0000000000
     26827       865  ECLIPA    H55S           38.9018884425       -1.1674250473       10.2436295858  LPSA25    1               0.0000000000
     26828       865  ECLIPA    C56            38.0327541917        0.3064247642        8.7515486822  LPSA25    1               0.0000000000
     26829       865  ECLIPA    H56R           38.8781746673        1.0556700902        8.8382497819  LPSA25    1               0.0000000000
     26830       865  ECLIPA    H56S           37.1727473090        0.8375772407        8.4741334449  LPSA25    1               0.0000000000
     26831       865  ECLIPA    C57            38.5447876205       -0.3995610414        7.4395707935  LPSA25    1               0.0000000000
     26832       865  ECLIPA    H57R           37.9684363897       -1.2901499702        7.1827428724  LPSA25    1               0.0000000000
     26833       865  ECLIPA    H57S           39.5890754084       -0.7690805315        7.5196553379  LPSA25    1               0.0000000000
     26834       865  ECLIPA    C58            38.5837179268        0.6270125461        6.2350750625  LPSA25    1               0.0000000000
     26835       865  ECLIPA    H58R           37.6518102106        1.2570312320        6.2095761879  LPSA25    1               0.0000000000
     26836       865  ECLIPA    H58S           39.3331806623        1.4145749159        6.5224540661  LPSA25    1               0.0000000000
     26837       865  ECLIPA    C59            38.7465972697       -0.0923001934        4.8667186835  LPSA25    1               0.0000000000
     26838       865  ECLIPA    H59R           37.9364666410       -0.8141669889        4.6589989540  LPSA25    1               0.0000000000
     26839       865  ECLIPA    H59S           39.7090936650       -0.5964809211        5.0825555512  LPSA25    1               0.0000000000
     26840       865  ECLIPA    C510           38.6432118321        0.8772687846        3.6752379292  LPSA25    1               0.0000000000
     26841       865  ECLIPA    H510R          39.2249014655        1.8549790881        3.7937959224  LPSA25    1               0.0000000000
     26842       865  ECLIPA    H510S          37.5245324520        1.1926931602        3.4613250382  LPSA25    1               0.0000000000
     26843       865  ECLIPA    C511           39.0640125595        0.3163440907        2.3004848829  LPSA25    1               0.0000000000
     26844       865  ECLIPA    H511R          40.1691645656        0.3701710317        2.2679211996  LPSA25    1               0.0000000000
     26845       865  ECLIPA    H511S          38.8186254062       -0.7802126762        2.1940961976  LPSA25    1               0.0000000000
     26846       865  ECLIPA    C512           38.5605984293        1.0770278818        1.0189424135  LPSA25    1               0.0000000000
     26847       865  ECLIPA    H512R          38.7401403824        0.4524851426        0.0815295424  LPSA25    1               0.0000000000
     26848       865  ECLIPA    H512S          37.4867587342        1.2808841897        1.1129704346  LPSA25    1               0.0000000000
     26849       865  ECLIPA    C513           39.3869912607        2.3904619685        0.6457389972  LPSA25    1               0.0000000000
     26850       865  ECLIPA    H513R          40.4873585393        2.1569677189        0.5010832175  LPSA25    1               0.0000000000
     26851       865  ECLIPA    H513S          39.3439820126        3.0725733356        1.4088770719  LPSA25    1               0.0000000000
     26852       865  ECLIPA    C514           38.9060726554        2.9692254556       -0.6567184026  LPSA25    1               0.0000000000
     26853       865  ECLIPA    H514R          37.8313374760        3.1473337251       -0.6273993866  LPSA25    1               0.0000000000
     26854       865  ECLIPA    H514S          39.3689143374        3.9575096764       -0.7024724270  LPSA25    1               0.0000000000
     26855       865  ECLIPA    H514T          39.1692319901        2.2839449440       -1.5427815912  LPSA25    1               0.0000000000
     26856       865  ECLIPA    C33            41.9518037967        4.8061379827       14.4880792826  LPSA25    1               0.0000000000
     26857       865  ECLIPA    H33R           42.0663932202        5.8698104933       14.8828993596  LPSA25    1               0.0000000000
     26858       865  ECLIPA    O33            41.2515740202        4.0645673853       15.4699768821  LPSA25    1               0.0000000000
     26859       865  ECLIPA    HO33           41.6045292747        4.2752574012       16.2926205744  LPSA25    1               0.0000000000
     26860       865  ECLIPA    C34            41.0542736616        4.8931874093       13.2255459338  LPSA25    1               0.0000000000
     26861       865  ECLIPA    H34R           40.9318008573        3.9027979285       12.8010908313  LPSA25    1               0.0000000000
     26862       865  ECLIPA    H34S           41.6018369187        5.4607892791       12.3772221142  LPSA25    1               0.0000000000
     26863       865  ECLIPA    C35            39.6534460988        5.4998063591       13.4256256262  LPSA25    1               0.0000000000
     26864       865  ECLIPA    H35R           39.7760500018        6.5460329654       13.6963698038  LPSA25    1               0.0000000000
     26865       865  ECLIPA    H35S           39.1661849529        4.9900457295       14.2668166019  LPSA25    1               0.0000000000
     26866       865  ECLIPA    C36            38.7378690697        5.5730270671       12.1865608177  LPSA25    1               0.0000000000
     26867       865  ECLIPA    H36R           39.0987728726        4.6222435314       11.7430812241  LPSA25    1               0.0000000000
     26868       865  ECLIPA    H36S           38.9298564182        6.4404353275       11.4785220412  LPSA25    1               0.0000000000
     26869       865  ECLIPA    C37            37.2793905811        5.3293540706       12.5255831563  LPSA25    1               0.0000000000
     26870       865  ECLIPA    H37R           36.8465278190        6.4189866488       12.6765215637  LPSA25    1               0.0000000000
     26871       865  ECLIPA    H37S           37.1501017047        4.8481982103       13.5128993321  LPSA25    1               0.0000000000
     26872       865  ECLIPA    C38            36.4234363439        4.6322167687       11.4317274953  LPSA25    1               0.0000000000
     26873       865  ECLIPA    H38R           36.5541610272        3.5375760687       11.4067421357  LPSA25    1               0.0000000000
     26874       865  ECLIPA    H38S           35.3644374973        4.7538762235       11.7230999881  LPSA25    1               0.0000000000
     26875       865  ECLIPA    C39            36.7610511770        5.1567389614       10.0213367345  LPSA25    1               0.0000000000
     26876       865  ECLIPA    H39R           37.8594096587        5.0576842914        9.8128797222  LPSA25    1               0.0000000000
     26877       865  ECLIPA    H39S           36.3631532642        6.2048810166        9.9697980947  LPSA25    1               0.0000000000
     26878       865  ECLIPA    C310           36.0168557812        4.4984460116        8.8401719124  LPSA25    1               0.0000000000
     26879       865  ECLIPA    H310R          34.9177213786        4.7678368275        9.0626900142  LPSA25    1               0.0000000000
     26880       865  ECLIPA    H310S          36.1364816564        3.3769974444        8.8945759064  LPSA25    1               0.0000000000
     26881       865  ECLIPA    C311           36.6687688409        4.7896399164        7.5676235846  LPSA25    1               0.0000000000
     26882       865  ECLIPA    H311R          37.0387587702        5.8462927952        7.5507520616  LPSA25    1               0.0000000000
     26883       865  ECLIPA    H311S          37.5496630644        4.1342507112        7.2851462164  LPSA25    1               0.0000000000
     26884       865  ECLIPA    C312           35.7780727228        4.5527276636        6.3280121142  LPSA25    1               0.0000000000
     26885       865  ECLIPA    H312R          35.1039348004        3.6733929999        6.4861373960  LPSA25    1               0.0000000000
     26886       865  ECLIPA    H312S          35.1532723199        5.4694308575        6.1820758986  LPSA25    1               0.0000000000
     26887       865  ECLIPA    C313           36.5580351964        4.3425895290        4.9895779706  LPSA25    1               0.0000000000
     26888       865  ECLIPA    H313R          36.9289396034        5.2986039893        4.7825120466  LPSA25    1               0.0000000000
     26889       865  ECLIPA    H313S          37.4285888897        3.6486143001        5.1572698764  LPSA25    1               0.0000000000
     26890       865  ECLIPA    C314           35.7798656412        3.8559867300        3.8116661598  LPSA25    1               0.0000000000
     26891       865  ECLIPA    H314R          34.9362493519        4.5699247824        3.6067793993  LPSA25    1               0.0000000000
     26892       865  ECLIPA    H314S          36.3442985928        3.7235123739        2.8849361441  LPSA25    1               0.0000000000
     26893       865  ECLIPA    H314T          35.2764294221        2.8529629748        4.0446347774  LPSA25    1               0.0000000000
     26894       865  ECLIPA    C11            42.8803556544       -0.9342334484       11.2900808200  LPSA25    1               0.0000000000
     26895       865  ECLIPA    O11            41.7419061649       -1.3603571243       11.1394597694  LPSA25    1               0.0000000000
     26896       865  ECLIPA    C12            43.9448492134       -1.4664698664       10.2853014675  LPSA25    1               0.0000000000
     26897       865  ECLIPA    H12R           44.1893666049       -2.5408697466       10.4852637814  LPSA25    1               0.0000000000
     26898       865  ECLIPA    H12S           44.8394179201       -0.8315734101       10.5222272274  LPSA25    1               0.0000000000
     26899       865  ECLIPA    C13            43.5960746562       -1.3114736505        8.8110583416  LPSA25    1               0.0000000000
     26900       865  ECLIPA    H13R           42.5013567709       -1.6003872968        8.5839874118  LPSA25    1               0.0000000000
     26901       865  ECLIPA    O13            44.4420272024       -2.2751809367        8.1311342176  LPSA25    1               0.0000000000
     26902       865  ECLIPA    HO13           44.0594114406       -2.5118638324        7.3064966676  LPSA25    1               0.0000000000
     26903       865  ECLIPA    C14            43.8045172514        0.1427482631        8.4581579993  LPSA25    1               0.0000000000
     26904       865  ECLIPA    H14R           44.7327666508        0.5900734468        8.9706443184  LPSA25    1               0.0000000000
     26905       865  ECLIPA    H14S           42.8715433718        0.6819244114        8.7243868424  LPSA25    1               0.0000000000
     26906       865  ECLIPA    C15            44.0050208545        0.3994585913        6.9526486677  LPSA25    1               0.0000000000
     26907       865  ECLIPA    H15R           44.7757948043       -0.2364123432        6.5500123177  LPSA25    1               0.0000000000
     26908       865  ECLIPA    H15S           44.2629471262        1.4571300830        6.8782608049  LPSA25    1               0.0000000000
     26909       865  ECLIPA    C16            42.7103913884        0.0840978967        6.1622847334  LPSA25    1               0.0000000000
     26910       865  ECLIPA    H16R           41.9372142328        0.9291942635        6.2733383262  LPSA25    1               0.0000000000
     26911       865  ECLIPA    H16S           42.1690576862       -0.7005519565        6.7182496574  LPSA25    1               0.0000000000
     26912       865  ECLIPA    C17            42.9606129160       -0.1849156694        4.6801229578  LPSA25    1               0.0000000000
     26913       865  ECLIPA    H17R           43.6847851105        0.6481139537        4.4246758429  LPSA25    1               0.0000000000
     26914       865  ECLIPA    H17S           42.1068224537       -0.0676389811        4.0046542873  LPSA25    1               0.0000000000
     26915       865  ECLIPA    C18            43.5696721164       -1.5412128903        4.4504458171  LPSA25    1               0.0000000000
     26916       865  ECLIPA    H18R           44.4139051757       -1.5133712215        5.0865821920  LPSA25    1               0.0000000000
     26917       865  ECLIPA    H18S           42.8182386258       -2.3166980344        4.7749867078  LPSA25    1               0.0000000000
     26918       865  ECLIPA    C19            43.9563850279       -1.7647254561        3.0097966450  LPSA25    1               0.0000000000
     26919       865  ECLIPA    H19R           44.4985954959       -2.6959102152        2.9245509529  LPSA25    1               0.0000000000
     26920       865  ECLIPA    H19S           44.5973558118       -0.9048465385        2.6238151240  LPSA25    1               0.0000000000
     26921       865  ECLIPA    C110           42.7103929533       -1.9249108458        2.1045801788  LPSA25    1               0.0000000000
     26922       865  ECLIPA    H110R          41.9716076932       -2.6538687281        2.4416701971  LPSA25    1               0.0000000000
     26923       865  ECLIPA    H110S          42.3074585436       -0.8896063932        2.1583327743  LPSA25    1               0.0000000000
     26924       865  ECLIPA    C111           43.1599760775       -2.2202142423        0.7563571155  LPSA25    1               0.0000000000
     26925       865  ECLIPA    H111R          44.0392322643       -1.6141015721        0.3999767799  LPSA25    1               0.0000000000
     26926       865  ECLIPA    H111S          43.5361009282       -3.2093052069        0.7977177860  LPSA25    1               0.0000000000
     26927       865  ECLIPA    C112           42.0383052865       -2.1949814659       -0.2937360943  LPSA25    1               0.0000000000
     26928       865  ECLIPA    H112R          41.3369462018       -2.9191807209        0.1973446929  LPSA25    1               0.0000000000
     26929       865  ECLIPA    H112S          41.4469130729       -1.2790376669       -0.2177998937  LPSA25    1               0.0000000000
     26930       865  ECLIPA    C113           42.5308119758       -2.2917051231       -1.7468031795  LPSA25    1               0.0000000000
     26931       865  ECLIPA    H113R          43.1014456577       -1.3632215725       -1.9802017524  LPSA25    1               0.0000000000
     26932       865  ECLIPA    H113S          43.2775617541       -3.0850004265       -1.8531093719  LPSA25    1               0.0000000000
     26933       865  ECLIPA    C114           41.5430808204       -2.6307830271       -2.8344928043  LPSA25    1               0.0000000000
     26934       865  ECLIPA    H114R          40.8811323439       -3.4908990885       -2.7829422503  LPSA25    1               0.0000000000
     26935       865  ECLIPA    H114S          40.8501729354       -1.7580017935       -2.9951089580  LPSA25    1               0.0000000000
     26936       865  ECLIPA    H114T          42.0976588379       -2.9456208366       -3.7399523103  LPSA25    1               0.0000000000
     26937       866  AKDO      C1             37.4517708554        1.8459077374       22.4410509549  LPSA25    2               0.0000000000
     26938       866  AKDO      O11            36.1739858308        1.8472700628       22.4913720772  LPSA25    2               0.0000000000
     26939       866  AKDO      O12            38.2551722850        2.7512568107       22.0800765534  LPSA25    2               0.0000000000
     26940       866  AKDO      C2             38.1136126069        0.5397717773       22.8913181237  LPSA25    2               0.0000000000
     26941       866  AKDO      C6             37.6116694300       -1.5858529509       23.8039205188  LPSA25    2               0.0000000000
     26942       866  AKDO      H6             38.0148357553       -2.0620112924       22.9487387861  LPSA25    2               0.0000000000
     26943       866  AKDO      O6             37.1018269088       -0.2439809713       23.4267274814  LPSA25    2               0.0000000000
     26944       866  AKDO      C3             39.1191273297        0.7322265821       23.9587385105  LPSA25    2               0.0000000000
     26945       866  AKDO      H31            38.7882051904        1.2836573953       24.7868435866  LPSA25    2               0.0000000000
     26946       866  AKDO      H32            40.0377133552        1.2661584308       23.4151264596  LPSA25    2               0.0000000000
     26947       866  AKDO      C4             39.6898526085       -0.6177390683       24.3842593775  LPSA25    2               0.0000000000
     26948       866  AKDO      H4             40.0722874871       -1.1888482040       23.5563617270  LPSA25    2               0.0000000000
     26949       866  AKDO      O4             40.7247917346       -0.4129694519       25.3355834555  LPSA25    2               0.0000000000
     26950       866  AKDO      C5             38.6774542864       -1.5210584289       24.9292437177  LPSA25    2               0.0000000000
     26951       866  AKDO      H5             39.0817629668       -2.5644156701       25.0107888161  LPSA25    2               0.0000000000
     26952       866  AKDO      O5             38.1831992924       -0.9371600097       26.2083878813  LPSA25    2               0.0000000000
     26953       866  AKDO      C7             36.4364946739       -2.5936299252       24.1981149098  LPSA25    2               0.0000000000
     26954       866  AKDO      H7             35.9526820356       -2.2094851446       25.0939202098  LPSA25    2               0.0000000000
     26955       866  AKDO      O7             36.9201183311       -3.9545088954       24.3482682347  LPSA25    2               0.0000000000
     26956       866  AKDO      HO7            37.0430988120       -4.2712625261       23.4945166536  LPSA25    2               0.0000000000
     26957       866  AKDO      C8             35.4429676990       -2.5863671293       22.9864433882  LPSA25    2               0.0000000000
     26958       866  AKDO      H81            35.1050715487       -1.5247701604       22.9153150275  LPSA25    2               0.0000000000
     26959       866  AKDO      H82            36.0377510515       -2.9645118471       22.0745354517  LPSA25    2               0.0000000000
     26960       866  AKDO      O8             34.2864592609       -3.4487598053       23.3537996748  LPSA25    2               0.0000000000
     26961       866  AKDO      HO8            33.4774270228       -3.0742052737       22.9179804014  LPSA25    2               0.0000000000
     26962       867  AKDO      C1             42.4484117521       -0.9629289427       23.8027969005  LPSA25    3               1.0000000000
     26963       867  AKDO      O11            42.4330609968       -0.4415721565       22.6471489042  LPSA25    3               1.0000000000
     26964       867  AKDO      O12            42.7791273146       -2.1437182442       24.0656860145  LPSA25    3               1.0000000000
     26965       867  AKDO      C2             42.0704777255       -0.1259476915       25.0166033796  LPSA25    3               1.0000000000
     26966       867  AKDO      C6             41.7532890095        2.1352275919       25.7688829792  LPSA25    3               1.0000000000
     26967       867  AKDO      H6             40.6509289096        1.9455887975       25.9810553331  LPSA25    3               1.0000000000
     26968       867  AKDO      O6             42.1875760936        1.3068676463       24.7076657818  LPSA25    3               1.0000000000
     26969       867  AKDO      C3             42.8637039426       -0.4162231619       26.3187707743  LPSA25    3               1.0000000000
     26970       867  AKDO      H31            43.9954555362       -0.1864168849       26.1504935106  LPSA25    3               1.0000000000
     26971       867  AKDO      H32            42.7928311012       -1.4778580429       26.5929217108  LPSA25    3               1.0000000000
     26972       867  AKDO      C4             42.3290540312        0.4834572988       27.4036122013  LPSA25    3               1.0000000000
     26973       867  AKDO      H4             41.2401468639        0.3748346647       27.4051754129  LPSA25    3               1.0000000000
     26974       867  AKDO      O4             42.7869962083        0.2241683858       28.7388570077  LPSA25    3               1.0000000000
     26975       867  AKDO      HO4            42.1037219097        0.0398290885       29.3717785514  LPSA25    3               1.0000000000
     26976       867  AKDO      C5             42.5111121636        1.8369134534       27.0369167275  LPSA25    3               1.0000000000
     26977       867  AKDO      H5             42.1859024459        2.5013487930       27.9236884022  LPSA25    3               1.0000000000
     26978       867  AKDO      O5             43.9087452346        2.1286777837       26.8495261943  LPSA25    3               1.0000000000
     26979       867  AKDO      HO5            44.2647893107        1.5714960644       26.1887877298  LPSA25    3               1.0000000000
     26980       867  AKDO      C7             41.9340579596        3.5654705087       25.3258859863  LPSA25    3               1.0000000000
     26981       867  AKDO      H7             43.0205618688        3.8042012094       25.1324849511  LPSA25    3               1.0000000000
     26982       867  AKDO      O7             41.4134480295        4.4380251562       26.3661029982  LPSA25    3               1.0000000000
     26983       867  AKDO      HO7            41.6810260506        5.3596305798       26.1647669547  LPSA25    3               1.0000000000
     26984       867  AKDO      C8             41.0674910351        3.7712281062       24.1539635864  LPSA25    3               1.0000000000
     26985       867  AKDO      H81            41.3531797285        3.0896780552       23.3419478721  LPSA25    3               1.0000000000
     26986       867  AKDO      H82            39.9814521626        3.6521133554       24.2853144505  LPSA25    3               1.0000000000
     26987       867  AKDO      O8             41.2404074869        5.0781706036       23.6541307456  LPSA25    3               1.0000000000
     26988       867  AKDO      HO8            42.1125112446        4.9175233674       23.2473452835  LPSA25    3               1.0000000000
     26989       868  AHEP      C1             37.8400239824       -1.8014677621       27.2793229502  LPSA25    4               2.0000000000
     26990       868  AHEP      H1             36.8151562436       -2.0544665260       26.8517192453  LPSA25    4               2.0000000000
     26991       868  AHEP      C5             39.8409377989       -2.9513040295       28.0185271385  LPSA25    4               2.0000000000
     26992       868  AHEP      H5             40.3593391462       -2.0210369149       27.5619054335  LPSA25    4               2.0000000000
     26993       868  AHEP      O5             38.5623634038       -3.0297920078       27.3942805697  LPSA25    4               2.0000000000
     26994       868  AHEP      C2             37.5787754262       -1.3172809238       28.6827861277  LPSA25    4               2.0000000000
     26995       868  AHEP      H2             37.0660918549       -0.3509628811       28.7442425996  LPSA25    4               2.0000000000
     26996       868  AHEP      O2             36.7714704152       -2.2254293613       29.3407203943  LPSA25    4               2.0000000000
     26997       868  AHEP      HO2            36.1329904528       -1.7639374690       29.8507927467  LPSA25    4               2.0000000000
     26998       868  AHEP      C3             38.8887637703       -1.1865036506       29.4857672188  LPSA25    4               2.0000000000
     26999       868  AHEP      H3             39.5300163081       -0.3327306763       29.2269906369  LPSA25    4               2.0000000000
     27000       868  AHEP      O3             38.6077103571       -0.9249578861       30.7882097304  LPSA25    4               2.0000000000
     27001       868  AHEP      C4             39.6237598854       -2.5019201601       29.4546205599  LPSA25    4               2.0000000000
     27002       868  AHEP      H4             39.1192163742       -3.3517260390       29.9788637739  LPSA25    4               2.0000000000
     27003       868  AHEP      O4             40.8918028402       -2.3268496919       30.0145912217  LPSA25    4               2.0000000000
     27004       868  AHEP      P4             41.3106162846       -2.9486552855       31.4978499249  LPSA25    4               2.0000000000
     27005       868  AHEP      OP42           42.2574384070       -2.0249450512       32.1560374192  LPSA25    4               2.0000000000
     27006       868  AHEP      OP43           41.9597730608       -4.2214264463       31.0397938518  LPSA25    4               2.0000000000
     27007       868  AHEP      OP44           40.0187460127       -3.2767829766       32.3098937101  LPSA25    4               2.0000000000
     27008       868  AHEP      C6             40.6763541553       -4.2634618668       27.7982482844  LPSA25    4               2.0000000000
     27009       868  AHEP      H6             41.7396768219       -3.9981225516       28.0833143566  LPSA25    4               2.0000000000
     27010       868  AHEP      O6             40.1770179882       -5.2451242106       28.7103505027  LPSA25    4               2.0000000000
     27011       868  AHEP      HO6            40.9083907486       -5.6857227974       29.2203787365  LPSA25    4               2.0000000000
     27012       868  AHEP      C7             40.6835187671       -4.7695306197       26.3054198206  LPSA25    4               2.0000000000
     27013       868  AHEP      H71            41.4311934409       -5.6181440696       26.1576126064  LPSA25    4               2.0000000000
     27014       868  AHEP      H72            40.8205242046       -3.8995203937       25.6323487339  LPSA25    4               2.0000000000
     27015       868  AHEP      O7             39.4261616832       -5.3523752400       25.9755159574  LPSA25    4               2.0000000000
     27016       868  AHEP      HO7            39.4211587363       -6.2573694597       26.3256794122  LPSA25    4               2.0000000000
     27017       869  AHEP      C1             39.0781127404        0.2798804466       31.4342177374  LPSA25    5               3.0000000000
     27018       869  AHEP      H1             40.0381916657        0.6396173444       30.9794447437  LPSA25    5               3.0000000000
     27019       869  AHEP      C5             36.8749909730        1.0478698921       31.9165413065  LPSA25    5               3.0000000000
     27020       869  AHEP      H5             36.5565551436       -0.0038406446       31.6031509785  LPSA25    5               3.0000000000
     27021       869  AHEP      O5             38.1188736978        1.3448044922       31.3013865768  LPSA25    5               3.0000000000
     27022       869  AHEP      C2             39.3316843127        0.1287938535       32.9718957084  LPSA25    5               3.0000000000
     27023       869  AHEP      H2             40.0365649029       -0.7558041758       33.0921707216  LPSA25    5               3.0000000000
     27024       869  AHEP      O2             39.9706919027        1.2896806264       33.4691025827  LPSA25    5               3.0000000000
     27025       869  AHEP      HO2            40.8898513767        1.1107268912       33.6403503244  LPSA25    5               3.0000000000
     27026       869  AHEP      C3             38.0200031771       -0.2301367814       33.7004304811  LPSA25    5               3.0000000000
     27027       869  AHEP      H3             37.6237172963       -1.1849264632       33.3375632548  LPSA25    5               3.0000000000
     27028       869  AHEP      O3             38.1091204916       -0.3735424209       35.1462238331  LPSA25    5               3.0000000000
     27029       869  AHEP      C4             37.0718839101        0.8923562046       33.4524658705  LPSA25    5               3.0000000000
     27030       869  AHEP      H4             37.4672964235        1.8709945375       33.8188816395  LPSA25    5               3.0000000000
     27031       869  AHEP      O4             35.7986512070        0.5567054214       34.0881196202  LPSA25    5               3.0000000000
     27032       869  AHEP      P4             35.2261353490        1.4462597935       35.2810123301  LPSA25    5               3.0000000000
     27033       869  AHEP      OP42           34.0350739239        0.6898614943       35.8202965042  LPSA25    5               3.0000000000
     27034       869  AHEP      OP43           34.8115780396        2.7828322865       34.6107506294  LPSA25    5               3.0000000000
     27035       869  AHEP      OP44           36.3641000496        1.6689202384       36.2417033353  LPSA25    5               3.0000000000
     27036       869  AHEP      C6             35.7601740297        2.0393590734       31.5493607386  LPSA25    5               3.0000000000
     27037       869  AHEP      H6             34.7829171604        1.7262511728       31.9533288164  LPSA25    5               3.0000000000
     27038       869  AHEP      O6             36.0747358026        3.3370537138       32.0428602265  LPSA25    5               3.0000000000
     27039       869  AHEP      HO6            36.7632259209        3.8445432856       31.5367188277  LPSA25    5               3.0000000000
     27040       869  AHEP      C7             35.4964811544        1.9861794787       30.0822725317  LPSA25    5               3.0000000000
     27041       869  AHEP      H71            34.4143606714        2.1822815220       29.9169108581  LPSA25    5               3.0000000000
     27042       869  AHEP      H72            35.7211532958        1.0076102224       29.6179339851  LPSA25    5               3.0000000000
     27043       869  AHEP      O7             36.1933899257        3.1056931241       29.4957736452  LPSA25    5               3.0000000000
     27044       870  AHEP      C1             37.3457903620        2.7506023301       28.7926622005  LPSA25    6               4.0000000000
     27045       870  AHEP      H1             37.6488458899        1.6749248116       29.0422981953  LPSA25    6               4.0000000000
     27046       870  AHEP      C5             36.7800739674        4.1232537873       26.9237617191  LPSA25    6               4.0000000000
     27047       870  AHEP      H5             35.8910896422        4.4485337347       27.4818042043  LPSA25    6               4.0000000000
     27048       870  AHEP      O5             37.1718252071        2.8103175166       27.3547530115  LPSA25    6               4.0000000000
     27049       870  AHEP      C2             38.4770350869        3.6344078774       29.2397872647  LPSA25    6               4.0000000000
     27050       870  AHEP      H2             38.6058033342        3.4692485973       30.3523091474  LPSA25    6               4.0000000000
     27051       870  AHEP      O2             39.7176508855        3.2224835555       28.7267108980  LPSA25    6               4.0000000000
     27052       870  AHEP      HO2            40.1666612508        2.8635221889       29.4669064354  LPSA25    6               4.0000000000
     27053       870  AHEP      C3             38.1242026068        5.0909445087       28.8468391403  LPSA25    6               4.0000000000
     27054       870  AHEP      H3             37.2390047169        5.3712460204       29.4311808254  LPSA25    6               4.0000000000
     27055       870  AHEP      O3             39.1898335748        6.0933076069       29.2225362108  LPSA25    6               4.0000000000
     27056       870  AHEP      HO3            39.0513666434        6.5846086052       29.9865592523  LPSA25    6               4.0000000000
     27057       870  AHEP      C4             37.9088075047        5.0944687594       27.2761740859  LPSA25    6               4.0000000000
     27058       870  AHEP      H4             38.8636303777        4.9374859658       26.7944950683  LPSA25    6               4.0000000000
     27059       870  AHEP      O4             37.5454216800        6.3968732641       26.7938835778  LPSA25    6               4.0000000000
     27060       870  AHEP      HO4            36.5845321178        6.5014769388       27.1589530594  LPSA25    6               4.0000000000
     27061       870  AHEP      C6             36.3407989364        4.1709571650       25.4906533340  LPSA25    6               4.0000000000
     27062       870  AHEP      H6             35.9816531345        5.1837258373       25.3442628137  LPSA25    6               4.0000000000
     27063       870  AHEP      O6             37.4835693717        4.0807631357       24.6375675438  LPSA25    6               4.0000000000
     27064       870  AHEP      HO6            37.3848667220        3.3696218792       23.9977784313  LPSA25    6               4.0000000000
     27065       870  AHEP      C7             35.1970979981        3.2499726043       25.1799756221  LPSA25    6               4.0000000000
     27066       870  AHEP      H71            34.8453978782        3.4927114932       24.1408078076  LPSA25    6               4.0000000000
     27067       870  AHEP      H72            34.4140615144        3.4773252772       25.9252229174  LPSA25    6               4.0000000000
     27068       870  AHEP      O7             35.5210981091        1.8929444766       25.2517430265  LPSA25    6               4.0000000000
     27069       870  AHEP      HO7            35.4250171355        1.6739133561       26.2011285002  LPSA25    6               4.0000000000
     27070       871  AGLC      C1             38.4570066088       -1.6542559648       35.6520976122  LPSA25    7               4.0000000000
     27071       871  AGLC      H1             37.7485663849       -2.4335884831       35.2047739589  LPSA25    7               4.0000000000
     27072       871  AGLC      C5             40.7274373415       -1.1961199939       36.0987679218  LPSA25    7               4.0000000000
     27073       871  AGLC      H5             40.5985417942       -0.1371039668       35.8327124756  LPSA25    7               4.0000000000
     27074       871  AGLC      O5             39.7978624626       -1.9879599098       35.4366254460  LPSA25    7               4.0000000000
     27075       871  AGLC      C2             38.2569817749       -1.7296974237       37.1582745954  LPSA25    7               4.0000000000
     27076       871  AGLC      H2             38.6266858344       -2.7661373403       37.4887389927  LPSA25    7               4.0000000000
     27077       871  AGLC      O2             36.8594143386       -1.7962423047       37.5024056006  LPSA25    7               4.0000000000
     27078       871  AGLC      HO2            36.5927989139       -0.8905486516       37.6430208865  LPSA25    7               4.0000000000
     27079       871  AGLC      C3             39.1267706000       -0.9226169910       37.9903802326  LPSA25    7               4.0000000000
     27080       871  AGLC      H3             38.9187739529        0.0999001885       37.6727250444  LPSA25    7               4.0000000000
     27081       871  AGLC      O3             38.8505432845       -0.8961789922       39.4204481292  LPSA25    7               4.0000000000
     27082       871  AGLC      C4             40.5040807809       -1.3672156695       37.5928595998  LPSA25    7               4.0000000000
     27083       871  AGLC      H4             40.6968802364       -2.4431171752       37.9560286200  LPSA25    7               4.0000000000
     27084       871  AGLC      O4             41.3955817333       -0.4231459589       38.2243117391  LPSA25    7               4.0000000000
     27085       871  AGLC      HO4            42.1469488258       -0.8168823171       38.6132003238  LPSA25    7               4.0000000000
     27086       871  AGLC      C6             42.1424254361       -1.4574251529       35.5245160098  LPSA25    7               4.0000000000
     27087       871  AGLC      H61            42.0584953617       -1.3437761842       34.4135318240  LPSA25    7               4.0000000000
     27088       871  AGLC      H62            42.9740792708       -0.8079739849       35.8722646349  LPSA25    7               4.0000000000
     27089       871  AGLC      O6             42.4293841682       -2.8795212648       35.6892983147  LPSA25    7               4.0000000000
     27090       871  AGLC      HO6            42.9606893933       -2.8350896710       36.4386090630  LPSA25    7               4.0000000000
     27091       872  AGLC      C1             38.4237655264        0.3159321192       39.9328324507  LPSA25    8               5.0000000000
     27092       872  AGLC      H1             39.0886872147        1.1271500604       39.5884769495  LPSA25    8               5.0000000000
     27093       872  AGLC      C5             36.0092289871       -0.1882335089       40.2153373402  LPSA25    8               5.0000000000
     27094       872  AGLC      H5             36.2043191066       -1.2001236148       39.8400606936  LPSA25    8               5.0000000000
     27095       872  AGLC      O5             37.0303399723        0.6580827926       39.6195505863  LPSA25    8               5.0000000000
     27096       872  AGLC      C2             38.5300407569        0.3322854597       41.4170311384  LPSA25    8               5.0000000000
     27097       872  AGLC      H2             38.3264201959        1.4012518216       41.6529594578  LPSA25    8               5.0000000000
     27098       872  AGLC      O2             39.8424517633        0.1743906389       41.9438754185  LPSA25    8               5.0000000000
     27099       872  AGLC      C3             37.5620823352       -0.5415343112       42.1297388169  LPSA25    8               5.0000000000
     27100       872  AGLC      H3             37.8499447152       -1.5301687378       41.6567950186  LPSA25    8               5.0000000000
     27101       872  AGLC      O3             37.8293926073       -0.5312463115       43.5370978028  LPSA25    8               5.0000000000
     27102       872  AGLC      C4             36.2249007801       -0.0993134042       41.7603093222  LPSA25    8               5.0000000000
     27103       872  AGLC      H4             36.0700670189        0.9262670980       42.0401368658  LPSA25    8               5.0000000000
     27104       872  AGLC      O4             35.2412726223       -0.8848945559       42.3914819843  LPSA25    8               5.0000000000
     27105       872  AGLC      HO4            35.5244161723       -1.7663079523       42.3800652601  LPSA25    8               5.0000000000
     27106       872  AGLC      C6             34.5575902281        0.0480364554       39.7357334439  LPSA25    8               5.0000000000
     27107       872  AGLC      H61            34.4575672934        0.1645759880       38.6468043611  LPSA25    8               5.0000000000
     27108       872  AGLC      H62            33.8555998317       -0.7107180117       40.0276014644  LPSA25    8               5.0000000000
     27109       872  AGLC      O6             33.9444655350        1.1675282548       40.3040784562  LPSA25    8               5.0000000000
     27110       872  AGLC      HO6            33.6256543376        0.9973626825       41.2121845210  LPSA25    8               5.0000000000
     27111       873  AGAL      C1             40.8796214485        0.9714294011       41.4573847493  LPSA25    9               6.0000000000
     27112       873  AGAL      H1             40.8470241258        1.0067729220       40.3420235153  LPSA25    9               6.0000000000
     27113       873  AGAL      C5             41.1118455665        2.4888098711       43.2125447641  LPSA25    9               6.0000000000
     27114       873  AGAL      H5             40.4049232750        1.7376118424       43.7424973645  LPSA25    9               6.0000000000
     27115       873  AGAL      O5             40.9052879349        2.3798861980       41.8451689838  LPSA25    9               6.0000000000
     27116       873  AGAL      C2             42.1857560920        0.3269754432       41.8393925249  LPSA25    9               6.0000000000
     27117       873  AGAL      H2             42.9992949263        0.8951576417       41.4115621152  LPSA25    9               6.0000000000
     27118       873  AGAL      O2             42.3891357559       -0.9267803888       41.1608705954  LPSA25    9               6.0000000000
     27119       873  AGAL      C3             42.4475196122        0.4258736692       43.3264191845  LPSA25    9               6.0000000000
     27120       873  AGAL      H3             41.6580828846       -0.1895797411       43.9424563891  LPSA25    9               6.0000000000
     27121       873  AGAL      O3             43.5990903520       -0.2401840847       43.7491515633  LPSA25    9               6.0000000000
     27122       873  AGAL      HO3            43.6948925716       -1.0017480492       43.1585960960  LPSA25    9               6.0000000000
     27123       873  AGAL      C4             42.4457016169        1.8658635244       43.6505755014  LPSA25    9               6.0000000000
     27124       873  AGAL      H4             42.5265898773        2.0680169103       44.7734818408  LPSA25    9               6.0000000000
     27125       873  AGAL      O4             43.4614070117        2.6084606421       43.0499075873  LPSA25    9               6.0000000000
     27126       873  AGAL      HO4            43.6714398367        3.3305238461       43.6622427513  LPSA25    9               6.0000000000
     27127       873  AGAL      C6             40.6913719730        3.8210278198       43.8349081587  LPSA25    9               6.0000000000
     27128       873  AGAL      H61            39.6203043648        4.0875446265       43.6417203355  LPSA25    9               6.0000000000
     27129       873  AGAL      H62            40.7579774078        3.8577011802       44.9292747136  LPSA25    9               6.0000000000
     27130       873  AGAL      O6             41.5113107765        4.8660551127       43.4062227539  LPSA25    9               6.0000000000
     27131       873  AGAL      HO6            41.0327868221        5.3265083029       42.6923548993  LPSA25    9               6.0000000000
     27132       874  AGAL      C1             42.7871941807       -2.1862079809       41.7517281777  LPSA25    10              7.0000000000
     27133       874  AGAL      H1             43.8768769535       -2.0833119196       41.8429972083  LPSA25    10              7.0000000000
     27134       874  AGAL      C5             40.8835370463       -2.8580818664       43.0613392294  LPSA25    10              7.0000000000
     27135       874  AGAL      H5             40.3714100395       -1.8913597870       42.6233508762  LPSA25    10              7.0000000000
     27136       874  AGAL      O5             42.3075809314       -2.6415496494       43.0470213554  LPSA25    10              7.0000000000
     27137       874  AGAL      C2             42.4320564877       -3.2752059174       40.7227968417  LPSA25    10              7.0000000000
     27138       874  AGAL      H2             43.0500315616       -4.2010694937       41.0433947026  LPSA25    10              7.0000000000
     27139       874  AGAL      O2             43.1182124968       -3.1562869004       39.5532095562  LPSA25    10              7.0000000000
     27140       874  AGAL      HO2            43.5719126552       -3.9620775488       39.3379401176  LPSA25    10              7.0000000000
     27141       874  AGAL      C3             40.9728611225       -3.5595769039       40.6928251787  LPSA25    10              7.0000000000
     27142       874  AGAL      H3             40.5342409249       -2.5895363462       40.4679648945  LPSA25    10              7.0000000000
     27143       874  AGAL      O3             40.5712581098       -4.5301904892       39.7732034444  LPSA25    10              7.0000000000
     27144       874  AGAL      HO3            40.1386000406       -4.0650763857       39.0151094934  LPSA25    10              7.0000000000
     27145       874  AGAL      C4             40.5304505842       -3.9806885012       42.0524071915  LPSA25    10              7.0000000000
     27146       874  AGAL      H4             39.4313412440       -4.1006628675       42.1099272557  LPSA25    10              7.0000000000
     27147       874  AGAL      O4             41.0962448632       -5.1793972979       42.4965010455  LPSA25    10              7.0000000000
     27148       874  AGAL      HO4            42.0129068731       -4.9821400943       42.5675127347  LPSA25    10              7.0000000000
     27149       874  AGAL      C6             40.2395037671       -3.0570984718       44.3959537205  LPSA25    10              7.0000000000
     27150       874  AGAL      H61            40.5112837101       -2.2805829981       45.1044438806  LPSA25    10              7.0000000000
     27151       874  AGAL      H62            39.0614859563       -2.9130232423       44.2564473849  LPSA25    10              7.0000000000
     27152       874  AGAL      O6             40.4095483723       -4.2991213713       45.1112340130  LPSA25    10              7.0000000000
     27153       874  AGAL      HO6            40.9126808045       -4.1086207052       45.9237589285  LPSA25    10              7.0000000000
     27154       875  BGLC      C1             37.2047743243        0.2961758142       44.5018065681  LPSA25    11              6.0000000000
     27155       875  BGLC      H1             36.2267387185       -0.1535503094       44.5883763758  LPSA25    11              6.0000000000
     27156       875  BGLC      C5             36.5834966128        2.6422764300       45.1248117688  LPSA25    11              6.0000000000
     27157       875  BGLC      H5             35.5008465228        2.3731245728       45.3871201921  LPSA25    11              6.0000000000
     27158       875  BGLC      O5             37.2079915012        1.7190342224       44.0830650888  LPSA25    11              6.0000000000
     27159       875  BGLC      C2             37.9695127622        0.2050167953       45.7977571702  LPSA25    11              6.0000000000
     27160       875  BGLC      H2             39.0549465896        0.4692489403       45.7293388291  LPSA25    11              6.0000000000
     27161       875  BGLC      O2             38.0095522521       -1.1844637091       46.0886391483  LPSA25    11              6.0000000000
     27162       875  BGLC      HO2            38.8947970275       -1.4288546938       46.2788110113  LPSA25    11              6.0000000000
     27163       875  BGLC      C3             37.4417266688        1.0602801041       46.8736276645  LPSA25    11              6.0000000000
     27164       875  BGLC      H3             36.3982305282        0.6410259431       47.1984917368  LPSA25    11              6.0000000000
     27165       875  BGLC      O3             38.2892984124        0.9021895025       48.0056213318  LPSA25    11              6.0000000000
     27166       875  BGLC      C4             37.3976421401        2.4409754727       46.4390836423  LPSA25    11              6.0000000000
     27167       875  BGLC      H4             38.4769439346        2.7281263322       46.2001611147  LPSA25    11              6.0000000000
     27168       875  BGLC      O4             36.9818057787        3.3135288798       47.4766894645  LPSA25    11              6.0000000000
     27169       875  BGLC      HO4            37.6940837177        3.3683677402       48.1247908570  LPSA25    11              6.0000000000
     27170       875  BGLC      C6             36.4514557120        4.0545876801       44.5291127165  LPSA25    11              6.0000000000
     27171       875  BGLC      H61            36.3308728950        4.8534803022       45.2481190913  LPSA25    11              6.0000000000
     27172       875  BGLC      H62            37.3554164085        4.2202136589       43.8913252379  LPSA25    11              6.0000000000
     27173       875  BGLC      O6             35.3756403242        4.2087238456       43.5637942269  LPSA25    11              6.0000000000
     27174       875  BGLC      HO6            34.7834062011        4.7705663881       44.0054369298  LPSA25    11              6.0000000000
     27175       876  BGLCNA    C1             37.7858349814        0.5862231099       49.3238540420  LPSA25    12              7.0000000000
     27176       876  BGLCNA    H1             37.6979271880       -0.5506398938       49.3874222992  LPSA25    12              7.0000000000
     27177       876  BGLCNA    C5             35.9676274684        0.7608179238       50.8763077070  LPSA25    12              7.0000000000
     27178       876  BGLCNA    H5             35.8732815673       -0.4118744580       50.9814236466  LPSA25    12              7.0000000000
     27179       876  BGLCNA    O5             36.4913942329        1.1722992356       49.5875345322  LPSA25    12              7.0000000000
     27180       876  BGLCNA    C2             38.7622195515        1.1088176994       50.3245054808  LPSA25    12              7.0000000000
     27181       876  BGLCNA    H2             38.6305028172        2.2732040195       50.3375086743  LPSA25    12              7.0000000000
     27182       876  BGLCNA    N              40.1185328743        0.6041020049       50.0347611965  LPSA25    12              7.0000000000
     27183       876  BGLCNA    HN             40.0798476185       -0.3390985977       49.9972643287  LPSA25    12              7.0000000000
     27184       876  BGLCNA    C              41.1195798337        1.4182646862       49.8903426450  LPSA25    12              7.0000000000
     27185       876  BGLCNA    O              40.9642688355        2.6154839226       50.0855928044  LPSA25    12              7.0000000000
     27186       876  BGLCNA    CT             42.4485962720        0.8058619635       49.5677689528  LPSA25    12              7.0000000000
     27187       876  BGLCNA    HT1            43.1748495729        0.9252906315       50.3918503408  LPSA25    12              7.0000000000
     27188       876  BGLCNA    HT2            42.9738416370        1.4229279774       48.7104760971  LPSA25    12              7.0000000000
     27189       876  BGLCNA    HT3            42.2439454029       -0.2407312044       49.2316245990  LPSA25    12              7.0000000000
     27190       876  BGLCNA    C3             38.3563869638        0.7368190164       51.6995695120  LPSA25    12              7.0000000000
     27191       876  BGLCNA    H3             38.3916500785       -0.4375701682       51.8605307917  LPSA25    12              7.0000000000
     27192       876  BGLCNA    O3             39.2888314312        1.1705948614       52.7272334264  LPSA25    12              7.0000000000
     27193       876  BGLCNA    C4             36.9895969715        1.2855145416       51.9591692987  LPSA25    12              7.0000000000
     27194       876  BGLCNA    H4             36.9189525574        2.4372198681       51.9037868612  LPSA25    12              7.0000000000
     27195       876  BGLCNA    O4             36.5311914592        0.9614647253       53.2294962294  LPSA25    12              7.0000000000
     27196       876  BGLCNA    HO4            36.2403169220        0.0044960470       53.2834945119  LPSA25    12              7.0000000000
     27197       876  BGLCNA    C6             34.5180939390        1.2817206269       50.9528560558  LPSA25    12              7.0000000000
     27198       876  BGLCNA    H61            34.1023114742        1.0874858604       51.9144325068  LPSA25    12              7.0000000000
     27199       876  BGLCNA    H62            34.6363355493        2.3525140282       50.8287962869  LPSA25    12              7.0000000000
     27200       876  BGLCNA    O6             33.7692914449        0.8133539633       49.8597561973  LPSA25    12              7.0000000000
     27201       876  BGLCNA    HO6            33.4080296469        0.0022247049       50.1903398796  LPSA25    12              7.0000000000
     27202       877  AGAL      C1             39.5422717088        0.2219228828       53.8132743488  LPSA25    13              8.0000000000
     27203       877  AGAL      H1             38.5705759827       -0.1624810468       54.1959401301  LPSA25    13              8.0000000000
     27204       877  AGAL      C5             41.8612022278       -0.1820131488       53.2950732168  LPSA25    13              8.0000000000
     27205       877  AGAL      H5             41.7212624067        0.6114098778       52.5641412600  LPSA25    13              8.0000000000
     27206       877  AGAL      O5             40.5706717896       -0.7812370289       53.4918445955  LPSA25    13              8.0000000000
     27207       877  AGAL      C2             40.1109537338        0.8793776879       55.1010141246  LPSA25    13              8.0000000000
     27208       877  AGAL      H2             40.4332119947        0.0744839642       55.7917211299  LPSA25    13              8.0000000000
     27209       877  AGAL      O2             39.1549763646        1.6749540566       55.7701983428  LPSA25    13              8.0000000000
     27210       877  AGAL      C3             41.5084313251        1.5131498459       54.8979691660  LPSA25    13              8.0000000000
     27211       877  AGAL      H3             41.4565336855        2.1857947455       54.0477453328  LPSA25    13              8.0000000000
     27212       877  AGAL      O3             41.8963893017        2.3619437269       55.9888739531  LPSA25    13              8.0000000000
     27213       877  AGAL      HO3            42.3409746001        3.1466604194       55.6848713412  LPSA25    13              8.0000000000
     27214       877  AGAL      C4             42.4559678410        0.5133991878       54.5514025965  LPSA25    13              8.0000000000
     27215       877  AGAL      H4             43.4491004776        0.9860070735       54.1954731349  LPSA25    13              8.0000000000
     27216       877  AGAL      O4             42.6941338915       -0.4287584150       55.5743212917  LPSA25    13              8.0000000000
     27217       877  AGAL      HO4            41.9206518998       -0.7660746674       56.0499681296  LPSA25    13              8.0000000000
     27218       877  AGAL      C6             42.8621896565       -1.0255604578       52.5301443486  LPSA25    13              8.0000000000
     27219       877  AGAL      H61            42.3875188274       -1.4301006116       51.6253596531  LPSA25    13              8.0000000000
     27220       877  AGAL      H62            43.7824111158       -0.4107624532       52.3684678279  LPSA25    13              8.0000000000
     27221       877  AGAL      O6             43.2940351444       -2.1296526811       53.2985910507  LPSA25    13              8.0000000000
     27222       877  AGAL      HO6            43.9632044415       -1.8224769443       53.9299633642  LPSA25    13              8.0000000000
     27223       878  ARHM      C1             38.6478590216        1.2746264663       57.0117786358  LPSA25    14              9.0000000000
     27224       878  ARHM      H1             38.7168963364        0.1670834279       56.9981767125  LPSA25    14              9.0000000000
     27225       878  ARHM      C5             37.0928305441        2.9974786908       57.1930138837  LPSA25    14              9.0000000000
     27226       878  ARHM      H5             37.5106214048        3.4052880808       56.1976867078  LPSA25    14              9.0000000000
     27227       878  ARHM      O5             37.2842706496        1.6322416113       57.1718909996  LPSA25    14              9.0000000000
     27228       878  ARHM      C2             39.4967370376        1.8983773746       58.1413490634  LPSA25    14              9.0000000000
     27229       878  ARHM      H2             40.5125900830        1.6230505834       57.8875987320  LPSA25    14              9.0000000000
     27230       878  ARHM      O2             39.1593391256        1.4933124823       59.4330148990  LPSA25    14              9.0000000000
     27231       878  ARHM      C3             39.3319871179        3.3903131791       58.1095432995  LPSA25    14              9.0000000000
     27232       878  ARHM      H3             39.4905327457        3.7310089072       57.0440121713  LPSA25    14              9.0000000000
     27233       878  ARHM      O3             40.2705318255        4.1010586338       58.8567888868  LPSA25    14              9.0000000000
     27234       878  ARHM      HO3            39.9989393943        3.9633929088       59.8104957846  LPSA25    14              9.0000000000
     27235       878  ARHM      C4             37.8921616773        3.6677569447       58.3490442956  LPSA25    14              9.0000000000
     27236       878  ARHM      H4             37.4540752234        3.2602366560       59.2902338481  LPSA25    14              9.0000000000
     27237       878  ARHM      O4             37.6952182064        5.1053939818       58.4446785014  LPSA25    14              9.0000000000
     27238       878  ARHM      HO4            37.4304263685        5.4474370712       59.2969967688  LPSA25    14              9.0000000000
     27239       878  ARHM      C6             35.5886580547        3.3136460699       57.2492155848  LPSA25    14              9.0000000000
     27240       878  ARHM      H61            34.9415832077        2.6907926137       56.5358243550  LPSA25    14              9.0000000000
     27241       878  ARHM      H62            35.3055902193        3.2161459018       58.3170764683  LPSA25    14              9.0000000000
     27242       878  ARHM      H63            35.2325476313        4.2998958863       56.9421594120  LPSA25    14              9.0000000000
     27243       879  ARHM      C1             39.0547023312        0.1894775474       59.7267990175  LPSA25    15             10.0000000000
     27244       879  ARHM      H1             39.6780769126       -0.4293913828       59.0458905905  LPSA25    15             10.0000000000
     27245       879  ARHM      C5             36.7481717878        0.2174374612       60.6468530148  LPSA25    15             10.0000000000
     27246       879  ARHM      H5             36.5296175716        1.3133007126       60.4457705401  LPSA25    15             10.0000000000
     27247       879  ARHM      O5             37.6960536683       -0.3128474338       59.6688136410  LPSA25    15             10.0000000000
     27248       879  ARHM      C2             39.5760190161       -0.0581041305       61.1407671534  LPSA25    15             10.0000000000
     27249       879  ARHM      H2             40.6133549710        0.4465273183       61.2133420761  LPSA25    15             10.0000000000
     27250       879  ARHM      O2             39.6497133673       -1.5031230171       61.3234079317  LPSA25    15             10.0000000000
     27251       879  ARHM      C3             38.6517056573        0.5975320763       62.1677656617  LPSA25    15             10.0000000000
     27252       879  ARHM      H3             38.5561925058        1.6767599825       61.8628392879  LPSA25    15             10.0000000000
     27253       879  ARHM      O3             39.4059267367        0.6122975051       63.4092175029  LPSA25    15             10.0000000000
     27254       879  ARHM      C4             37.3349695807       -0.0033168098       62.0487117432  LPSA25    15             10.0000000000
     27255       879  ARHM      H4             37.4523003834       -1.1559831737       62.1496903561  LPSA25    15             10.0000000000
     27256       879  ARHM      O4             36.3205971052        0.4201829721       62.9635513464  LPSA25    15             10.0000000000
     27257       879  ARHM      HO4            35.6320079697       -0.2275079733       62.9565205260  LPSA25    15             10.0000000000
     27258       879  ARHM      C6             35.4040022125       -0.4438364267       60.4460959132  LPSA25    15             10.0000000000
     27259       879  ARHM      H61            34.5831266951       -0.0393434365       61.0956562646  LPSA25    15             10.0000000000
     27260       879  ARHM      H62            35.1792389275       -0.4984598867       59.3910198679  LPSA25    15             10.0000000000
     27261       879  ARHM      H63            35.3805390892       -1.4918872897       60.8578185328  LPSA25    15             10.0000000000
     27262       880  BMANNA    C1             40.2068932157       -2.0359226511       62.5145562334  LPSA25    16             11.0000000000
     27263       880  BMANNA    H1             39.4281383973       -1.8443858889       63.3432051365  LPSA25    16             11.0000000000
     27264       880  BMANNA    C5             41.8615169194       -2.0103304048       64.1851548173  LPSA25    16             11.0000000000
     27265       880  BMANNA    H5             41.1155785968       -1.8798729575       64.9800677769  LPSA25    16             11.0000000000
     27266       880  BMANNA    O5             41.4382253261       -1.4469565683       62.9158851071  LPSA25    16             11.0000000000
     27267       880  BMANNA    C2             40.3740429921       -3.5551605639       62.2781089586  LPSA25    16             11.0000000000
     27268       880  BMANNA    H2             39.3479271703       -3.9055863652       61.9912908466  LPSA25    16             11.0000000000
     27269       880  BMANNA    N              41.2931848381       -3.9994571151       61.2264456342  LPSA25    16             11.0000000000
     27270       880  BMANNA    HN             42.1969292082       -4.1118977740       61.5688724990  LPSA25    16             11.0000000000
     27271       880  BMANNA    C              40.9686579223       -4.1813709336       59.9704010620  LPSA25    16             11.0000000000
     27272       880  BMANNA    O              39.7825672530       -4.0596656815       59.5582221915  LPSA25    16             11.0000000000
     27273       880  BMANNA    CT             42.0977791411       -4.5519896111       59.1331689300  LPSA25    16             11.0000000000
     27274       880  BMANNA    HT1            42.1441261006       -5.5875222059       58.8344492748  LPSA25    16             11.0000000000
     27275       880  BMANNA    HT2            43.0912035001       -4.3020318395       59.5043001239  LPSA25    16             11.0000000000
     27276       880  BMANNA    HT3            42.0442316030       -4.0309263208       58.1231520073  LPSA25    16             11.0000000000
     27277       880  BMANNA    C3             40.7744779319       -4.1341266615       63.6119771117  LPSA25    16             11.0000000000
     27278       880  BMANNA    H3             39.9951187082       -3.9018527660       64.3839812837  LPSA25    16             11.0000000000
     27279       880  BMANNA    O3             40.8649672073       -5.5297636001       63.6122488842  LPSA25    16             11.0000000000
     27280       880  BMANNA    HO3            40.3228442496       -5.9022336573       64.2950500102  LPSA25    16             11.0000000000
     27281       880  BMANNA    C4             42.0962196563       -3.5311592907       64.1045846713  LPSA25    16             11.0000000000
     27282       880  BMANNA    H4             42.9332496613       -3.7435727744       63.4124605202  LPSA25    16             11.0000000000
     27283       880  BMANNA    O4             42.5860769655       -3.9789154712       65.3816866120  LPSA25    16             11.0000000000
     27284       880  BMANNA    HO4            43.5331772242       -3.8590023850       65.4353184152  LPSA25    16             11.0000000000
     27285       880  BMANNA    C6             43.1133154768       -1.3206992256       64.7427751243  LPSA25    16             11.0000000000
     27286       880  BMANNA    H61            43.0487861089       -1.3816441904       65.8875394407  LPSA25    16             11.0000000000
     27287       880  BMANNA    H62            44.0234558633       -1.8422278384       64.4389269682  LPSA25    16             11.0000000000
     27288       880  BMANNA    O6             43.2430903269        0.0646628209       64.3660927576  LPSA25    16             11.0000000000
     27289       880  BMANNA    HO6            44.1102612504        0.0618729356       63.9036969990  LPSA25    16             11.0000000000
     27290       881  BGLCNA    C1             39.2492137224        1.7115656053       64.1715778089  LPSA25    17             11.0000000000
     27291       881  BGLCNA    H1             38.2211743677        2.1904311063       63.9082176002  LPSA25    17             11.0000000000
     27292       881  BGLCNA    C5             40.0909705764        3.9732010651       64.5563394407  LPSA25    17             11.0000000000
     27293       881  BGLCNA    H5             39.0952863685        4.4881011664       64.2825289487  LPSA25    17             11.0000000000
     27294       881  BGLCNA    O5             40.1775714848        2.7655258300       63.7849982893  LPSA25    17             11.0000000000
     27295       881  BGLCNA    C2             39.4249598306        1.3093304825       65.5899343931  LPSA25    17             11.0000000000
     27296       881  BGLCNA    H2             40.4518362192        0.8680256201       65.8249043900  LPSA25    17             11.0000000000
     27297       881  BGLCNA    N              38.5833603048        0.2210432958       65.8849826081  LPSA25    17             11.0000000000
     27298       881  BGLCNA    HN             37.6824063692        0.1642241826       65.4150135415  LPSA25    17             11.0000000000
     27299       881  BGLCNA    C              38.7006775483       -0.7204639582       66.8043620798  LPSA25    17             11.0000000000
     27300       881  BGLCNA    O              39.7193162354       -0.8492684572       67.4729873017  LPSA25    17             11.0000000000
     27301       881  BGLCNA    CT             37.5330126640       -1.6164403474       66.9728872304  LPSA25    17             11.0000000000
     27302       881  BGLCNA    HT1            37.5568546075       -2.6383021195       66.5529393721  LPSA25    17             11.0000000000
     27303       881  BGLCNA    HT2            36.6289956600       -1.0363795530       66.7043805047  LPSA25    17             11.0000000000
     27304       881  BGLCNA    HT3            37.3367903825       -1.8074312304       68.1408097225  LPSA25    17             11.0000000000
     27305       881  BGLCNA    C3             39.2137613064        2.5638472413       66.4076579941  LPSA25    17             11.0000000000
     27306       881  BGLCNA    H3             38.1850644046        2.8993501906       66.0441361901  LPSA25    17             11.0000000000
     27307       881  BGLCNA    O3             39.1082303811        2.1584880150       67.8205355914  LPSA25    17             11.0000000000
     27308       881  BGLCNA    C4             40.2975164642        3.5712242495       66.0496966154  LPSA25    17             11.0000000000
     27309       881  BGLCNA    H4             41.3424632302        3.1047397110       66.1123142204  LPSA25    17             11.0000000000
     27310       881  BGLCNA    O4             40.3075538522        4.6856458911       66.9186044206  LPSA25    17             11.0000000000
     27311       881  BGLCNA    HO4            40.9420667992        5.3638552892       66.7204061560  LPSA25    17             11.0000000000
     27312       881  BGLCNA    C6             41.2037395582        4.9463542766       64.1200051697  LPSA25    17             11.0000000000
     27313       881  BGLCNA    H61            40.8348563770        5.9535038095       64.1272946536  LPSA25    17             11.0000000000
     27314       881  BGLCNA    H62            42.0929727047        4.8961493778       64.8212395067  LPSA25    17             11.0000000000
     27315       881  BGLCNA    O6             41.6767214309        4.6791473653       62.7926115083  LPSA25    17             11.0000000000
     27316       881  BGLCNA    HO6            40.9486520765        4.7512261841       62.1856770532  LPSA25    17             11.0000000000
     27317       882  AGAL      C1             38.1715239084        2.9248831029       68.6198653987  LPSA25    18             12.0000000000
     27318       882  AGAL      H1             38.6434351040        3.9344315424       68.8082567594  LPSA25    18             12.0000000000
     27319       882  AGAL      C5             36.1667071814        1.8402513984       67.8636918791  LPSA25    18             12.0000000000
     27320       882  AGAL      H5             36.8257337566        1.0965405880       67.4068928888  LPSA25    18             12.0000000000
     27321       882  AGAL      O5             36.9243562416        3.0980875405       67.9834320655  LPSA25    18             12.0000000000
     27322       882  AGAL      C2             37.8663001893        2.2276008995       70.0000206359  LPSA25    18             12.0000000000
     27323       882  AGAL      H2             37.1286001606        2.9656872113       70.3908489884  LPSA25    18             12.0000000000
     27324       882  AGAL      O2             38.9745750474        2.2983923342       70.8342757016  LPSA25    18             12.0000000000
     27325       882  AGAL      C3             37.1350074322        0.9371910155       69.8682924558  LPSA25    18             12.0000000000
     27326       882  AGAL      H3             37.7027487535        0.2751066532       69.0958348126  LPSA25    18             12.0000000000
     27327       882  AGAL      O3             37.0472465612        0.2426845085       71.0758896640  LPSA25    18             12.0000000000
     27328       882  AGAL      HO3            37.2695068624       -0.6837861535       70.9682873819  LPSA25    18             12.0000000000
     27329       882  AGAL      C4             35.8620859398        1.1786793483       69.1634745928  LPSA25    18             12.0000000000
     27330       882  AGAL      H4             35.2690482160        0.2703940260       68.9039691178  LPSA25    18             12.0000000000
     27331       882  AGAL      O4             34.9773296915        1.9963254173       69.9734134928  LPSA25    18             12.0000000000
     27332       882  AGAL      HO4            34.5920839280        1.4234045736       70.7236544006  LPSA25    18             12.0000000000
     27333       882  AGAL      C6             35.1740060246        2.0263129077       66.8042742825  LPSA25    18             12.0000000000
     27334       882  AGAL      H61            35.7298776186        2.2302908393       65.8877991861  LPSA25    18             12.0000000000
     27335       882  AGAL      H62            34.6808751722        1.0283117057       66.6499463921  LPSA25    18             12.0000000000
     27336       882  AGAL      O6             34.3001800135        3.0201732281       66.9803033045  LPSA25    18             12.0000000000
     27337       882  AGAL      HO6            34.4787535360        3.6504113746       67.6707071977  LPSA25    18             12.0000000000
     27338       883  ARHM      C1             38.5598973222        2.6452756849       72.1803514454  LPSA25    19             13.0000000000
     27339       883  ARHM      H1             37.5181194387        2.4361776449       72.3185909119  LPSA25    19             13.0000000000
     27340       883  ARHM      C5             39.8464277388        4.6360201972       72.2512180912  LPSA25    19             13.0000000000
     27341       883  ARHM      H5             40.1816866463        4.3792077994       71.2133247196  LPSA25    19             13.0000000000
     27342       883  ARHM      O5             38.5493414652        4.0604310503       72.4162684983  LPSA25    19             13.0000000000
     27343       883  ARHM      C2             39.4742542963        1.9369978558       73.1100514097  LPSA25    19             13.0000000000
     27344       883  ARHM      H2             39.5927973281        0.8975466444       72.9420985559  LPSA25    19             13.0000000000
     27345       883  ARHM      O2             39.0354611257        2.1079201781       74.4131644751  LPSA25    19             13.0000000000
     27346       883  ARHM      C3             40.8839690395        2.5938310225       72.9859276785  LPSA25    19             13.0000000000
     27347       883  ARHM      H3             41.1886919330        2.4957293460       71.9471750908  LPSA25    19             13.0000000000
     27348       883  ARHM      O3             41.8146106368        1.9325147626       73.7644258584  LPSA25    19             13.0000000000
     27349       883  ARHM      HO3            41.4341109205        1.8546978090       74.6464134549  LPSA25    19             13.0000000000
     27350       883  ARHM      C4             40.8703378171        4.0412350166       73.2443334127  LPSA25    19             13.0000000000
     27351       883  ARHM      H4             40.4991004048        4.1584199071       74.2703943704  LPSA25    19             13.0000000000
     27352       883  ARHM      O4             42.1092806428        4.6733413774       73.1708570575  LPSA25    19             13.0000000000
     27353       883  ARHM      HO4            42.3949559059        4.5954142016       72.2126258713  LPSA25    19             13.0000000000
     27354       883  ARHM      C6             39.7877126114        6.1733268934       72.3031700958  LPSA25    19             13.0000000000
     27355       883  ARHM      H61            39.0753867875        6.3735973803       71.5186681997  LPSA25    19             13.0000000000
     27356       883  ARHM      H62            39.4205960595        6.6176008397       73.2001761489  LPSA25    19             13.0000000000
     27357       883  ARHM      H63            40.7464732148        6.6532980717       72.0875448643  LPSA25    19             13.0000000000
     27358       884  ARHM      C1             37.9369612627        1.3060507698       74.6981797177  LPSA25    20             14.0000000000
     27359       884  ARHM      H1             37.7420760168        0.5240965473       73.8936196974  LPSA25    20             14.0000000000
     27360       884  ARHM      C5             36.6462216231        2.8530012693       75.9960310464  LPSA25    20             14.0000000000
     27361       884  ARHM      H5             37.5052673438        3.5463766015       75.8071112250  LPSA25    20             14.0000000000
     27362       884  ARHM      O5             36.6806270556        1.9622968499       74.8741575474  LPSA25    20             14.0000000000
     27363       884  ARHM      C2             38.2233702517        0.4708534043       75.9438944127  LPSA25    20             14.0000000000
     27364       884  ARHM      H2             39.2869486808        0.0115298873       75.7904987900  LPSA25    20             14.0000000000
     27365       884  ARHM      O2             37.2299378257       -0.5442700391       76.2145535291  LPSA25    20             14.0000000000
     27366       884  ARHM      C3             38.1891803370        1.4062614477       77.0746584307  LPSA25    20             14.0000000000
     27367       884  ARHM      H3             39.0097247894        2.2074053048       76.9570890266  LPSA25    20             14.0000000000
     27368       884  ARHM      O3             38.5593053497        0.6323273519       78.2431898216  LPSA25    20             14.0000000000
     27369       884  ARHM      C4             36.8741758720        2.0970949627       77.2147849866  LPSA25    20             14.0000000000
     27370       884  ARHM      H4             36.0498061384        1.4180051936       77.2882629629  LPSA25    20             14.0000000000
     27371       884  ARHM      O4             36.8850346609        2.8826468551       78.4294019453  LPSA25    20             14.0000000000
     27372       884  ARHM      HO4            36.3109270738        3.5316780541       78.0714846557  LPSA25    20             14.0000000000
     27373       884  ARHM      C6             35.3980116259        3.6323773325       75.9818768401  LPSA25    20             14.0000000000
     27374       884  ARHM      H61            34.4054255459        3.0939919410       76.0487105533  LPSA25    20             14.0000000000
     27375       884  ARHM      H62            35.4324101570        4.4078290796       76.7492574554  LPSA25    20             14.0000000000
     27376       884  ARHM      H63            35.2173740624        4.2134753286       75.0059134709  LPSA25    20             14.0000000000
     27377       885  BMANNA    C1             37.5843728091       -1.6390053262       75.4501725836  LPSA25    21             15.0000000000
     27378       885  BMANNA    H1             38.3848646278       -1.3668546294       74.6495731600  LPSA25    21             15.0000000000
     27379       885  BMANNA    C5             36.9704631202       -3.0781167497       73.6578092950  LPSA25    21             15.0000000000
     27380       885  BMANNA    H5             37.9427069255       -2.8423155533       73.0422409194  LPSA25    21             15.0000000000
     27381       885  BMANNA    O5             36.4886088137       -2.0119441961       74.5460975074  LPSA25    21             15.0000000000
     27382       885  BMANNA    C2             37.9745702176       -2.7845954239       76.3268603500  LPSA25    21             15.0000000000
     27383       885  BMANNA    H2             38.8220614592       -2.3578812493       76.8663433126  LPSA25    21             15.0000000000
     27384       885  BMANNA    N              36.9117722922       -3.1482894779       77.2602735953  LPSA25    21             15.0000000000
     27385       885  BMANNA    HN             36.0415696247       -3.3172508021       76.8630196157  LPSA25    21             15.0000000000
     27386       885  BMANNA    C              37.1016549631       -3.5375073788       78.6142451918  LPSA25    21             15.0000000000
     27387       885  BMANNA    O              38.2347972542       -3.7738421715       79.0340579138  LPSA25    21             15.0000000000
     27388       885  BMANNA    CT             35.8567687473       -3.7111398378       79.5125915666  LPSA25    21             15.0000000000
     27389       885  BMANNA    HT1            35.4130076746       -4.7123707159       79.3040814335  LPSA25    21             15.0000000000
     27390       885  BMANNA    HT2            35.2087432457       -2.8393472202       79.3224353366  LPSA25    21             15.0000000000
     27391       885  BMANNA    HT3            36.1578951208       -3.6947562142       80.6000991146  LPSA25    21             15.0000000000
     27392       885  BMANNA    C3             38.4418909837       -3.8867465525       75.4428482744  LPSA25    21             15.0000000000
     27393       885  BMANNA    H3             39.3212900435       -3.4316210896       75.0091666053  LPSA25    21             15.0000000000
     27394       885  BMANNA    O3             38.8681662334       -5.0244153895       76.1769203835  LPSA25    21             15.0000000000
     27395       885  BMANNA    HO3            38.1583790591       -5.2799561919       76.7354970047  LPSA25    21             15.0000000000
     27396       885  BMANNA    C4             37.3491517999       -4.2904665743       74.4866217523  LPSA25    21             15.0000000000
     27397       885  BMANNA    H4             36.3872086565       -4.7836387127       75.0002820064  LPSA25    21             15.0000000000
     27398       885  BMANNA    O4             37.7527857772       -5.3076307759       73.6152290754  LPSA25    21             15.0000000000
     27399       885  BMANNA    HO4            37.2387338237       -6.1307713184       73.7703874424  LPSA25    21             15.0000000000
     27400       885  BMANNA    C6             36.0087651756       -3.3981977729       72.6348027846  LPSA25    21             15.0000000000
     27401       885  BMANNA    H61            36.4061945302       -4.0742260702       71.8494922130  LPSA25    21             15.0000000000
     27402       885  BMANNA    H62            35.2320801713       -4.0930046040       73.0558617198  LPSA25    21             15.0000000000
     27403       885  BMANNA    O6             35.2943575008       -2.3430286876       72.0654385618  LPSA25    21             15.0000000000
     27404       885  BMANNA    HO6            34.8942152089       -1.8465682434       72.7784055652  LPSA25    21             15.0000000000
     27405       886  BGLCNA    C1             39.3564797077        1.1940929838       79.2248726046  LPSA25    22             15.0000000000
     27406       886  BGLCNA    H1             39.3064787693        2.3212114081       79.2753119810  LPSA25    22             15.0000000000
     27407       886  BGLCNA    C5             41.5664538939        1.5356795623       80.1145289529  LPSA25    22             15.0000000000
     27408       886  BGLCNA    H5             41.3260756405        2.6808177456       80.0727605020  LPSA25    22             15.0000000000
     27409       886  BGLCNA    O5             40.7202022482        0.9233503608       79.0803056561  LPSA25    22             15.0000000000
     27410       886  BGLCNA    C2             38.9001996836        0.6657299339       80.5602818744  LPSA25    22             15.0000000000
     27411       886  BGLCNA    H2             39.1032185300       -0.4592406112       80.4633107900  LPSA25    22             15.0000000000
     27412       886  BGLCNA    N              37.4860839166        0.9400355929       80.7025670875  LPSA25    22             15.0000000000
     27413       886  BGLCNA    HN             37.1964145749        1.8382527741       80.4501896382  LPSA25    22             15.0000000000
     27414       886  BGLCNA    C              36.6295596488        0.1602307765       81.3295640408  LPSA25    22             15.0000000000
     27415       886  BGLCNA    O              36.9923029255       -0.9131451560       81.8448112003  LPSA25    22             15.0000000000
     27416       886  BGLCNA    CT             35.2217581144        0.6272009570       81.4359073222  LPSA25    22             15.0000000000
     27417       886  BGLCNA    HT1            34.7814482440        0.2151226089       80.5353412834  LPSA25    22             15.0000000000
     27418       886  BGLCNA    HT2            35.2253963465        1.7296559961       81.2752873926  LPSA25    22             15.0000000000
     27419       886  BGLCNA    HT3            34.7312117733        0.4403792904       82.3679651303  LPSA25    22             15.0000000000
     27420       886  BGLCNA    C3             39.7300975165        1.2401771853       81.6855161512  LPSA25    22             15.0000000000
     27421       886  BGLCNA    H3             39.6443745322        2.3550041467       81.6419517197  LPSA25    22             15.0000000000
     27422       886  BGLCNA    O3             39.1269949354        0.7774083243       82.8729300216  LPSA25    22             15.0000000000
     27423       886  BGLCNA    C4             41.2149165455        0.9305882479       81.4704242134  LPSA25    22             15.0000000000
     27424       886  BGLCNA    H4             41.2815241015       -0.1240350030       81.4144045074  LPSA25    22             15.0000000000
     27425       886  BGLCNA    O4             42.0342808005        1.4092226686       82.5140850489  LPSA25    22             15.0000000000
     27426       886  BGLCNA    HO4            42.7122707615        0.7406453912       82.7130071916  LPSA25    22             15.0000000000
     27427       886  BGLCNA    C6             43.0112968363        1.2519685637       79.7284495560  LPSA25    22             15.0000000000
     27428       886  BGLCNA    H61            43.5771946688        1.4162293469       80.6924177192  LPSA25    22             15.0000000000
     27429       886  BGLCNA    H62            43.1584424414        0.1831288701       79.4648784538  LPSA25    22             15.0000000000
     27430       886  BGLCNA    O6             43.5520988603        2.1404423036       78.8100863794  LPSA25    22             15.0000000000
     27431       886  BGLCNA    HO6            43.0172520874        2.1266086679       78.0328486455  LPSA25    22             15.0000000000
     27432       887  AGAL      C1             39.3587640291        1.4396185632       84.0628261254  LPSA25    23             16.0000000000
     27433       887  AGAL      H1             40.3636119306        1.2035091771       84.5106287163  LPSA25    23             16.0000000000
     27434       887  AGAL      C5             37.9147116675        3.3084697841       83.7583018441  LPSA25    23             16.0000000000
     27435       887  AGAL      H5             37.5010152720        2.7529612457       82.8366412438  LPSA25    23             16.0000000000
     27436       887  AGAL      O5             39.2304281970        2.8635962135       83.9976212264  LPSA25    23             16.0000000000
     27437       887  AGAL      C2             38.4167948116        0.9408042725       85.1427633740  LPSA25    23             16.0000000000
     27438       887  AGAL      H2             38.6867155001        1.5025145451       86.0076373284  LPSA25    23             16.0000000000
     27439       887  AGAL      O2             38.6140702143       -0.4062314289       85.5000844886  LPSA25    23             16.0000000000
     27440       887  AGAL      C3             37.0010943852        1.3469790260       84.9194901020  LPSA25    23             16.0000000000
     27441       887  AGAL      H3             36.7587657631        1.0124856734       83.8641570193  LPSA25    23             16.0000000000
     27442       887  AGAL      O3             36.0540599705        0.7296317321       85.7108298168  LPSA25    23             16.0000000000
     27443       887  AGAL      HO3            36.4245954472        0.7850738414       86.6206525111  LPSA25    23             16.0000000000
     27444       887  AGAL      C4             36.9596850791        2.8455710841       84.8901212015  LPSA25    23             16.0000000000
     27445       887  AGAL      H4             35.9473351896        3.2431216123       84.6506069022  LPSA25    23             16.0000000000
     27446       887  AGAL      O4             37.2470730119        3.5060055140       86.1132943683  LPSA25    23             16.0000000000
     27447       887  AGAL      HO4            37.6741139881        4.2493361651       85.8278371007  LPSA25    23             16.0000000000
     27448       887  AGAL      C6             37.8999717499        4.7508462004       83.3278962909  LPSA25    23             16.0000000000
     27449       887  AGAL      H61            38.6574649038        4.9160900623       82.6074235255  LPSA25    23             16.0000000000
     27450       887  AGAL      H62            37.0011686406        5.0126023039       82.7620574208  LPSA25    23             16.0000000000
     27451       887  AGAL      O6             38.1832770701        5.5834385688       84.3845202183  LPSA25    23             16.0000000000
     27452       887  AGAL      HO6            38.2316674996        6.5041611734       84.1740981585  LPSA25    23             16.0000000000
     27453       888  ARHM      C1             39.6938445209       -0.8831864172       86.2818185944  LPSA25    24             17.0000000000
     27454       888  ARHM      H1             40.4062146947       -0.0855308521       86.3680542693  LPSA25    24             17.0000000000
     27455       888  ARHM      C5             39.6403862737       -3.1899503672       85.6157638072  LPSA25    24             17.0000000000
     27456       888  ARHM      H5             38.7922569836       -2.9580636234       85.0070975499  LPSA25    24             17.0000000000
     27457       888  ARHM      O5             40.4758121110       -2.0635308762       85.8657410059  LPSA25    24             17.0000000000
     27458       888  ARHM      C2             39.0394126253       -1.1703887824       87.5921581840  LPSA25    24             17.0000000000
     27459       888  ARHM      H2             38.3802522585       -0.3795077242       87.8984046741  LPSA25    24             17.0000000000
     27460       888  ARHM      O2             39.9893495401       -1.5461587497       88.6075763533  LPSA25    24             17.0000000000
     27461       888  ARHM      C3             38.1558216181       -2.4143408872       87.4133527752  LPSA25    24             17.0000000000
     27462       888  ARHM      H3             37.4105174752       -2.1287239415       86.6640279609  LPSA25    24             17.0000000000
     27463       888  ARHM      O3             37.3259442574       -2.7316867752       88.5620392964  LPSA25    24             17.0000000000
     27464       888  ARHM      HO3            37.8830792690       -3.2897319401       89.1463757531  LPSA25    24             17.0000000000
     27465       888  ARHM      C4             38.9645460413       -3.6148552936       86.9402325015  LPSA25    24             17.0000000000
     27466       888  ARHM      H4             39.8221283680       -3.7805798899       87.7071552895  LPSA25    24             17.0000000000
     27467       888  ARHM      O4             38.2325053394       -4.8169702143       86.8379508285  LPSA25    24             17.0000000000
     27468       888  ARHM      HO4            38.7315342207       -5.5963108315       87.0219124236  LPSA25    24             17.0000000000
     27469       888  ARHM      C6             40.4069574984       -4.3877569876       84.9175891319  LPSA25    24             17.0000000000
     27470       888  ARHM      H61            39.6806261004       -4.9999186354       84.3853494017  LPSA25    24             17.0000000000
     27471       888  ARHM      H62            41.0857933626       -3.9361340885       84.2649634992  LPSA25    24             17.0000000000
     27472       888  ARHM      H63            41.0445092979       -4.9460390441       85.6811466487  LPSA25    24             17.0000000000
     27473       889  ARHM      C1             40.6213866949       -0.3962295959       89.1588742089  LPSA25    25             18.0000000000
     27474       889  ARHM      H1             40.5553521191        0.4111415511       88.4722246341  LPSA25    25             18.0000000000
     27475       889  ARHM      C5             42.4307587263       -1.5934819929       90.1670531641  LPSA25    25             18.0000000000
     27476       889  ARHM      H5             42.0682247763       -2.5463746287       89.8870230824  LPSA25    25             18.0000000000
     27477       889  ARHM      O5             42.0514506335       -0.5604278701       89.2315309535  LPSA25    25             18.0000000000
     27478       889  ARHM      C2             40.0085666436       -0.0895219379       90.4685713243  LPSA25    25             18.0000000000
     27479       889  ARHM      H2             38.8737907586       -0.0982598401       90.3413143991  LPSA25    25             18.0000000000
     27480       889  ARHM      O2             40.4646406803        1.2187089083       90.9328696740  LPSA25    25             18.0000000000
     27481       889  ARHM      C3             40.4838731514       -1.2040696309       91.4562257518  LPSA25    25             18.0000000000
     27482       889  ARHM      H3             40.0754593923       -2.1708560291       91.0689171631  LPSA25    25             18.0000000000
     27483       889  ARHM      O3             39.8649218376       -0.9133125547       92.6920647463  LPSA25    25             18.0000000000
     27484       889  ARHM      C4             41.9046354980       -1.3115582611       91.5960769721  LPSA25    25             18.0000000000
     27485       889  ARHM      H4             42.3942693788       -0.2919829235       91.8876801091  LPSA25    25             18.0000000000
     27486       889  ARHM      O4             42.1506721493       -2.3102436697       92.5862492282  LPSA25    25             18.0000000000
     27487       889  ARHM      HO4            42.9264071768       -1.9966898452       93.0149361445  LPSA25    25             18.0000000000
     27488       889  ARHM      C6             43.9441972597       -1.7992900703       90.2083352735  LPSA25    25             18.0000000000
     27489       889  ARHM      H61            44.3790874942       -1.9081666902       89.1912344565  LPSA25    25             18.0000000000
     27490       889  ARHM      H62            44.5000161345       -0.9381588711       90.6686969550  LPSA25    25             18.0000000000
     27491       889  ARHM      H63            44.2643567546       -2.7238094026       90.8233913566  LPSA25    25             18.0000000000
     27492       890  BMANNA    C1             39.8162028513        2.3042311562       90.3138108879  LPSA25    26             19.0000000000
     27493       890  BMANNA    H1             38.8383576060        1.9969153170       89.8388342826  LPSA25    26             19.0000000000
     27494       890  BMANNA    C5             39.7861297512        3.9966912865       88.6312665858  LPSA25    26             19.0000000000
     27495       890  BMANNA    H5             38.9098268587        3.5333795265       88.1771240033  LPSA25    26             19.0000000000
     27496       890  BMANNA    O5             40.5500033278        2.9445746483       89.2346891933  LPSA25    26             19.0000000000
     27497       890  BMANNA    C2             39.5323432481        3.2797778156       91.3475147821  LPSA25    26             19.0000000000
     27498       890  BMANNA    H2             38.9008064049        2.7135437919       92.1081287357  LPSA25    26             19.0000000000
     27499       890  BMANNA    N              40.8165925901        3.7365567712       91.9238920796  LPSA25    26             19.0000000000
     27500       890  BMANNA    HN             41.4529051936        4.1000198186       91.3050515894  LPSA25    26             19.0000000000
     27501       890  BMANNA    C              41.0991233670        3.7696278724       93.1798471680  LPSA25    26             19.0000000000
     27502       890  BMANNA    O              40.3425541155        3.2208257349       94.0003587425  LPSA25    26             19.0000000000
     27503       890  BMANNA    CT             42.3468671018        4.4991990624       93.6758917343  LPSA25    26             19.0000000000
     27504       890  BMANNA    HT1            43.0090855886        4.5593302898       92.8666282051  LPSA25    26             19.0000000000
     27505       890  BMANNA    HT2            42.8544441053        4.2472220955       94.6620984389  LPSA25    26             19.0000000000
     27506       890  BMANNA    HT3            42.0166358485        5.5306638390       93.8484898219  LPSA25    26             19.0000000000
     27507       890  BMANNA    C3             38.6835171051        4.3834497307       90.7100883268  LPSA25    26             19.0000000000
     27508       890  BMANNA    H3             37.7383719474        3.9145958350       90.3384445889  LPSA25    26             19.0000000000
     27509       890  BMANNA    O3             38.2904896539        5.3041120723       91.7636866611  LPSA25    26             19.0000000000
     27510       890  BMANNA    HO3            37.6245256048        4.8097907168       92.2265744207  LPSA25    26             19.0000000000
     27511       890  BMANNA    C4             39.4263619174        4.9820695345       89.6481622736  LPSA25    26             19.0000000000
     27512       890  BMANNA    H4             40.4102951690        5.4729374987       89.9013799111  LPSA25    26             19.0000000000
     27513       890  BMANNA    O4             38.6966543806        6.0393221872       89.0416847738  LPSA25    26             19.0000000000
     27514       890  BMANNA    HO4            38.8304412467        6.8322265799       89.5591157304  LPSA25    26             19.0000000000
     27515       890  BMANNA    C6             40.6255335124        4.4255857627       87.3900617492  LPSA25    26             19.0000000000
     27516       890  BMANNA    H61            41.1329673437        3.5650937852       86.9191763972  LPSA25    26             19.0000000000
     27517       890  BMANNA    H62            40.0293287126        4.8931264898       86.6504270337  LPSA25    26             19.0000000000
     27518       890  BMANNA    O6             41.6331416898        5.3706208978       87.7329108337  LPSA25    26             19.0000000000
     27519       890  BMANNA    HO6            41.2456716486        6.1010545948       88.1688153196  LPSA25    26             19.0000000000
     27520       891  BGLCNA    C1             39.2373935346       -1.8293565364       93.4616184899  LPSA25    27             19.0000000000
     27521       891  BGLCNA    H1             39.7669882885       -2.7766746570       93.4392217979  LPSA25    27             19.0000000000
     27522       891  BGLCNA    C5             37.3177296239       -3.1342401975       93.9656603721  LPSA25    27             19.0000000000
     27523       891  BGLCNA    H5             38.0001022757       -4.0225347693       93.9564344452  LPSA25    27             19.0000000000
     27524       891  BGLCNA    O5             37.8990763143       -2.1855504490       93.0607755266  LPSA25    27             19.0000000000
     27525       891  BGLCNA    C2             39.2509052579       -1.2563046388       94.8806799918  LPSA25    27             19.0000000000
     27526       891  BGLCNA    H2             38.5997402814       -0.3650670500       94.8757458582  LPSA25    27             19.0000000000
     27527       891  BGLCNA    N              40.5967503944       -0.8595603542       95.2501113516  LPSA25    27             19.0000000000
     27528       891  BGLCNA    HN             41.3494066138       -1.5783453754       95.0827132934  LPSA25    27             19.0000000000
     27529       891  BGLCNA    C              40.7051082366        0.3365485887       95.9523160909  LPSA25    27             19.0000000000
     27530       891  BGLCNA    O              39.7549401616        0.9524960418       96.5238801166  LPSA25    27             19.0000000000
     27531       891  BGLCNA    CT             42.1613573483        0.8911251204       96.0293745529  LPSA25    27             19.0000000000
     27532       891  BGLCNA    HT1            42.8458044422        0.2982833589       95.3635606282  LPSA25    27             19.0000000000
     27533       891  BGLCNA    HT2            42.5572435143        0.9773242632       97.0167906789  LPSA25    27             19.0000000000
     27534       891  BGLCNA    HT3            42.1038066760        2.0027803889       95.7039804309  LPSA25    27             19.0000000000
     27535       891  BGLCNA    C3             38.6496660137       -2.2458124228       95.7540348103  LPSA25    27             19.0000000000
     27536       891  BGLCNA    H3             39.2066180939       -3.2155976935       95.7401190096  LPSA25    27             19.0000000000
     27537       891  BGLCNA    O3             38.7492597578       -1.6180174203       97.0775356047  LPSA25    27             19.0000000000
     27538       891  BGLCNA    C4             37.2066195982       -2.6044049385       95.3486864533  LPSA25    27             19.0000000000
     27539       891  BGLCNA    H4             36.5925119456       -1.6753977221       95.3090014479  LPSA25    27             19.0000000000
     27540       891  BGLCNA    O4             36.6447934093       -3.5197637734       96.2156872787  LPSA25    27             19.0000000000
     27541       891  BGLCNA    HO4            37.1027393211       -4.3116177294       96.0162444362  LPSA25    27             19.0000000000
     27542       891  BGLCNA    C6             35.9853693527       -3.5996070032       93.2852949846  LPSA25    27             19.0000000000
     27543       891  BGLCNA    H61            35.6677145159       -4.4773628769       93.8557506920  LPSA25    27             19.0000000000
     27544       891  BGLCNA    H62            35.1852980560       -2.8451853987       93.4725180191  LPSA25    27             19.0000000000
     27545       891  BGLCNA    O6             36.1737413794       -3.8769241352       91.9076175409  LPSA25    27             19.0000000000
     27546       891  BGLCNA    HO6            35.3062705425       -4.1374239570       91.5273290588  LPSA25    27             19.0000000000
     27547       892  AGAL      C1             38.5900978404       -2.4346763467       98.2622020222  LPSA25    28             20.0000000000
     27548       892  AGAL      H1             37.5811679284       -2.7460903236       98.3007149491  LPSA25    28             20.0000000000
     27549       892  AGAL      C5             40.8107415195       -3.4035483425       98.1710438288  LPSA25    28             20.0000000000
     27550       892  AGAL      H5             41.1268760266       -2.4956620232       97.4646141937  LPSA25    28             20.0000000000
     27551       892  AGAL      O5             39.3440074641       -3.6359936362       98.1147365872  LPSA25    28             20.0000000000
     27552       892  AGAL      C2             38.9863676814       -1.8284741185       99.6197190629  LPSA25    28             20.0000000000
     27553       892  AGAL      H2             38.7658031556       -2.6512562975      100.2965066153  LPSA25    28             20.0000000000
     27554       892  AGAL      O2             38.2191629554       -0.7259650796      100.0788731798  LPSA25    28             20.0000000000
     27555       892  AGAL      C3             40.4567002476       -1.5774565740       99.7396972452  LPSA25    28             20.0000000000
     27556       892  AGAL      H3             40.7629174972       -0.9273942589       98.8607737785  LPSA25    28             20.0000000000
     27557       892  AGAL      O3             40.9590121984       -0.8936058156      100.9043404272  LPSA25    28             20.0000000000
     27558       892  AGAL      HO3            41.3439457821       -0.0640408990      100.5606486229  LPSA25    28             20.0000000000
     27559       892  AGAL      C4             41.1796214699       -2.8439695796       99.5102226768  LPSA25    28             20.0000000000
     27560       892  AGAL      H4             42.2202963702       -2.6249465193       99.4798298294  LPSA25    28             20.0000000000
     27561       892  AGAL      O4             40.9339926507       -3.8159619267      100.4757933835  LPSA25    28             20.0000000000
     27562       892  AGAL      HO4            41.6750345110       -3.8091746319      101.0376442747  LPSA25    28             20.0000000000
     27563       892  AGAL      C6             41.6621059628       -4.5584641156       97.6362902244  LPSA25    28             20.0000000000
     27564       892  AGAL      H61            41.4409438744       -4.7042343373       96.5809275898  LPSA25    28             20.0000000000
     27565       892  AGAL      H62            42.8023727712       -4.4668942500       97.7651048223  LPSA25    28             20.0000000000
     27566       892  AGAL      O6             41.3548301285       -5.7407450371       98.3456070822  LPSA25    28             20.0000000000
     27567       892  AGAL      HO6            40.6080732985       -6.1846865250       97.9416813930  LPSA25    28             20.0000000000
     27568       893  ARHM      C1             37.9158364858       -0.9168834998      101.4808913342  LPSA25    29             21.0000000000
     27569       893  ARHM      H1             38.7171924758       -1.5389094112      101.9964955809  LPSA25    29             21.0000000000
     27570       893  ARHM      C5             35.5935052855       -0.8179583528      101.1486206043  LPSA25    29             21.0000000000
     27571       893  ARHM      H5             35.8644849852       -0.6139558851      100.0935446791  LPSA25    29             21.0000000000
     27572       893  ARHM      O5             36.6736220993       -1.5291003518      101.6833506475  LPSA25    29             21.0000000000
     27573       893  ARHM      C2             37.9777549717        0.3869929871      102.1437305515  LPSA25    29             21.0000000000
     27574       893  ARHM      H2             38.8813615516        0.9102526916      101.9067628034  LPSA25    29             21.0000000000
     27575       893  ARHM      O2             37.8901618255        0.2734613475      103.5748524404  LPSA25    29             21.0000000000
     27576       893  ARHM      C3             36.8317102921        1.2108182637      101.6289418068  LPSA25    29             21.0000000000
     27577       893  ARHM      H3             36.9967578352        1.4180274465      100.4952263366  LPSA25    29             21.0000000000
     27578       893  ARHM      O3             36.9182876743        2.4883135650      102.1995749427  LPSA25    29             21.0000000000
     27579       893  ARHM      HO3            36.0792403472        2.8039679484      102.2092645043  LPSA25    29             21.0000000000
     27580       893  ARHM      C4             35.5193352137        0.5888222164      101.8247918557  LPSA25    29             21.0000000000
     27581       893  ARHM      H4             35.2697081312        0.4681664802      102.9338171738  LPSA25    29             21.0000000000
     27582       893  ARHM      O4             34.3610716535        1.3087504409      101.3452167393  LPSA25    29             21.0000000000
     27583       893  ARHM      HO4            34.4809259110        1.7189305171      100.4362974805  LPSA25    29             21.0000000000
     27584       893  ARHM      C6             34.3699048422       -1.7488930415      101.2162231226  LPSA25    29             21.0000000000
     27585       893  ARHM      H61            34.7738973685       -2.7279762230      100.7685423143  LPSA25    29             21.0000000000
     27586       893  ARHM      H62            34.1134962715       -1.9289307887      102.3013153741  LPSA25    29             21.0000000000
     27587       893  ARHM      H63            33.5668905707       -1.3197635259      100.6072571094  LPSA25    29             21.0000000000
     27588       894  ARHM      C1             39.0154949179        0.2810564753      104.3945976075  LPSA25    30             22.0000000000
     27589       894  ARHM      H1             39.5810995613        1.2205988324      104.2094096401  LPSA25    30             22.0000000000
     27590       894  ARHM      C5             39.2165211282       -2.1415591665      104.5143062533  LPSA25    30             22.0000000000
     27591       894  ARHM      H5             38.2604026045       -2.0629271918      103.8668162917  LPSA25    30             22.0000000000
     27592       894  ARHM      O5             39.8605237824       -0.8735875513      104.2052433351  LPSA25    30             22.0000000000
     27593       894  ARHM      C2             38.5747267778        0.2949913558      105.8471183130  LPSA25    30             22.0000000000
     27594       894  ARHM      H2             37.9457761174        1.1046062338      106.0289718167  LPSA25    30             22.0000000000
     27595       894  ARHM      O2             39.7515366122        0.3114052713      106.5813641610  LPSA25    30             22.0000000000
     27596       894  ARHM      C3             37.9319087238       -0.9605942043      106.2079894766  LPSA25    30             22.0000000000
     27597       894  ARHM      H3             37.1459959087       -1.1458157382      105.5270001340  LPSA25    30             22.0000000000
     27598       894  ARHM      O3             37.3395789722       -0.9553024432      107.5373891676  LPSA25    30             22.0000000000
     27599       894  ARHM      C4             38.8401573468       -2.1716844982      105.9708288384  LPSA25    30             22.0000000000
     27600       894  ARHM      H4             39.7708967490       -2.1263812484      106.5400372406  LPSA25    30             22.0000000000
     27601       894  ARHM      O4             38.3163534680       -3.3810816453      106.2997755749  LPSA25    30             22.0000000000
     27602       894  ARHM      HO4            37.7020875254       -3.8189098643      105.6964454668  LPSA25    30             22.0000000000
     27603       894  ARHM      C6             40.0969775619       -3.2872172805      104.0930490251  LPSA25    30             22.0000000000
     27604       894  ARHM      H61            39.4903864922       -4.2274690210      104.2143179997  LPSA25    30             22.0000000000
     27605       894  ARHM      H62            40.2435991462       -3.2386340537      103.0019050467  LPSA25    30             22.0000000000
     27606       894  ARHM      H63            41.0862164654       -3.3364402733      104.6493652223  LPSA25    30             22.0000000000
     27607       895  BMANNA    C1             40.2333075938        1.5845344985      106.9502319096  LPSA25    31             23.0000000000
     27608       895  BMANNA    H1             39.3520828171        2.2329527121      107.1550799008  LPSA25    31             23.0000000000
     27609       895  BMANNA    C5             41.4589511696        3.5508042460      106.2136717625  LPSA25    31             23.0000000000
     27610       895  BMANNA    H5             40.5547026673        4.0796560986      106.5467054000  LPSA25    31             23.0000000000
     27611       895  BMANNA    O5             41.0151856179        2.2045574308      105.8742289322  LPSA25    31             23.0000000000
     27612       895  BMANNA    C2             41.0983118163        1.4677697504      108.0830629221  LPSA25    31             23.0000000000
     27613       895  BMANNA    H2             40.4496459282        1.1049279297      108.9031915743  LPSA25    31             23.0000000000
     27614       895  BMANNA    N              42.0798987303        0.4715808870      107.8252935315  LPSA25    31             23.0000000000
     27615       895  BMANNA    HN             42.3188402970        0.2910776596      106.8111160773  LPSA25    31             23.0000000000
     27616       895  BMANNA    C              42.6536942051       -0.2562692138      108.7868858964  LPSA25    31             23.0000000000
     27617       895  BMANNA    O              42.3159796250       -0.1666592214      109.9536662434  LPSA25    31             23.0000000000
     27618       895  BMANNA    CT             43.7522806490       -1.2253535574      108.3237946568  LPSA25    31             23.0000000000
     27619       895  BMANNA    HT1            44.3230105456       -0.7394797988      107.5739831696  LPSA25    31             23.0000000000
     27620       895  BMANNA    HT2            43.2597636474       -2.1230928130      107.9347099034  LPSA25    31             23.0000000000
     27621       895  BMANNA    HT3            44.3424272821       -1.5955803954      109.1768357935  LPSA25    31             23.0000000000
     27622       895  BMANNA    C3             41.5731511390        2.8247049339      108.4884560283  LPSA25    31             23.0000000000
     27623       895  BMANNA    H3             40.6952922639        3.5431318624      108.6988550870  LPSA25    31             23.0000000000
     27624       895  BMANNA    O3             42.2591530091        2.7954259874      109.7404994872  LPSA25    31             23.0000000000
     27625       895  BMANNA    HO3            41.9226069245        1.9612369040      110.0111610137  LPSA25    31             23.0000000000
     27626       895  BMANNA    C4             42.3931386377        3.4277751264      107.4199857710  LPSA25    31             23.0000000000
     27627       895  BMANNA    H4             43.3414572769        2.8067163718      107.0572414185  LPSA25    31             23.0000000000
     27628       895  BMANNA    O4             42.9009165733        4.6814111064      107.8525671122  LPSA25    31             23.0000000000
     27629       895  BMANNA    HO4            42.1931649740        5.2725295520      108.1943429300  LPSA25    31             23.0000000000
     27630       895  BMANNA    C6             42.1638369849        4.2690268077      105.0512686782  LPSA25    31             23.0000000000
     27631       895  BMANNA    H61            42.2795587237        5.3896295767      105.3397811046  LPSA25    31             23.0000000000
     27632       895  BMANNA    H62            43.1660285895        3.8914732108      104.8698551944  LPSA25    31             23.0000000000
     27633       895  BMANNA    O6             41.4151144712        4.1673435350      103.8241467834  LPSA25    31             23.0000000000
     27634       895  BMANNA    HO6            40.5737865613        4.7062380493      103.8134147631  LPSA25    31             23.0000000000
     27635       896  BGLCNA    C1             38.1910407656       -1.1846962086      108.6103969990  LPSA25    32             23.0000000000
     27636       896  BGLCNA    H1             39.2192557894       -0.7344816469      108.4325564695  LPSA25    32             23.0000000000
     27637       896  BGLCNA    C5             39.3919046716       -2.8174932179      109.9277617404  LPSA25    32             23.0000000000
     27638       896  BGLCNA    H5             40.3443839416       -2.3049582102      109.5374749077  LPSA25    32             23.0000000000
     27639       896  BGLCNA    O5             38.3882238367       -2.5597527805      108.9423333575  LPSA25    32             23.0000000000
     27640       896  BGLCNA    C2             37.7017563388       -0.5152682457      109.8194522937  LPSA25    32             23.0000000000
     27641       896  BGLCNA    H2             36.8451179021       -1.0787667556      110.1044894257  LPSA25    32             23.0000000000
     27642       896  BGLCNA    N              37.3519602437        0.8463288591      109.5956973249  LPSA25    32             23.0000000000
     27643       896  BGLCNA    HN             37.9691427507        1.2330774802      108.8809076996  LPSA25    32             23.0000000000
     27644       896  BGLCNA    C              36.3164118202        1.5642309497      110.0864625708  LPSA25    32             23.0000000000
     27645       896  BGLCNA    O              35.5429217780        1.1113632765      110.9304085025  LPSA25    32             23.0000000000
     27646       896  BGLCNA    CT             36.1628734780        3.0169440737      109.5841031968  LPSA25    32             23.0000000000
     27647       896  BGLCNA    HT1            36.8386985705        2.9677705611      108.6281101354  LPSA25    32             23.0000000000
     27648       896  BGLCNA    HT2            36.5845742544        3.7790751308      110.1898124037  LPSA25    32             23.0000000000
     27649       896  BGLCNA    HT3            35.1093873717        3.2711494334      109.3122359934  LPSA25    32             23.0000000000
     27650       896  BGLCNA    C3             38.7397361412       -0.6558212213      110.8930231790  LPSA25    32             23.0000000000
     27651       896  BGLCNA    H3             39.6361751571       -0.3140869232      110.4606187373  LPSA25    32             23.0000000000
     27652       896  BGLCNA    O3             38.4919994519        0.1367979390      112.0657798240  LPSA25    32             23.0000000000
     27653       896  BGLCNA    C4             38.8962415529       -2.1259440469      111.1707572500  LPSA25    32             23.0000000000
     27654       896  BGLCNA    H4             37.9004815777       -2.5020060197      111.5318289610  LPSA25    32             23.0000000000
     27655       896  BGLCNA    O4             39.8125172223       -2.3624584901      112.2070236435  LPSA25    32             23.0000000000
     27656       896  BGLCNA    HO4            39.3841932110       -2.3940147014      113.0745323218  LPSA25    32             23.0000000000
     27657       896  BGLCNA    C6             39.6517027136       -4.3064392899      110.0229508171  LPSA25    32             23.0000000000
     27658       896  BGLCNA    H61            40.5405045551       -4.5351339339      110.7194343748  LPSA25    32             23.0000000000
     27659       896  BGLCNA    H62            38.7608503499       -4.8115773008      110.5717638480  LPSA25    32             23.0000000000
     27660       896  BGLCNA    O6             39.9682502469       -4.8796222111      108.7709294272  LPSA25    32             23.0000000000
     27661       896  BGLCNA    HO6            40.5071497912       -4.2425771898      108.2360311317  LPSA25    32             23.0000000000
     27662       897  AGAL      C1             39.6796939386        0.7000966111      112.6842874521  LPSA25    33             24.0000000000
     27663       897  AGAL      H1             40.4608450765       -0.0591716011      112.5979959475  LPSA25    33             24.0000000000
     27664       897  AGAL      C5             39.1064523665        2.9548400480      112.2149219831  LPSA25    33             24.0000000000
     27665       897  AGAL      H5             38.1682920043        2.4780730838      111.8792915250  LPSA25    33             24.0000000000
     27666       897  AGAL      O5             40.0995843360        1.9604335487      112.0726784748  LPSA25    33             24.0000000000
     27667       897  AGAL      C2             39.3385752589        0.9692331934      114.1482787662  LPSA25    33             24.0000000000
     27668       897  AGAL      H2             40.2695015796        1.5099049331      114.5751854976  LPSA25    33             24.0000000000
     27669       897  AGAL      O2             39.3008319113       -0.2599905615      114.8486222260  LPSA25    33             24.0000000000
     27670       897  AGAL      C3             38.2991009197        2.0526334602      114.2945545625  LPSA25    33             24.0000000000
     27671       897  AGAL      H3             37.3421472590        1.7613686027      113.7405815065  LPSA25    33             24.0000000000
     27672       897  AGAL      O3             37.8234639921        2.2090321778      115.5672660328  LPSA25    33             24.0000000000
     27673       897  AGAL      HO3            38.4589830104        2.3342548720      116.2400186851  LPSA25    33             24.0000000000
     27674       897  AGAL      C4             38.7785222001        3.3430245923      113.6708488317  LPSA25    33             24.0000000000
     27675       897  AGAL      H4             37.9889479298        4.1042218840      113.6729875792  LPSA25    33             24.0000000000
     27676       897  AGAL      O4             39.9370059703        3.9922357262      114.2435538900  LPSA25    33             24.0000000000
     27677       897  AGAL      HO4            40.3673047426        3.4678157792      114.9085525172  LPSA25    33             24.0000000000
     27678       897  AGAL      C6             39.3469103179        4.1316232527      111.2992528405  LPSA25    33             24.0000000000
     27679       897  AGAL      H61            39.2942216261        3.7019932021      110.2783408757  LPSA25    33             24.0000000000
     27680       897  AGAL      H62            38.6127775142        4.9580750029      111.3458027743  LPSA25    33             24.0000000000
     27681       897  AGAL      O6             40.5568556272        4.8127233130      111.4129476537  LPSA25    33             24.0000000000
     27682       897  AGAL      HO6            41.2758336915        4.4364431853      110.8444757795  LPSA25    33             24.0000000000
     27683       898  ARHM      C1             40.0641728227       -0.2947569513      116.0109133884  LPSA25    34             25.0000000000
     27684       898  ARHM      H1             39.9182286552        0.6006951934      116.6389743656  LPSA25    34             25.0000000000
     27685       898  ARHM      C5             41.9423962010       -1.4950040752      115.0727799907  LPSA25    34             25.0000000000
     27686       898  ARHM      H5             41.4700037635       -1.4045629187      114.0209633333  LPSA25    34             25.0000000000
     27687       898  ARHM      O5             41.5003290199       -0.3550941596      115.8926868953  LPSA25    34             25.0000000000
     27688       898  ARHM      C2             39.5519406623       -1.4929067607      116.7601555753  LPSA25    34             25.0000000000
     27689       898  ARHM      H2             38.4357314151       -1.5622603730      116.8710959342  LPSA25    34             25.0000000000
     27690       898  ARHM      O2             40.0775979939       -1.6315921039      118.1592972339  LPSA25    34             25.0000000000
     27691       898  ARHM      C3             39.9698448003       -2.7425564431      115.9988665506  LPSA25    34             25.0000000000
     27692       898  ARHM      H3             39.5729791160       -2.7356208476      114.9724172480  LPSA25    34             25.0000000000
     27693       898  ARHM      O3             39.5677868719       -4.0031982226      116.5878695042  LPSA25    34             25.0000000000
     27694       898  ARHM      HO3            39.2971211703       -4.6617562717      115.9559434517  LPSA25    34             25.0000000000
     27695       898  ARHM      C4             41.5080748567       -2.8189536148      115.7987835878  LPSA25    34             25.0000000000
     27696       898  ARHM      H4             42.0596495908       -2.7332303110      116.7495315617  LPSA25    34             25.0000000000
     27697       898  ARHM      O4             41.9143974221       -3.9594200000      115.1362621200  LPSA25    34             25.0000000000
     27698       898  ARHM      HO4            41.9032494298       -4.7329382209      115.6953140327  LPSA25    34             25.0000000000
     27699       898  ARHM      C6             43.4959253908       -1.4755745510      114.8413279703  LPSA25    34             25.0000000000
     27700       898  ARHM      H61            44.0999568699       -1.5906190738      115.7172490283  LPSA25    34             25.0000000000
     27701       898  ARHM      H62            43.7673184498       -2.4505517801      114.3996926230  LPSA25    34             25.0000000000
     27702       898  ARHM      H63            43.8860314756       -0.6977844230      114.1590834060  LPSA25    34             25.0000000000
     27703       899  ARHM      C1             39.8242056654       -0.5501591932      119.0795908573  LPSA25    35             26.0000000000
     27704       899  ARHM      H1             38.7458934803       -0.1471464070      118.8787348947  LPSA25    35             26.0000000000
     27705       899  ARHM      C5             42.1500459728        0.1324727597      119.2408916176  LPSA25    35             26.0000000000
     27706       899  ARHM      H5             42.4791028224       -0.7250721383      118.5254732223  LPSA25    35             26.0000000000
     27707       899  ARHM      O5             40.7771659208        0.5851919337      118.9290334222  LPSA25    35             26.0000000000
     27708       899  ARHM      C2             39.8744116552       -1.0670020225      120.5365485050  LPSA25    35             26.0000000000
     27709       899  ARHM      H2             39.0783019425       -1.8449594568      120.7134209997  LPSA25    35             26.0000000000
     27710       899  ARHM      O2             39.6038217071       -0.0365212864      121.4126203716  LPSA25    35             26.0000000000
     27711       899  ARHM      C3             41.2843522290       -1.6028996759      120.8720061906  LPSA25    35             26.0000000000
     27712       899  ARHM      H3             41.4743414360       -2.4498924157      120.1344793452  LPSA25    35             26.0000000000
     27713       899  ARHM      O3             41.3223486055       -2.1945173605      122.1540075829  LPSA25    35             26.0000000000
     27714       899  ARHM      HO3            40.7209164066       -1.7161476861      122.7288731339  LPSA25    35             26.0000000000
     27715       899  ARHM      C4             42.2506891750       -0.4666586186      120.6788917534  LPSA25    35             26.0000000000
     27716       899  ARHM      H4             42.0432489920        0.4263626479      121.3307119103  LPSA25    35             26.0000000000
     27717       899  ARHM      O4             43.5632200133       -0.9949713305      120.9693790153  LPSA25    35             26.0000000000
     27718       899  ARHM      HO4            43.7390719803       -1.8732835993      120.5581709812  LPSA25    35             26.0000000000
     27719       899  ARHM      C6             43.1684165869        1.2630173813      118.8642347863  LPSA25    35             26.0000000000
     27720       899  ARHM      H61            43.1792623193        1.4452676241      117.7433556958  LPSA25    35             26.0000000000
     27721       899  ARHM      H62            42.7832450840        2.1054169713      119.4176110492  LPSA25    35             26.0000000000
     27722       899  ARHM      H63            44.1996686627        0.8517793821      119.0633705917  LPSA25    35             26.0000000000
     27723       900  BMANNA    C1             38.2862873278        0.4230927700      121.4471464502  LPSA25    36             27.0000000000
     27724       900  BMANNA    H1             37.5725966735       -0.3602509130      121.0972061898  LPSA25    36             27.0000000000
     27725       900  BMANNA    C5             36.4894445455        1.8761851372      120.7299884793  LPSA25    36             27.0000000000
     27726       900  BMANNA    H5             35.9484464308        0.9705570664      120.4610684421  LPSA25    36             27.0000000000
     27727       900  BMANNA    O5             37.9239020619        1.5946803802      120.6641532654  LPSA25    36             27.0000000000
     27728       900  BMANNA    C2             37.9229062557        0.7287017244      122.8920138725  LPSA25    36             27.0000000000
     27729       900  BMANNA    H2             38.1119191215       -0.1940022829      123.4719477421  LPSA25    36             27.0000000000
     27730       900  BMANNA    N              38.7866045363        1.7743661550      123.4395449790  LPSA25    36             27.0000000000
     27731       900  BMANNA    HN             39.0082800361        2.5750431826      122.8746519580  LPSA25    36             27.0000000000
     27732       900  BMANNA    C              39.0446279009        1.8380512810      124.7737151700  LPSA25    36             27.0000000000
     27733       900  BMANNA    O              38.7454247861        0.9885610760      125.6190347561  LPSA25    36             27.0000000000
     27734       900  BMANNA    CT             39.7112357022        3.0527796996      125.3570716528  LPSA25    36             27.0000000000
     27735       900  BMANNA    HT1            39.3318550315        3.9618445532      124.8802869227  LPSA25    36             27.0000000000
     27736       900  BMANNA    HT2            40.8220012805        3.0888504753      125.1731404614  LPSA25    36             27.0000000000
     27737       900  BMANNA    HT3            39.6564033132        3.1566713631      126.4547536948  LPSA25    36             27.0000000000
     27738       900  BMANNA    C3             36.4578428705        1.0722116240      122.9763638711  LPSA25    36             27.0000000000
     27739       900  BMANNA    H3             35.8447439002        0.2262609322      122.6403873786  LPSA25    36             27.0000000000
     27740       900  BMANNA    O3             36.0318915390        1.3205782731      124.3414054450  LPSA25    36             27.0000000000
     27741       900  BMANNA    HO3            35.3961360794        0.7207283741      124.7171830083  LPSA25    36             27.0000000000
     27742       900  BMANNA    C4             36.1148260137        2.2293331659      122.1146940524  LPSA25    36             27.0000000000
     27743       900  BMANNA    H4             36.6049563422        3.1245816823      122.4263894750  LPSA25    36             27.0000000000
     27744       900  BMANNA    O4             34.7321529351        2.5634640507      122.2172873890  LPSA25    36             27.0000000000
     27745       900  BMANNA    HO4            34.7093868127        2.6930380624      123.1985163392  LPSA25    36             27.0000000000
     27746       900  BMANNA    C6             36.1617592142        2.9220316938      119.7412642597  LPSA25    36             27.0000000000
     27747       900  BMANNA    H61            36.3814058505        2.5894490730      118.6946701192  LPSA25    36             27.0000000000
     27748       900  BMANNA    H62            35.0684226132        2.9538944883      119.7045442506  LPSA25    36             27.0000000000
     27749       900  BMANNA    O6             36.7442763418        4.2288793110      120.0914698020  LPSA25    36             27.0000000000
     27750       900  BMANNA    HO6            36.0883900003        4.6648787805      120.6476247167  LPSA25    36             27.0000000000
     27751       901  ECLIPA    HB6S          -38.2056877984       12.2133483444       20.4612168218  LPSA26    1               0.0000000000
     27752       901  ECLIPA    OB6           -36.8064272732       12.9444675825       21.7140249152  LPSA26    1               0.0000000000
     27753       901  ECLIPA    CB6           -37.8534347133       13.1794422706       20.7042159014  LPSA26    1               0.0000000000
     27754       901  ECLIPA    HB6R          -38.5727054636       13.8971714736       21.0541931349  LPSA26    1               0.0000000000
     27755       901  ECLIPA    CB5           -37.2852088365       13.8793867767       19.3988764877  LPSA26    1               0.0000000000
     27756       901  ECLIPA    OB5           -36.1671340776       13.0017951857       18.9716901872  LPSA26    1               0.0000000000
     27757       901  ECLIPA    HB5           -36.8544471503       14.8253840927       19.7771798410  LPSA26    1               0.0000000000
     27758       901  ECLIPA    CB1           -35.5573196996       13.5318044233       17.7717324898  LPSA26    1               0.0000000000
     27759       901  ECLIPA    HB1           -35.1387288605       14.5541240123       17.9003641080  LPSA26    1               0.0000000000
     27760       901  ECLIPA    OA6           -34.5470149255       12.6801054599       17.3217246577  LPSA26    1               0.0000000000
     27761       901  ECLIPA    CA6           -34.6458065629       11.2623054259       17.5745106853  LPSA26    1               0.0000000000
     27762       901  ECLIPA    HA6R          -35.7152725720       11.0093406048       17.7226451425  LPSA26    1               0.0000000000
     27763       901  ECLIPA    HA6S          -33.9344771710       11.0139247263       18.4598965841  LPSA26    1               0.0000000000
     27764       901  ECLIPA    CB4           -38.3726062495       14.0536870957       18.3206521937  LPSA26    1               0.0000000000
     27765       901  ECLIPA    HB4           -38.7948912557       13.0753798924       18.0085584641  LPSA26    1               0.0000000000
     27766       901  ECLIPA    OB4           -39.2388871985       15.0528138604       18.9017319965  LPSA26    1               0.0000000000
     27767       901  ECLIPA    PB            -40.7398286144       14.6513895211       19.3234616795  LPSA26    1               0.0000000000
     27768       901  ECLIPA    OPB4          -41.1048157850       15.4966766322       20.5579515876  LPSA26    1               0.0000000000
     27769       901  ECLIPA    OPB3          -40.5602615726       13.1513468162       19.6614545037  LPSA26    1               0.0000000000
     27770       901  ECLIPA    OPB2          -41.6261019550       14.8377775161       18.0829495795  LPSA26    1               0.0000000000
     27771       901  ECLIPA    CB3           -37.6648414380       14.5997302886       17.0955893951  LPSA26    1               0.0000000000
     27772       901  ECLIPA    OB3           -38.4781547235       14.7504497138       15.9186528231  LPSA26    1               0.0000000000
     27773       901  ECLIPA    HB3           -37.0498288310       15.5217248734       17.3284540628  LPSA26    1               0.0000000000
     27774       901  ECLIPA    C71           -39.0358609401       15.8928423997       15.6929469039  LPSA26    1               0.0000000000
     27775       901  ECLIPA    O71           -38.8347296648       16.9189009495       16.3832172580  LPSA26    1               0.0000000000
     27776       901  ECLIPA    C72           -39.8126315700       15.7810328472       14.3548430386  LPSA26    1               0.0000000000
     27777       901  ECLIPA    H72R          -39.1127274446       15.4793386497       13.5774555414  LPSA26    1               0.0000000000
     27778       901  ECLIPA    H72S          -40.3616002066       16.7937954884       14.1464415926  LPSA26    1               0.0000000000
     27779       901  ECLIPA    CB2           -36.5589709376       13.6126861955       16.6720734084  LPSA26    1               0.0000000000
     27780       901  ECLIPA    HB2           -37.0958058469       12.5692439573       16.5298168153  LPSA26    1               0.0000000000
     27781       901  ECLIPA    NB2           -35.8347152704       14.0450554985       15.4577284722  LPSA26    1               0.0000000000
     27782       901  ECLIPA    HNB2          -35.0762304319       14.6802669744       15.5965609326  LPSA26    1               0.0000000000
     27783       901  ECLIPA    CA4           -32.8952756441       11.1048372675       15.7929312798  LPSA26    1               0.0000000000
     27784       901  ECLIPA    HA4           -33.0762475916       12.1677284681       15.4903430209  LPSA26    1               0.0000000000
     27785       901  ECLIPA    OA4           -31.9313585112       11.0584798216       16.8012065728  LPSA26    1               0.0000000000
     27786       901  ECLIPA    HOA4          -32.2380951660       11.3966526272       17.5928838569  LPSA26    1               0.0000000000
     27787       901  ECLIPA    CA5           -34.1341089415       10.5437866164       16.3547806008  LPSA26    1               0.0000000000
     27788       901  ECLIPA    HA5           -34.1492370819        9.3997772686       16.5880746347  LPSA26    1               0.0000000000
     27789       901  ECLIPA    OA5           -35.1648220634       10.6955810308       15.3689671688  LPSA26    1               0.0000000000
     27790       901  ECLIPA    CA1           -34.8108252668       10.0243663165       14.1076640156  LPSA26    1               0.0000000000
     27791       901  ECLIPA    HA1           -35.5370371266       10.5282243125       13.4118188108  LPSA26    1               0.0000000000
     27792       901  ECLIPA    OA1           -35.0585756570        8.6323612543       14.1359876212  LPSA26    1               0.0000000000
     27793       901  ECLIPA    OPA2          -35.9774216488        7.3688506893       15.9734101064  LPSA26    1               0.0000000000
     27794       901  ECLIPA    OPA3          -37.4680923401        9.0924039081       14.8300177673  LPSA26    1               0.0000000000
     27795       901  ECLIPA    OPA4          -36.8801466855        7.0181118934       13.6615320840  LPSA26    1               0.0000000000
     27796       901  ECLIPA    PA            -36.4125194589        8.0369324412       14.6765383084  LPSA26    1               0.0000000000
     27797       901  ECLIPA    CA3           -32.4313428247       10.4078957400       14.5219348229  LPSA26    1               0.0000000000
     27798       901  ECLIPA    HA3           -32.1604495261        9.3008895207       14.7377032538  LPSA26    1               0.0000000000
     27799       901  ECLIPA    OA3           -31.1682038060       10.9874606015       14.2498111976  LPSA26    1               0.0000000000
     27800       901  ECLIPA    C31           -31.1779044938       12.1359425356       13.5006246295  LPSA26    1               0.0000000000
     27801       901  ECLIPA    O31           -31.3259183076       12.2123253929       12.2941239937  LPSA26    1               0.0000000000
     27802       901  ECLIPA    C32           -30.4512637184       13.2429796049       14.2780289507  LPSA26    1               0.0000000000
     27803       901  ECLIPA    H32R          -29.5403865987       13.5211274899       13.7149713840  LPSA26    1               0.0000000000
     27804       901  ECLIPA    H32S          -30.1926014290       12.8894241315       15.2729523512  LPSA26    1               0.0000000000
     27805       901  ECLIPA    CA2           -33.5392226865       10.5674277791       13.4984733916  LPSA26    1               0.0000000000
     27806       901  ECLIPA    HA2           -33.7365491900       11.6378894920       13.3982259915  LPSA26    1               0.0000000000
     27807       901  ECLIPA    NA2           -33.2466474647        9.9171947299       12.2035087571  LPSA26    1               0.0000000000
     27808       901  ECLIPA    HNA2          -32.3384480706        9.5949300140       12.0865030408  LPSA26    1               0.0000000000
     27809       901  ECLIPA    C73           -40.9170110121       14.7562028550       14.3319064372  LPSA26    1               0.0000000000
     27810       901  ECLIPA    H73R          -41.5336965995       14.7788798381       15.2227416964  LPSA26    1               0.0000000000
     27811       901  ECLIPA    O73           -40.2725839669       13.4598462788       14.2644256719  LPSA26    1               0.0000000000
     27812       901  ECLIPA    C81           -40.7396009032       12.3474571173       14.8555734565  LPSA26    1               0.0000000000
     27813       901  ECLIPA    O81           -41.7109463327       12.4489211604       15.6690894779  LPSA26    1               0.0000000000
     27814       901  ECLIPA    C82           -40.0148361208       11.0831462957       14.3536111794  LPSA26    1               0.0000000000
     27815       901  ECLIPA    H82R          -40.3768194808       10.1901715197       14.8531840528  LPSA26    1               0.0000000000
     27816       901  ECLIPA    H82S          -38.9166413945       11.1439387978       14.5323473422  LPSA26    1               0.0000000000
     27817       901  ECLIPA    C83           -40.2140497313       10.9332549316       12.8301722806  LPSA26    1               0.0000000000
     27818       901  ECLIPA    H83R          -39.4778067553       11.5939398707       12.2351841548  LPSA26    1               0.0000000000
     27819       901  ECLIPA    H83S          -41.1840294894       11.3728382162       12.5911296392  LPSA26    1               0.0000000000
     27820       901  ECLIPA    C84           -39.9596037089        9.5054304920       12.3050927261  LPSA26    1               0.0000000000
     27821       901  ECLIPA    H84R          -40.8188471819        8.8800289246       12.5767117503  LPSA26    1               0.0000000000
     27822       901  ECLIPA    H84S          -39.0198522631        9.2344845018       12.7369555497  LPSA26    1               0.0000000000
     27823       901  ECLIPA    C85           -39.7771576581        9.4990248703       10.7695484051  LPSA26    1               0.0000000000
     27824       901  ECLIPA    H85R          -39.1286569446       10.3570853189       10.5503608829  LPSA26    1               0.0000000000
     27825       901  ECLIPA    H85S          -40.7523233864        9.7179522771       10.2367999955  LPSA26    1               0.0000000000
     27826       901  ECLIPA    C86           -39.0242762774        8.2220398659       10.3034592726  LPSA26    1               0.0000000000
     27827       901  ECLIPA    H86R          -39.7192066422        7.3726476927        9.9932223571  LPSA26    1               0.0000000000
     27828       901  ECLIPA    H86S          -38.4002016935        7.8223185513       11.0807540114  LPSA26    1               0.0000000000
     27829       901  ECLIPA    C87           -37.9950913627        8.5224436728        9.1601018854  LPSA26    1               0.0000000000
     27830       901  ECLIPA    H87R          -37.5223622560        7.6124477397        8.8049419625  LPSA26    1               0.0000000000
     27831       901  ECLIPA    H87S          -37.1507241657        9.1585079943        9.5406723883  LPSA26    1               0.0000000000
     27832       901  ECLIPA    C88           -38.6167360259        9.3079349865        8.0318999685  LPSA26    1               0.0000000000
     27833       901  ECLIPA    H88R          -38.7707764953       10.3912991180        8.3479828359  LPSA26    1               0.0000000000
     27834       901  ECLIPA    H88S          -39.7013295509        9.0137712506        7.9254521495  LPSA26    1               0.0000000000
     27835       901  ECLIPA    C89           -37.7809825482        9.3317145910        6.7101000712  LPSA26    1               0.0000000000
     27836       901  ECLIPA    H89R          -36.7221019491        9.0371399057        6.8746682686  LPSA26    1               0.0000000000
     27837       901  ECLIPA    H89S          -37.7263803913       10.2907253426        6.2317001698  LPSA26    1               0.0000000000
     27838       901  ECLIPA    C810          -38.4531873262        8.3798914288        5.7047246593  LPSA26    1               0.0000000000
     27839       901  ECLIPA    H810R         -39.5129844670        8.4492651845        6.0108430704  LPSA26    1               0.0000000000
     27840       901  ECLIPA    H810S         -38.0798825109        7.3852415769        5.8554647029  LPSA26    1               0.0000000000
     27841       901  ECLIPA    C811          -38.2759004458        8.7339177421        4.2179945741  LPSA26    1               0.0000000000
     27842       901  ECLIPA    H811R         -38.4371250126        7.9703785774        3.5081125689  LPSA26    1               0.0000000000
     27843       901  ECLIPA    H811S         -37.2162252894        9.1876846494        4.1819101877  LPSA26    1               0.0000000000
     27844       901  ECLIPA    C812          -39.0708427087        9.9593915830        3.7413673409  LPSA26    1               0.0000000000
     27845       901  ECLIPA    H812R         -38.7091148130       10.1953700249        2.6403157337  LPSA26    1               0.0000000000
     27846       901  ECLIPA    H812S         -39.0247281838       10.8063922333        4.4144737196  LPSA26    1               0.0000000000
     27847       901  ECLIPA    C813          -40.5941684856        9.7435577324        3.6785234959  LPSA26    1               0.0000000000
     27848       901  ECLIPA    H813R         -40.7657036617        8.9251043335        2.9398073555  LPSA26    1               0.0000000000
     27849       901  ECLIPA    H813S         -41.0968516532        9.4105180225        4.6616087352  LPSA26    1               0.0000000000
     27850       901  ECLIPA    C814          -41.3550366861       10.9365550965        3.1377409857  LPSA26    1               0.0000000000
     27851       901  ECLIPA    H814R         -40.9185868071       11.4354531722        2.1719074593  LPSA26    1               0.0000000000
     27852       901  ECLIPA    H814S         -41.4135930914       11.7088927193        3.9166242729  LPSA26    1               0.0000000000
     27853       901  ECLIPA    H814T         -42.4063619460       10.6589401885        2.8964685373  LPSA26    1               0.0000000000
     27854       901  ECLIPA    C74           -41.8931804204       14.7507654298       13.1792855021  LPSA26    1               0.0000000000
     27855       901  ECLIPA    H74R          -42.5154773408       15.6244013898       12.9935747315  LPSA26    1               0.0000000000
     27856       901  ECLIPA    H74S          -42.6208543917       13.8568272097       13.3086690609  LPSA26    1               0.0000000000
     27857       901  ECLIPA    C75           -41.1650727183       14.3803350317       11.8151371119  LPSA26    1               0.0000000000
     27858       901  ECLIPA    H75R          -41.9158719528       13.7536345494       11.2107603889  LPSA26    1               0.0000000000
     27859       901  ECLIPA    H75S          -40.2766060376       13.7489371067       12.0082837783  LPSA26    1               0.0000000000
     27860       901  ECLIPA    C76           -40.7328912316       15.5780584765       10.9251453624  LPSA26    1               0.0000000000
     27861       901  ECLIPA    H76R          -39.7890746718       16.0129724723       11.3555905686  LPSA26    1               0.0000000000
     27862       901  ECLIPA    H76S          -41.4871785075       16.4689999215       10.9731137071  LPSA26    1               0.0000000000
     27863       901  ECLIPA    C77           -40.4904365886       15.3054886304        9.4191603634  LPSA26    1               0.0000000000
     27864       901  ECLIPA    H77R          -41.4180327828       14.9505366192        9.0408775908  LPSA26    1               0.0000000000
     27865       901  ECLIPA    H77S          -39.8306460098       14.4173964925        9.2852383479  LPSA26    1               0.0000000000
     27866       901  ECLIPA    C78           -39.8291000566       16.5576767558        8.8297405752  LPSA26    1               0.0000000000
     27867       901  ECLIPA    H78R          -40.4136813871       17.4170867975        9.1562620580  LPSA26    1               0.0000000000
     27868       901  ECLIPA    H78S          -38.8154230442       16.5877659809        9.3169442960  LPSA26    1               0.0000000000
     27869       901  ECLIPA    C79           -39.4706551517       16.4124249146        7.2570767761  LPSA26    1               0.0000000000
     27870       901  ECLIPA    H79R          -38.3828177865       16.1054102013        7.1763205913  LPSA26    1               0.0000000000
     27871       901  ECLIPA    H79S          -39.5785303614       17.3952730665        6.7882549413  LPSA26    1               0.0000000000
     27872       901  ECLIPA    C710          -40.4347679046       15.6088847105        6.3785096220  LPSA26    1               0.0000000000
     27873       901  ECLIPA    H710R         -40.4652707032       14.5970047306        6.8460783027  LPSA26    1               0.0000000000
     27874       901  ECLIPA    H710S         -41.3632876586       16.0280607157        6.4843026416  LPSA26    1               0.0000000000
     27875       901  ECLIPA    C711          -39.9882834787       15.4643241713        4.9384125046  LPSA26    1               0.0000000000
     27876       901  ECLIPA    H711R         -39.9729181877       16.4909952197        4.5670708729  LPSA26    1               0.0000000000
     27877       901  ECLIPA    H711S         -38.9856306965       14.9659737502        4.9306188492  LPSA26    1               0.0000000000
     27878       901  ECLIPA    C712          -40.9865804737       14.5783565519        4.2148670498  LPSA26    1               0.0000000000
     27879       901  ECLIPA    H712R         -41.9593069567       15.0728019052        4.3130666899  LPSA26    1               0.0000000000
     27880       901  ECLIPA    H712S         -41.0573715202       13.6810484720        4.8522839389  LPSA26    1               0.0000000000
     27881       901  ECLIPA    C713          -40.5112921974       14.2364808849        2.7357390519  LPSA26    1               0.0000000000
     27882       901  ECLIPA    H713R         -39.5488027266       13.6709562106        2.8800411466  LPSA26    1               0.0000000000
     27883       901  ECLIPA    H713S         -41.3452582980       13.5881826948        2.2750064041  LPSA26    1               0.0000000000
     27884       901  ECLIPA    C714          -40.4341450968       15.5195869877        1.8879763961  LPSA26    1               0.0000000000
     27885       901  ECLIPA    H714R         -41.4254324402       15.9776099298        1.7626189762  LPSA26    1               0.0000000000
     27886       901  ECLIPA    H714S         -39.6221520267       16.1838530519        2.2081901572  LPSA26    1               0.0000000000
     27887       901  ECLIPA    H714T         -40.1830434704       15.1164270294        0.9249202435  LPSA26    1               0.0000000000
     27888       901  ECLIPA    C51           -36.3308587181       13.7807609154       14.2380633031  LPSA26    1               0.0000000000
     27889       901  ECLIPA    O51           -37.1694025876       12.8605567027       14.1304636378  LPSA26    1               0.0000000000
     27890       901  ECLIPA    C52           -35.9167161122       14.6781660725       13.0157035712  LPSA26    1               0.0000000000
     27891       901  ECLIPA    H52R          -36.5120399706       15.5718142859       12.8950255930  LPSA26    1               0.0000000000
     27892       901  ECLIPA    H52S          -34.8998633895       14.9272880080       13.2222025935  LPSA26    1               0.0000000000
     27893       901  ECLIPA    C53           -35.8750640352       13.7362644761       11.7526064304  LPSA26    1               0.0000000000
     27894       901  ECLIPA    H53R          -35.6942788807       12.6973776941       12.0082431084  LPSA26    1               0.0000000000
     27895       901  ECLIPA    O53           -34.9467035406       14.3487323788       10.8431816314  LPSA26    1               0.0000000000
     27896       901  ECLIPA    C61           -33.8575276787       13.6763919951       10.5090573566  LPSA26    1               0.0000000000
     27897       901  ECLIPA    O61           -33.5728238862       12.5763195253       10.8659713306  LPSA26    1               0.0000000000
     27898       901  ECLIPA    C62           -32.9997339436       14.5413493537        9.5765835255  LPSA26    1               0.0000000000
     27899       901  ECLIPA    H62R          -32.4521999466       15.2662182338       10.2152837125  LPSA26    1               0.0000000000
     27900       901  ECLIPA    H62S          -33.7083480956       15.2137841425        9.0470049452  LPSA26    1               0.0000000000
     27901       901  ECLIPA    C63           -32.0748844925       13.6784249641        8.6803029234  LPSA26    1               0.0000000000
     27902       901  ECLIPA    H63R          -32.6921785129       12.8580544670        8.2798705976  LPSA26    1               0.0000000000
     27903       901  ECLIPA    H63S          -31.2187892724       13.1935565265        9.3252199642  LPSA26    1               0.0000000000
     27904       901  ECLIPA    C64           -31.4142144801       14.3302372647        7.5279067597  LPSA26    1               0.0000000000
     27905       901  ECLIPA    H64R          -30.6905697525       13.6414251742        6.9620099216  LPSA26    1               0.0000000000
     27906       901  ECLIPA    H64S          -30.8450817998       15.2302500450        7.9657393466  LPSA26    1               0.0000000000
     27907       901  ECLIPA    C65           -32.4973522778       14.8922671041        6.5414948800  LPSA26    1               0.0000000000
     27908       901  ECLIPA    H65R          -33.0237124144       15.5884765573        7.2423230371  LPSA26    1               0.0000000000
     27909       901  ECLIPA    H65S          -33.1395541446       14.0579107659        6.1828980290  LPSA26    1               0.0000000000
     27910       901  ECLIPA    C66           -31.9804893021       15.6275671369        5.2222643966  LPSA26    1               0.0000000000
     27911       901  ECLIPA    H66R          -31.3850380621       16.4809820274        5.5395647249  LPSA26    1               0.0000000000
     27912       901  ECLIPA    H66S          -32.9765471571       15.9687630676        4.8113963288  LPSA26    1               0.0000000000
     27913       901  ECLIPA    C67           -31.2671050503       14.8173107932        4.1696839457  LPSA26    1               0.0000000000
     27914       901  ECLIPA    H67R          -30.4509189253       14.2179219235        4.5058181646  LPSA26    1               0.0000000000
     27915       901  ECLIPA    H67S          -30.8997198830       15.4956440093        3.3478820057  LPSA26    1               0.0000000000
     27916       901  ECLIPA    C68           -32.1259265754       13.7717668787        3.5077075145  LPSA26    1               0.0000000000
     27917       901  ECLIPA    H68R          -33.0731160277       14.0912658076        3.0112508411  LPSA26    1               0.0000000000
     27918       901  ECLIPA    H68S          -32.2811719129       13.0715990367        4.3087918325  LPSA26    1               0.0000000000
     27919       901  ECLIPA    C69           -31.3952134402       13.1945955793        2.2963532923  LPSA26    1               0.0000000000
     27920       901  ECLIPA    H69R          -30.2889857900       13.2332992047        2.3203210098  LPSA26    1               0.0000000000
     27921       901  ECLIPA    H69S          -31.6097017759       13.8685002893        1.4693744207  LPSA26    1               0.0000000000
     27922       901  ECLIPA    C610          -31.8111874711       11.8142806583        1.9396251084  LPSA26    1               0.0000000000
     27923       901  ECLIPA    H610R         -32.9240082758       11.7027975569        2.0603347121  LPSA26    1               0.0000000000
     27924       901  ECLIPA    H610S         -31.3800211975       11.0773734206        2.6933643884  LPSA26    1               0.0000000000
     27925       901  ECLIPA    C611          -31.2973343079       11.3511253213        0.5312153135  LPSA26    1               0.0000000000
     27926       901  ECLIPA    H611R         -30.1930427054       11.4238145468        0.5735373188  LPSA26    1               0.0000000000
     27927       901  ECLIPA    H611S         -31.3809054042       10.2882362983        0.3609598123  LPSA26    1               0.0000000000
     27928       901  ECLIPA    C612          -31.9839489175       12.1289510476       -0.5788949292  LPSA26    1               0.0000000000
     27929       901  ECLIPA    H612R         -33.0674866382       11.8228959367       -0.6060949542  LPSA26    1               0.0000000000
     27930       901  ECLIPA    H612S         -32.0049659767       13.1931375423       -0.3132441764  LPSA26    1               0.0000000000
     27931       901  ECLIPA    H612T         -31.5358136792       11.9347520310       -1.5574606966  LPSA26    1               0.0000000000
     27932       901  ECLIPA    C54           -37.2988652933       13.8491514988       11.1776054589  LPSA26    1               0.0000000000
     27933       901  ECLIPA    H54R          -37.4794413976       14.9268654953       10.8869876633  LPSA26    1               0.0000000000
     27934       901  ECLIPA    H54S          -38.0478759614       13.6364721901       11.9574517429  LPSA26    1               0.0000000000
     27935       901  ECLIPA    C55           -37.6895998755       12.9754880310        9.9916770240  LPSA26    1               0.0000000000
     27936       901  ECLIPA    H55R          -38.7828792910       12.9271280500        9.7856946516  LPSA26    1               0.0000000000
     27937       901  ECLIPA    H55S          -37.3589306100       11.9054644794       10.2436295858  LPSA26    1               0.0000000000
     27938       901  ECLIPA    C56           -37.1050445997       13.5975547567        8.7515486822  LPSA26    1               0.0000000000
     27939       901  ECLIPA    H56R          -35.9764611497       13.6465826618        8.8382497819  LPSA26    1               0.0000000000
     27940       901  ECLIPA    H56S          -37.4381118071       14.5519137180        8.4741334449  LPSA26    1               0.0000000000
     27941       901  ECLIPA    C57           -37.1523407933       12.7267176537        7.4395707935  LPSA26    1               0.0000000000
     27942       901  ECLIPA    H57R          -38.1610666646       12.3983862696        7.1827428724  LPSA26    1               0.0000000000
     27943       901  ECLIPA    H57S          -36.5743313387       11.7817379143        7.5196553379  LPSA26    1               0.0000000000
     27944       901  ECLIPA    C58           -36.4752174647       13.4992931499        6.2350750625  LPSA26    1               0.0000000000
     27945       901  ECLIPA    H58R          -36.8018132744       14.5757274086        6.2095761879  LPSA26    1               0.0000000000
     27946       901  ECLIPA    H58S          -35.3969972073       13.6385409672        6.5224540661  LPSA26    1               0.0000000000
     27947       901  ECLIPA    C59           -36.8020205935       12.8381273518        4.8667186835  LPSA26    1               0.0000000000
     27948       901  ECLIPA    H59R          -37.8859498337       12.7881202721        4.6589989540  LPSA26    1               0.0000000000
     27949       901  ECLIPA    H59S          -36.3723767352       11.8401275159        5.0825555512  LPSA26    1               0.0000000000
     27950       901  ECLIPA    C510          -36.2713231339       13.6561204803        3.6752379292  LPSA26    1               0.0000000000
     27951       901  ECLIPA    H510R         -35.2035526311       14.0487353300        3.7937959224  LPSA26    1               0.0000000000
     27952       901  ECLIPA    H510S         -36.9411837217       14.6059746192        3.4613250382  LPSA26    1               0.0000000000
     27953       901  ECLIPA    C511          -36.2980489166       12.9554097718        2.3004848829  LPSA26    1               0.0000000000
     27954       901  ECLIPA    H511R         -35.4060083981       12.3007938468        2.2679211996  LPSA26    1               0.0000000000
     27955       901  ECLIPA    H511S         -37.1795804363       12.2585928821        2.1940961976  LPSA26    1               0.0000000000
     27956       901  ECLIPA    C512          -36.2095921487       13.8632869753        1.0189424135  LPSA26    1               0.0000000000
     27957       901  ECLIPA    H512R         -36.4637379176       13.2652076544        0.0815295424  LPSA26    1               0.0000000000
     27958       901  ECLIPA    H512S         -36.9149404761       14.6982557305        1.1129704346  LPSA26    1               0.0000000000
     27959       901  ECLIPA    C513          -34.7402598243       14.3623828904        0.6457389972  LPSA26    1               0.0000000000
     27960       901  ECLIPA    H513R         -34.0329898636       13.4876847053        0.5010832175  LPSA26    1               0.0000000000
     27961       901  ECLIPA    H513S         -34.3438231481       14.9191267042        1.4088770719  LPSA26    1               0.0000000000
     27962       901  ECLIPA    C514          -34.7489728852       15.1148282116       -0.6567184026  LPSA26    1               0.0000000000
     27963       901  ECLIPA    H514R         -35.4712416495       15.9303685806       -0.6273993866  LPSA26    1               0.0000000000
     27964       901  ECLIPA    H514S         -33.7668215433       15.5905454232       -0.7024724270  LPSA26    1               0.0000000000
     27965       901  ECLIPA    H514T         -34.9764658395       14.4168961442       -1.5427815912  LPSA26    1               0.0000000000
     27966       901  ECLIPA    C33           -31.2265129362       14.6218761596       14.4880792826  LPSA26    1               0.0000000000
     27967       901  ECLIPA    H33R          -30.4672644186       15.3755814297       14.8828993596  LPSA26    1               0.0000000000
     27968       901  ECLIPA    O33           -32.2375233962       14.4873156140       15.4699768821  LPSA26    1               0.0000000000
     27969       901  ECLIPA    HO33          -31.8306966801       14.4284962509       16.2926205744  LPSA26    1               0.0000000000
     27970       901  ECLIPA    C34           -31.8685673366       15.2550460365       13.2255459338  LPSA26    1               0.0000000000
     27971       901  ECLIPA    H34R          -32.5877578180       14.5632108227       12.8010908313  LPSA26    1               0.0000000000
     27972       901  ECLIPA    H34S          -31.0857247469       15.3507271878       12.3772221142  LPSA26    1               0.0000000000
     27973       901  ECLIPA    C35           -32.5740124200       16.6088006839       13.4256256262  LPSA26    1               0.0000000000
     27974       901  ECLIPA    H35R          -31.8195343997       17.3439093465       13.6963698038  LPSA26    1               0.0000000000
     27975       901  ECLIPA    H35S          -33.2735833688       16.5200323825       14.2668166019  LPSA26    1               0.0000000000
     27976       901  ECLIPA    C36           -33.2387939213       17.2426051678       12.1865608177  LPSA26    1               0.0000000000
     27977       901  ECLIPA    H36R          -33.5576974976       16.2769233384       11.7430812241  LPSA26    1               0.0000000000
     27978       901  ECLIPA    H36S          -32.5431237939       17.7951441312       11.4785220412  LPSA26    1               0.0000000000
     27979       901  ECLIPA    C37           -34.5248145909       17.9724591727       12.5255831563  LPSA26    1               0.0000000000
     27980       901  ECLIPA    H37R          -34.1742895823       19.0912985465       12.6765215637  LPSA26    1               0.0000000000
     27981       901  ECLIPA    H37S          -34.9284041944       17.6803256289       13.5128993321  LPSA26    1               0.0000000000
     27982       901  ECLIPA    C38           -35.6287413777       17.9705296249       11.4317274953  LPSA26    1               0.0000000000
     27983       901  ECLIPA    H38R          -36.2170245309       17.0381937753       11.4067421357  LPSA26    1               0.0000000000
     27984       901  ECLIPA    H38S          -36.3743624929       18.7323227284       11.7230999881  LPSA26    1               0.0000000000
     27985       901  ECLIPA    C39           -35.0360648648       18.1650594612       10.0213367345  LPSA26    1               0.0000000000
     27986       901  ECLIPA    H39R          -34.2456376303       17.3960159195        9.8128797222  LPSA26    1               0.0000000000
     27987       901  ECLIPA    H39S          -34.6845358074       19.2296494474        9.9697980947  LPSA26    1               0.0000000000
     27988       901  ECLIPA    C310          -36.0287360939       18.1228667394        8.8401719124  LPSA26    1               0.0000000000
     27989       901  ECLIPA    H310R         -36.7124285508       19.0246607685        9.0626900142  LPSA26    1               0.0000000000
     27990       901  ECLIPA    H310S         -36.6425301476       17.1767091951        8.8945759064  LPSA26    1               0.0000000000
     27991       901  ECLIPA    C311          -35.3390470020       17.9381683796        7.5676235846  LPSA26    1               0.0000000000
     27992       901  ECLIPA    H311R         -34.3859101214       18.5254825553        7.5507520616  LPSA26    1               0.0000000000
     27993       901  ECLIPA    H311S         -35.0680490523       16.8741807131        7.2851462164  LPSA26    1               0.0000000000
     27994       901  ECLIPA    C312          -36.1799393009       18.3154840722        6.3280121142  LPSA26    1               0.0000000000
     27995       901  ECLIPA    H312R         -37.2575020976       18.0575115770        6.4861373960  LPSA26    1               0.0000000000
     27996       901  ECLIPA    H312S         -36.0874202147       19.4209977573        6.1820758986  LPSA26    1               0.0000000000
     27997       901  ECLIPA    C313          -35.7067374044       17.6608242667        4.9895779706  LPSA26    1               0.0000000000
     27998       901  ECLIPA    H313R         -34.8163077182       18.1694190973        4.7825120466  LPSA26    1               0.0000000000
     27999       901  ECLIPA    H313S         -35.4680835733       16.5733916480        5.1572698764  LPSA26    1               0.0000000000
     28000       901  ECLIPA    C314          -36.6175981900       17.7733532394        3.8116661598  LPSA26    1               0.0000000000
     28001       901  ECLIPA    H314R         -36.8227562689       18.8593118706        3.6067793993  LPSA26    1               0.0000000000
     28002       901  ECLIPA    H314S         -36.2628095021       17.3148131662        2.8849361441  LPSA26    1               0.0000000000
     28003       901  ECLIPA    H314T         -37.6405582353       17.3117717994        4.0446347774  LPSA26    1               0.0000000000
     28004       901  ECLIPA    C11           -34.1228097659        9.5795019774       11.2900808200  LPSA26    1               0.0000000000
     28005       901  ECLIPA    O11           -35.2753075559        9.9660216680       11.1394597694  LPSA26    1               0.0000000000
     28006       901  ECLIPA    C12           -33.6316470732        8.4954441601       10.2853014675  LPSA26    1               0.0000000000
     28007       901  ECLIPA    H12R          -34.1188184337        7.5071183419       10.4852637814  LPSA26    1               0.0000000000
     28008       901  ECLIPA    H12S          -32.5369582115        8.4247124330       10.5222272274  LPSA26    1               0.0000000000
     28009       901  ECLIPA    C13           -33.8047905433        8.8355748077        8.8110583416  LPSA26    1               0.0000000000
     28010       901  ECLIPA    H13R          -34.8368690422        9.3010770264        8.5839874118  LPSA26    1               0.0000000000
     28011       901  ECLIPA    O13           -33.7552104133        7.5542047384        8.1311342176  LPSA26    1               0.0000000000
     28012       901  ECLIPA    HO13          -34.2014471376        7.6115318711        7.3064966676  LPSA26    1               0.0000000000
     28013       901  ECLIPA    C14           -32.7265629415        9.8333898849        8.4581579993  LPSA26    1               0.0000000000
     28014       901  ECLIPA    H14R          -31.7239198754        9.5957901174        8.9706443184  LPSA26    1               0.0000000000
     28015       901  ECLIPA    H14S          -33.1112309907       10.8399591427        8.7243868424  LPSA26    1               0.0000000000
     28016       901  ECLIPA    C15           -32.4091112436        9.9063714371        6.9526486677  LPSA26    1               0.0000000000
     28017       901  ECLIPA    H15R          -32.2113193616        8.9269314448        6.5500123177  LPSA26    1               0.0000000000
     28018       901  ECLIPA    H15S          -31.5423469698       10.5650934116        6.8782608049  LPSA26    1               0.0000000000
     28019       901  ECLIPA    C16           -33.6130814295       10.4773124268        6.1622847334  LPSA26    1               0.0000000000
     28020       901  ECLIPA    H16R          -33.6808960083       11.6207248485        6.2733383262  LPSA26    1               0.0000000000
     28021       901  ECLIPA    H16S          -34.5278596405       10.2091736683        6.7182496574  LPSA26    1               0.0000000000
     28022       901  ECLIPA    C17           -33.5883097884       10.1107534583        4.6801229578  LPSA26    1               0.0000000000
     28023       901  ECLIPA    H17R          -32.5010757984       10.3012422282        4.4246758429  LPSA26    1               0.0000000000
     28024       901  ECLIPA    H17S          -34.1773537843       10.7398314708        4.0046542873  LPSA26    1               0.0000000000
     28025       901  ECLIPA    C18           -33.9700615192        8.6738258759        4.4504458171  LPSA26    1               0.0000000000
     28026       901  ECLIPA    H18R          -33.2969923161        8.1634510481        5.0865821920  LPSA26    1               0.0000000000
     28027       901  ECLIPA    H18S          -35.0422015569        8.5451975776        4.7749867078  LPSA26    1               0.0000000000
     28028       901  ECLIPA    C19           -33.8106354666        8.2565872430        3.0097966450  LPSA26    1               0.0000000000
     28029       901  ECLIPA    H19R          -33.9764090201        7.1918730202        2.9245509529  LPSA26    1               0.0000000000
     28030       901  ECLIPA    H19S          -32.7710861127        8.5203531228        2.6238151240  LPSA26    1               0.0000000000
     28031       901  ECLIPA    C110          -34.8790563347        8.9173689449        2.1045801788  LPSA26    1               0.0000000000
     28032       901  ECLIPA    H110R         -35.9120562169        8.8168975650        2.4416701971  LPSA26    1               0.0000000000
     28033       901  ECLIPA    H110S         -34.5395275954        9.9751646167        2.1583327743  LPSA26    1               0.0000000000
     28034       901  ECLIPA    C111          -34.7160521797        8.4047689771        0.7563571155  LPSA26    1               0.0000000000
     28035       901  ECLIPA    H111R         -33.6513911795        8.3213365753        0.3999767799  LPSA26    1               0.0000000000
     28036       901  ECLIPA    H111S         -35.0472764246        7.3997508982        0.7977177860  LPSA26    1               0.0000000000
     28037       901  ECLIPA    C112          -35.5710996488        9.1311820015       -0.2937360943  LPSA26    1               0.0000000000
     28038       901  ECLIPA    H112R         -36.5720404420        9.0108214799        0.1973446929  LPSA26    1               0.0000000000
     28039       901  ECLIPA    H112S         -35.4531185139       10.2150538781       -0.2177998937  LPSA26    1               0.0000000000
     28040       901  ECLIPA    C113          -35.2496315237        8.7457257142       -1.7468031795  LPSA26    1               0.0000000000
     28041       901  ECLIPA    H113R         -34.2214658968        9.1070841877       -1.9802017524  LPSA26    1               0.0000000000
     28042       901  ECLIPA    H113S         -35.1696946878        7.6591886592       -1.8531093719  LPSA26    1               0.0000000000
     28043       901  ECLIPA    C114          -36.2302486268        9.1048590565       -2.8344928043  LPSA26    1               0.0000000000
     28044       901  ECLIPA    H114R         -37.2862360439        8.8541281260       -2.7829422503  LPSA26    1               0.0000000000
     28045       901  ECLIPA    H114S         -36.2182906178       10.2191863983       -2.9951089580  LPSA26    1               0.0000000000
     28046       901  ECLIPA    H114T         -35.9980282993        8.5109286369       -3.7399523103  LPSA26    1               0.0000000000
     28047       902  AKDO      C1            -36.5860582637       15.1590292666       22.4410509549  LPSA26    2               0.0000000000
     28048       902  AKDO      O11           -37.5773662888       15.9652828398       22.4913720772  LPSA26    2               0.0000000000
     28049       902  AKDO      O12           -35.3917327798       15.3557459158       22.0800765534  LPSA26    2               0.0000000000
     28050       902  AKDO      C2            -36.8952166306       13.7277896799       22.8913181237  LPSA26    2               0.0000000000
     28051       902  AKDO      C6            -38.6244239583       12.3935972440       23.8039205188  LPSA26    2               0.0000000000
     28052       902  AKDO      H6            -38.6114269050       11.7698176928       22.9487387861  LPSA26    2               0.0000000000
     28053       902  AKDO      O6            -38.1747231438       13.7568026518       23.4267274814  LPSA26    2               0.0000000000
     28054       902  AKDO      C3            -35.9931855468       13.2436010456       23.9587385105  LPSA26    2               0.0000000000
     28055       902  AKDO      H31           -35.9026539678       13.8803030459       24.7868435866  LPSA26    2               0.0000000000
     28056       902  AKDO      H32           -34.9434706786       13.0793384492       23.4151264596  LPSA26    2               0.0000000000
     28057       902  AKDO      C4            -36.4007127236       11.8357458680       24.3842593775  LPSA26    2               0.0000000000
     28058       902  AKDO      H4            -36.4636463019       11.1513034335       23.5563617270  LPSA26    2               0.0000000000
     28059       902  AKDO      O4            -35.4680741899       11.3425775844       25.3355834555  LPSA26    2               0.0000000000
     28060       902  AKDO      C5            -37.7560397799       11.7723045523       24.9292437177  LPSA26    2               0.0000000000
     28061       902  AKDO      H5            -38.0995758958       10.7073901057       25.0107888161  LPSA26    2               0.0000000000
     28062       902  AKDO      O5            -37.7718724204       12.5371409339       26.2083878813  LPSA26    2               0.0000000000
     28063       902  AKDO      C7            -40.1719665649       12.3516208464       24.1981149098  LPSA26    2               0.0000000000
     28064       902  AKDO      H7            -40.3055656726       12.9547735301       25.0939202098  LPSA26    2               0.0000000000
     28065       902  AKDO      O7            -40.6540028865       10.9901788175       24.3482682347  LPSA26    2               0.0000000000
     28066       902  AKDO      HO7           -40.7581139587       10.6667318422       23.4945166536  LPSA26    2               0.0000000000
     28067       902  AKDO      C8            -40.9388375048       12.9833308745       22.9864433882  LPSA26    2               0.0000000000
     28068       902  AKDO      H81           -40.5322400466       14.0205581590       22.9153150275  LPSA26    2               0.0000000000
     28069       902  AKDO      H82           -40.7152916162       12.3149089272       22.0745354517  LPSA26    2               0.0000000000
     28070       902  AKDO      O8            -42.3802723439       13.0424789907       23.3537996748  LPSA26    2               0.0000000000
     28071       902  AKDO      HO8           -42.7724392167       13.8431221092       22.9179804014  LPSA26    2               0.0000000000
     28072       903  AKDO      C1            -34.4762853105        9.8294099713       23.8027969005  LPSA26    3               1.0000000000
     28073       903  AKDO      O11           -34.1596719815       10.2439030884       22.6471489042  LPSA26    3               1.0000000000
     28074       903  AKDO      O12           -34.9635673110        8.7041578174       24.0656860145  LPSA26    3               1.0000000000
     28075       903  AKDO      C2            -34.2423177232       10.7174589065       25.0166033796  LPSA26    3               1.0000000000
     28076       903  AKDO      C6            -33.0637276527       12.6730784476       25.7688829792  LPSA26    3               1.0000000000
     28077       903  AKDO      H6            -34.0391821188       13.2204807188       25.9810553331  LPSA26    3               1.0000000000
     28078       903  AKDO      O6            -33.2485058592       11.7562128712       24.7076657818  LPSA26    3               1.0000000000
     28079       903  AKDO      C3            -33.8093153909        9.9922164226       26.3187707743  LPSA26    3               1.0000000000
     28080       903  AKDO      H31           -32.7857276778        9.4574821073       26.1504935106  LPSA26    3               1.0000000000
     28081       903  AKDO      H32           -34.5333351199        9.2125453301       26.5929217108  LPSA26    3               1.0000000000
     28082       903  AKDO      C4            -33.6575236861       11.0277041036       27.4036122013  LPSA26    3               1.0000000000
     28083       903  AKDO      H4            -34.5714800001       11.6295359337       27.4051754129  LPSA26    3               1.0000000000
     28084       903  AKDO      O4            -33.4653344326       10.5378009818       28.7388570077  LPSA26    3               1.0000000000
     28085       903  AKDO      HO4           -34.1120403108       10.8252314094       29.3717785514  LPSA26    3               1.0000000000
     28086       903  AKDO      C5            -32.6632804323       11.9639033763       27.0369167275  LPSA26    3               1.0000000000
     28087       903  AKDO      H5            -32.4971035473       12.6847507414       27.9236884022  LPSA26    3               1.0000000000
     28088       903  AKDO      O5            -31.3941998942       11.3097327460       26.8495261943  LPSA26    3               1.0000000000
     28089       903  AKDO      HO5           -31.4688488808       10.6527347389       26.1887877298  LPSA26    3               1.0000000000
     28090       903  AKDO      C7            -32.0220982650       13.6697130010       25.3258859863  LPSA26    3               1.0000000000
     28091       903  AKDO      H7            -31.0280204674       13.1704210779       25.1324849511  LPSA26    3               1.0000000000
     28092       903  AKDO      O7            -31.8764982048       14.6752909119       26.3661029982  LPSA26    3               1.0000000000
     28093       903  AKDO      HO7           -31.0879815840       15.2222791137       26.1647669547  LPSA26    3               1.0000000000
     28094       903  AKDO      C8            -32.5653066357       14.3755451975       24.1539635864  LPSA26    3               1.0000000000
     28095       903  AKDO      H81           -32.7729553867       13.6663128676       23.3419478721  LPSA26    3               1.0000000000
     28096       903  AKDO      H82           -33.4836473977       14.9674227198       24.2853144505  LPSA26    3               1.0000000000
     28097       903  AKDO      O8            -31.6074722207       15.2813884643       23.6541307456  LPSA26    3               1.0000000000
     28098       903  AKDO      HO8           -31.0315383668       14.6070942446       23.2473452835  LPSA26    3               1.0000000000
     28099       904  AHEP      C1            -38.5829822431       12.0822804718       27.2793229502  LPSA26    4               2.0000000000
     28100       904  AHEP      H1            -39.5381921888       12.5316536088       26.8517192453  LPSA26    4               2.0000000000
     28101       904  AHEP      C5            -37.7538941457        9.9285877199       28.0185271385  LPSA26    4               2.0000000000
     28102       904  AHEP      H5            -36.7651616419       10.3242452704       27.5619054335  LPSA26    4               2.0000000000
     28103       904  AHEP      O5            -38.7961327358       10.6733370523       27.3942805697  LPSA26    4               2.0000000000
     28104       904  AHEP      C2            -38.4807247237       12.6228645100       28.6827861277  LPSA26    4               2.0000000000
     28105       904  AHEP      H2            -38.2698850853       13.6962524411       28.7442425996  LPSA26    4               2.0000000000
     28106       904  AHEP      O2            -39.6798452544       12.4264340685       29.3407203943  LPSA26    4               2.0000000000
     28107       904  AHEP      HO2           -39.8847992209       13.1871083093       29.8507927467  LPSA26    4               2.0000000000
     28108       904  AHEP      C3            -37.3811439479       11.8989209527       29.4857672188  LPSA26    4               2.0000000000
     28109       904  AHEP      H3            -36.3452234773       12.1577681809       29.2269906369  LPSA26    4               2.0000000000
     28110       904  AHEP      O3            -37.4345615703       12.2791100709       30.7882097304  LPSA26    4               2.0000000000
     28111       904  AHEP      C4            -37.6393480086       10.4143770679       29.4546205599  LPSA26    4               2.0000000000
     28112       904  AHEP      H4            -38.5666176487       10.0724630422       29.9788637739  LPSA26    4               2.0000000000
     28113       904  AHEP      O4            -36.5444253846        9.7512578843       30.0145912217  LPSA26    4               2.0000000000
     28114       904  AHEP      P4            -36.6110583169        9.0045270426       31.4978499249  LPSA26    4               2.0000000000
     28115       904  AHEP      OP42          -35.2938001549        9.1251241540       32.1560374192  LPSA26    4               2.0000000000
     28116       904  AHEP      OP43          -36.9090414177        7.6071877783       31.0397938518  LPSA26    4               2.0000000000
     28117       904  AHEP      OP44          -37.8209311791        9.5638160899       32.3098937101  LPSA26    4               2.0000000000
     28118       904  AHEP      C6            -37.9320710769        8.3832943304       27.7982482844  LPSA26    4               2.0000000000
     28119       904  AHEP      H6            -36.9392254963        7.9192709486       28.0833143566  LPSA26    4               2.0000000000
     28120       904  AHEP      O6            -38.9383866541        7.9357158187       28.7103505027  LPSA26    4               2.0000000000
     28121       904  AHEP      HO6           -38.6481379621        7.1327283180       29.2203787365  LPSA26    4               2.0000000000
     28122       904  AHEP      C7            -38.2454069826        7.9858304647       26.3054198206  LPSA26    4               2.0000000000
     28123       904  AHEP      H71           -38.1996106994        6.8557575000       26.1576126064  LPSA26    4               2.0000000000
     28124       904  AHEP      H72           -37.5907892366        8.5750366170       25.6323487339  LPSA26    4               2.0000000000
     28125       904  AHEP      O7            -39.5889910405        8.3255900372       25.9755159574  LPSA26    4               2.0000000000
     28126       904  AHEP      HO7           -40.1631574722        7.6260384122       26.3256794122  LPSA26    4               2.0000000000
     28127       905  AHEP      C1            -36.3100780486       12.9182114865       31.4342177374  LPSA26    5               3.0000000000
     28128       905  AHEP      H1            -35.3379139182       12.5925443527       30.9794447437  LPSA26    5               3.0000000000
     28129       905  AHEP      C5            -37.5367959405       14.9028314814       31.9165413065  LPSA26    5               3.0000000000
     28130       905  AHEP      H5            -38.4467880022       14.2868681074       31.6031509785  LPSA26    5               3.0000000000
     28131       905  AHEP      O5            -36.3838404624       14.3495611538       31.3013865768  LPSA26    5               3.0000000000
     28132       905  AHEP      C2            -36.2083935471       12.6411086842       32.9718957084  LPSA26    5               3.0000000000
     28133       905  AHEP      H2            -36.2185014147       11.5100613152       33.0921707216  LPSA26    5               3.0000000000
     28134       905  AHEP      O2            -34.9806885722       13.1398363596       33.4691025827  LPSA26    5               3.0000000000
     28135       905  AHEP      HO2           -34.3797530249       12.4216754822       33.6403503244  LPSA26    5               3.0000000000
     28136       905  AHEP      C3            -37.4530594882       13.1889638635       33.7004304811  LPSA26    5               3.0000000000
     28137       905  AHEP      H3            -38.3624254279       12.6973141677       33.3375632548  LPSA26    5               3.0000000000
     28138       905  AHEP      O3            -37.4742292463       13.0214559099       35.1462238331  LPSA26    5               3.0000000000
     28139       905  AHEP      C4            -37.4819106419       14.6580071777       33.4524658705  LPSA26    5               3.0000000000
     28140       905  AHEP      H4            -36.5581946302       15.1687250766       33.8188816395  LPSA26    5               3.0000000000
     28141       905  AHEP      O4            -38.6820525953       15.1997102846       34.0881196202  LPSA26    5               3.0000000000
     28142       905  AHEP      P4            -38.5660437540       16.2511965361       35.2810123301  LPSA26    5               3.0000000000
     28143       905  AHEP      OP42          -39.9675157620       16.4144200525       35.8202965042  LPSA26    5               3.0000000000
     28144       905  AHEP      OP43          -38.0456959460       17.5502430906       34.6107506294  LPSA26    5               3.0000000000
     28145       905  AHEP      OP44          -37.5421346700       15.7069984829       36.2417033353  LPSA26    5               3.0000000000
     28146       905  AHEP      C6            -37.7776354587       16.3751982632       31.5493607386  LPSA26    5               3.0000000000
     28147       905  AHEP      H6            -38.7337545658       16.7478962631       31.9533288164  LPSA26    5               3.0000000000
     28148       905  AHEP      O6            -36.7156447077       17.1846030651       32.0428602265  LPSA26    5               3.0000000000
     28149       905  AHEP      HO6           -35.8612558558       17.1448035868       31.5367188277  LPSA26    5               3.0000000000
     28150       905  AHEP      C7            -38.0158971492       16.5000716738       30.0822725317  LPSA26    5               3.0000000000
     28151       905  AHEP      H71           -38.7325616377       17.3342375818       29.9169108581  LPSA26    5               3.0000000000
     28152       905  AHEP      H72           -38.4580901924       15.5986612939       29.6179339851  LPSA26    5               3.0000000000
     28153       905  AHEP      O7            -36.7693046896       16.9301877948       29.4957736452  LPSA26    5               3.0000000000
     28154       906  AHEP      C1            -36.0982563669       15.9282844132       28.7926622005  LPSA26    6               4.0000000000
     28155       906  AHEP      H1            -36.5407795060       14.9020787573       29.0422981953  LPSA26    6               4.0000000000
     28156       906  AHEP      C5            -35.6725444704       17.3505981772       26.9237617191  LPSA26    6               4.0000000000
     28157       906  AHEP      H5            -36.1578423989       18.1633626543       27.4818042043  LPSA26    6               4.0000000000
     28158       906  AHEP      O5            -36.1957062355       16.0842757647       27.3547530115  LPSA26    6               4.0000000000
     28159       906  AHEP      C2            -34.6629448243       15.9016827485       29.2397872647  LPSA26    6               4.0000000000
     28160       906  AHEP      H2            -34.6670347237       15.6922976439       30.3523091474  LPSA26    6               4.0000000000
     28161       906  AHEP      O2            -33.9592132176       14.8000607478       28.7267108980  LPSA26    6               4.0000000000
     28162       906  AHEP      HO2           -33.8367678412       14.2383929627       29.4669064354  LPSA26    6               4.0000000000
     28163       906  AHEP      C3            -34.0190739507       17.2549824254       28.8468391403  LPSA26    6               4.0000000000
     28164       906  AHEP      H3            -34.5297749563       18.0304363083       29.4311808254  LPSA26    6               4.0000000000
     28165       906  AHEP      O3            -32.5600007689       17.3617840683       29.2225362108  LPSA26    6               4.0000000000
     28166       906  AHEP      HO3           -32.3579235591       17.8305212690       29.9865592523  LPSA26    6               4.0000000000
     28167       906  AHEP      C4            -34.1841017820       17.3934500578       27.2761740859  LPSA26    6               4.0000000000
     28168       906  AHEP      H4            -33.5416295616       16.6698757614       26.7944950683  LPSA26    6               4.0000000000
     28169       906  AHEP      O4            -33.6455516061       18.6337203749       26.7938835778  LPSA26    6               4.0000000000
     28170       906  AHEP      HO4           -34.3257411337       19.3204465839       27.1589530594  LPSA26    6               4.0000000000
     28171       906  AHEP      C6            -35.9835697228       17.6644475956       25.4906533340  LPSA26    6               4.0000000000
     28172       906  AHEP      H6            -35.6242411938       18.6771514511       25.3442628137  LPSA26    6               4.0000000000
     28173       906  AHEP      O6            -35.1530742439       16.8742979323       24.6375675438  LPSA26    6               4.0000000000
     28174       906  AHEP      HO6           -35.6778396590       16.3843128725       23.9977784313  LPSA26    6               4.0000000000
     28175       906  AHEP      C7            -37.4519815294       17.6700300117       25.1799756221  LPSA26    6               4.0000000000
     28176       906  AHEP      H71           -37.5721056089       18.0801340814       24.1408078076  LPSA26    6               4.0000000000
     28177       906  AHEP      H72           -37.9167225791       18.3399935401       25.9252229174  LPSA26    6               4.0000000000
     28178       906  AHEP      O7            -38.0555347330       16.4121647798       25.2517430265  LPSA26    6               4.0000000000
     28179       906  AHEP      HO7           -38.2681614643       16.3026382606       26.2011285002  LPSA26    6               4.0000000000
     28180       907  AGLC      C1            -38.0111459868       11.8077951889       35.6520976122  LPSA26    7               4.0000000000
     28181       907  AGLC      H1            -39.0523273041       11.6490873144       35.2047739589  LPSA26    7               4.0000000000
     28182       907  AGLC      C5            -35.9595219717       10.7328146400       36.0987679218  LPSA26    7               4.0000000000
     28183       907  AGLC      H5            -35.3922674170       11.6363362379       35.8327124756  LPSA26    7               4.0000000000
     28184       907  AGLC      O5            -37.1802900697       10.7037430213       35.4366254460  LPSA26    7               4.0000000000
     28185       907  AGLC      C2            -38.2139994217       11.8752624540       37.1582745954  LPSA26    7               4.0000000000
     28186       907  AGLC      H2            -38.5800461669       10.8375252172       37.4887389927  LPSA26    7               4.0000000000
     28187       907  AGLC      O2            -39.3411070430       12.7042687087       37.5024056006  LPSA26    7               4.0000000000
     28188       907  AGLC      HO2           -38.9774043916       13.5755236424       37.6430208865  LPSA26    7               4.0000000000
     28189       907  AGLC      C3            -37.0300498174       11.9538420932       37.9903802326  LPSA26    7               4.0000000000
     28190       907  AGLC      H3            -36.5472149234       12.8788688240       37.6727250444  LPSA26    7               4.0000000000
     28191       907  AGLC      O3            -37.2278731740       12.1484350459       39.4204481292  LPSA26    7               4.0000000000
     28192       907  AGLC      C4            -36.2407683487       10.7407113984       37.5928595998  LPSA26    7               4.0000000000
     28193       907  AGLC      H4            -36.7690435762        9.7838096459       37.9560286200  LPSA26    7               4.0000000000
     28194       907  AGLC      O4            -34.9536361051       10.9119777230       38.2243117391  LPSA26    7               4.0000000000
     28195       907  AGLC      HO4           -34.6183321236       10.1327780904       38.6132003238  LPSA26    7               4.0000000000
     28196       907  AGLC      C6            -35.0254822493        9.6382638230       35.5245160098  LPSA26    7               4.0000000000
     28197       907  AGLC      H61           -35.0190358907        9.7793977663       34.4135318240  LPSA26    7               4.0000000000
     28198       907  AGLC      H62           -33.9704734862        9.6184792305       35.8722646349  LPSA26    7               4.0000000000
     28199       907  AGLC      O6            -35.6987996765        8.3532166225       35.6892983147  LPSA26    7               4.0000000000
     28200       907  AGLC      HO6           -35.2582565784        8.0529147953       36.4386090630  LPSA26    7               4.0000000000
     28201       908  AGLC      C1            -36.7954435171       13.3585413193       39.9328324507  LPSA26    8               5.0000000000
     28202       908  AGLC      H1            -35.7679606116       13.5694305760       39.5884769495  LPSA26    8               5.0000000000
     28203       908  AGLC      C5            -38.9879674757       14.4885892700       40.2153373402  LPSA26    8               5.0000000000
     28204       908  AGLC      H5            -39.4741273027       13.5799472262       39.8400606936  LPSA26    8               5.0000000000
     28205       908  AGLC      O5            -37.6617957223       14.5022789266       39.6195505863  LPSA26    8               5.0000000000
     28206       908  AGLC      C2            -36.7026185418       13.3042699610       41.4170311384  LPSA26    8               5.0000000000
     28207       908  AGLC      H2            -36.1871157968       14.2626056723       41.6529594578  LPSA26    8               5.0000000000
     28208       908  AGLC      O2            -35.7830632462       12.3546534687       41.9438754185  LPSA26    8               5.0000000000
     28209       908  AGLC      C3            -38.0048500275       13.2357305147       42.1297388169  LPSA26    8               5.0000000000
     28210       908  AGLC      H3            -38.4043200743       12.2866854889       41.6567950186  LPSA26    8               5.0000000000
     28211       908  AGLC      O3            -37.7908076464       13.0752734064       43.5370978028  LPSA26    8               5.0000000000
     28212       908  AGLC      C4            -38.7644710246       14.4217278936       41.7603093222  LPSA26    8               5.0000000000
     28213       908  AGLC      H4            -38.2384261950       15.3156326410       42.0401368658  LPSA26    8               5.0000000000
     28214       908  AGLC      O4            -40.0232661152       14.4315776948       42.3914819843  LPSA26    8               5.0000000000
     28215       908  AGLC      HO4           -40.3588349168       13.5687605504       42.3800652601  LPSA26    8               5.0000000000
     28216       908  AGLC      C6            -39.9662413947       15.5867963188       39.7357334439  LPSA26    8               5.0000000000
     28217       908  AGLC      H61           -39.9704692314       15.7403156190       38.6468043611  LPSA26    8               5.0000000000
     28218       908  AGLC      H62           -40.9894473390       15.4400024039       40.0276014644  LPSA26    8               5.0000000000
     28219       908  AGLC      O6            -39.7368692614       16.8424125829       40.3040784562  LPSA26    8               5.0000000000
     28220       908  AGLC      HO6           -40.0916475512       16.9111822464       41.2121845210  LPSA26    8               5.0000000000
     28221       909  AGAL      C1            -34.4754745575       12.3199610271       41.4573847493  LPSA26    9               6.0000000000
     28222       909  AGAL      H1            -34.4785138153       12.3679455333       40.3420235153  LPSA26    9               6.0000000000
     28223       909  AGAL      C5            -33.3389818870       13.3518311458       43.2125447641  LPSA26    9               6.0000000000
     28224       909  AGAL      H5            -34.3612556313       13.2140124385       43.7424973645  LPSA26    9               6.0000000000
     28225       909  AGAL      O5            -33.5680066726       13.3974169915       41.8451689838  LPSA26    9               6.0000000000
     28226       909  AGAL      C2            -33.8673977541       10.9964991985       41.8393925249  LPSA26    9               6.0000000000
     28227       909  AGAL      H2            -32.8776664239       10.9250265476       41.4115621152  LPSA26    9               6.0000000000
     28228       909  AGAL      O2            -34.4995325660        9.8948311207       41.1608705954  LPSA26    9               6.0000000000
     28229       909  AGAL      C3            -33.6018245785       10.9083408860       43.3264191845  LPSA26    9               6.0000000000
     28230       909  AGAL      H3            -34.6026291929       10.9279207495       43.9424563891  LPSA26    9               6.0000000000
     28231       909  AGAL      O3            -33.1273762088        9.6655026645       43.7491515633  LPSA26    9               6.0000000000
     28232       909  AGAL      HO3           -33.5328875550        9.0137985251       43.1585960960  LPSA26    9               6.0000000000
     28233       909  AGAL      C4            -32.6958271263       12.0276007777       43.6505755014  LPSA26    9               6.0000000000
     28234       909  AGAL      H4            -32.5056326359       12.1335958620       44.7734818408  LPSA26    9               6.0000000000
     28235       909  AGAL      O4            -31.4392112773       11.9641615444       43.0499075873  LPSA26    9               6.0000000000
     28236       909  AGAL      HO4           -30.8211184455       12.3924725404       43.6622427513  LPSA26    9               6.0000000000
     28237       909  AGAL      C6            -32.8259719326       14.6512246551       43.8349081587  LPSA26    9               6.0000000000
     28238       909  AGAL      H61           -33.4896823170       15.5331008115       43.6417203355  LPSA26    9               6.0000000000
     28239       909  AGAL      H62           -32.7511448581       14.6377291656       44.9292747136  LPSA26    9               6.0000000000
     28240       909  AGAL      O6            -31.5307874336       14.9459767513       43.4062227539  LPSA26    9               6.0000000000
     28241       909  AGAL      HO6           -31.6121943011       15.6050482475       42.6923548993  LPSA26    9               6.0000000000
     28242       910  AGAL      C1            -34.9840784935        8.6660823207       41.7517281777  LPSA26    10              7.0000000000
     28243       910  AGAL      H1            -34.0731285399        8.0593152098       41.8429972083  LPSA26    10              7.0000000000
     28244       910  AGAL      C5            -36.8855993158        9.3439787475       43.0613392294  LPSA26    10              7.0000000000
     28245       910  AGAL      H5            -36.6740729161       10.4173296836       42.6233508762  LPSA26    10              7.0000000000
     28246       910  AGAL      O5            -35.6434189632        8.6147495933       43.0470213554  LPSA26    10              7.0000000000
     28247       910  AGAL      C2            -35.9460652290        8.0442939264       40.7227968417  LPSA26    10              7.0000000000
     28248       910  AGAL      H2            -36.0496564155        6.9359684237       41.0433947026  LPSA26    10              7.0000000000
     28249       910  AGAL      O2            -35.3383463440        7.7042504613       39.5532095562  LPSA26    10              7.0000000000
     28250       910  AGAL      HO2           -35.4938287741        6.7926762094       39.3379401176  LPSA26    10              7.0000000000
     28251       910  AGAL      C3            -37.2582883579        8.7429987510       40.6928251787  LPSA26    10              7.0000000000
     28252       910  AGAL      H3            -36.9875947145        9.7726061095       40.4679648945  LPSA26    10              7.0000000000
     28253       910  AGAL      O3            -38.1817543378        8.2424127986       39.7732034444  LPSA26    10              7.0000000000
     28254       910  AGAL      HO3           -38.2246104778        8.8762010010       39.0151094934  LPSA26    10              7.0000000000
     28255       910  AGAL      C4            -37.8671718334        8.6948014997       42.0524071915  LPSA26    10              7.0000000000
     28256       910  AGAL      H4            -38.7962031564        9.2942479036       42.1099272557  LPSA26    10              7.0000000000
     28257       910  AGAL      O4            -38.1832133512        7.4075005619       42.4965010455  LPSA26    10              7.0000000000
     28258       910  AGAL      HO4           -37.3471478344        6.9830313685       42.5675127347  LPSA26    10              7.0000000000
     28259       910  AGAL      C6            -37.5110844739        9.5952849173       44.3959537205  LPSA26    10              7.0000000000
     28260       910  AGAL      H61           -36.8107335498       10.0269667461       45.1044438806  LPSA26    10              7.0000000000
     28261       910  AGAL      H62           -38.3349953951       10.4494830373       44.2564473849  LPSA26    10              7.0000000000
     28262       910  AGAL      O6            -38.1617095799        8.5237332283       45.1112340130  LPSA26    10              7.0000000000
     28263       910  AGAL      HO6           -37.6509965429        8.3546032723       45.9237589285  LPSA26    10              7.0000000000
     28264       911  BGLC      C1            -37.7544075811       14.1113479254       44.5018065681  LPSA26    11              6.0000000000
     28265       911  BGLC      H1            -38.7972212796       14.3784561858       44.5883763758  LPSA26    11              6.0000000000
     28266       911  BGLC      C5            -36.7584189577       16.3245313241       45.1248117688  LPSA26    11              6.0000000000
     28267       911  BGLC      H5            -37.7686742465       16.7977735359       45.3871201921  LPSA26    11              6.0000000000
     28268       911  BGLC      O5            -36.8552958250       15.2141327866       44.0830650888  LPSA26    11              6.0000000000
     28269       911  BGLC      C2            -37.2180521022       13.5586656973       45.7977571702  LPSA26    11              6.0000000000
     28270       911  BGLC      H2            -36.2087354692       13.0798492871       45.7293388291  LPSA26    11              6.0000000000
     28271       911  BGLC      O2            -38.0625431194       12.4545397286       46.0886391483  LPSA26    11              6.0000000000
     28272       911  BGLC      HO2           -37.5291767029       11.7069398813       46.2788110113  LPSA26    11              6.0000000000
     28273       911  BGLC      C3            -37.0889202749       14.5553393945       46.8736276645  LPSA26    11              6.0000000000
     28274       911  BGLC      H3            -38.1633604625       14.8873582650       47.1984917368  LPSA26    11              6.0000000000
     28275       911  BGLC      O3            -36.5304238230       13.8984891741       48.0056213318  LPSA26    11              6.0000000000
     28276       911  BGLC      C4            -36.2531060742       15.6551929159       46.4390836423  LPSA26    11              6.0000000000
     28277       911  BGLC      H4            -35.2341085841       15.1980363835       46.2001611147  LPSA26    11              6.0000000000
     28278       911  BGLC      O4            -36.0261528728       16.5947468378       47.4766894645  LPSA26    11              6.0000000000
     28279       911  BGLC      HO4           -35.4385310826       16.1884860904       48.1247908570  LPSA26    11              6.0000000000
     28280       911  BGLC      C6            -35.9709778324       17.5043594221       44.5291127165  LPSA26    11              6.0000000000
     28281       911  BGLC      H61           -35.5611853291       18.2006637676       45.2481190913  LPSA26    11              6.0000000000
     28282       911  BGLC      H62           -35.1647069563       17.0633331418       43.8913252379  LPSA26    11              6.0000000000
     28283       911  BGLC      O6            -36.7091913628       18.3019667753       43.5637942269  LPSA26    11              6.0000000000
     28284       911  BGLC      HO6           -36.8150007249       19.1114188603       44.0054369298  LPSA26    11              6.0000000000
     28285       912  BGLCNA    C1            -37.1204560533       13.9704068692       49.3238540420  LPSA26    12              7.0000000000
     28286       912  BGLCNA    H1            -37.9051079486       13.1430576850       49.3874222992  LPSA26    12              7.0000000000
     28287       912  BGLCNA    C5            -38.4222255504       15.2517179500       50.8763077070  LPSA26    12              7.0000000000
     28288       912  BGLCNA    H5            -39.2344543366       14.4006051664       50.9814236466  LPSA26    12              7.0000000000
     28289       912  BGLCNA    O5            -37.7562396240       15.2411709415       49.5875345322  LPSA26    12              7.0000000000
     28290       912  BGLCNA    C2            -36.0330063036       13.7609194573       50.3245054808  LPSA26    12              7.0000000000
     28291       912  BGLCNA    H2            -35.4015432751       14.7480360888       50.3375086743  LPSA26    12              7.0000000000
     28292       912  BGLCNA    N             -35.2979110591       12.5143406418       50.0347611965  LPSA26    12              7.0000000000
     28293       912  BGLCNA    HN            -35.9223066565       11.8063476591       49.9972643287  LPSA26    12              7.0000000000
     28294       912  BGLCNA    C             -34.0075800864       12.5157071959       49.8903426450  LPSA26    12              7.0000000000
     28295       912  BGLCNA    O             -33.3737477336       13.5431856408       50.0855928044  LPSA26    12              7.0000000000
     28296       912  BGLCNA    CT            -33.3615390965       11.2027133545       49.5677689528  LPSA26    12              7.0000000000
     28297       912  BGLCNA    HT1           -32.7223645617       10.8377983263       50.3918503408  LPSA26    12              7.0000000000
     28298       912  BGLCNA    HT2           -32.5648559513       11.3508657253       48.7104760971  LPSA26    12              7.0000000000
     28299       912  BGLCNA    HT3           -34.1799554185       10.5190219319       49.2316245990  LPSA26    12              7.0000000000
     28300       912  BGLCNA    C3            -36.5825394768       13.7278075113       51.6995695120  LPSA26    12              7.0000000000
     28301       912  BGLCNA    H3            -37.2951995078       12.7937041313       51.8605307917  LPSA26    12              7.0000000000
     28302       912  BGLCNA    O3            -35.5851771615       13.4770435179       52.7272334264  LPSA26    12              7.0000000000
     28303       912  BGLCNA    C4            -37.2980557058       15.0151373791       51.9591692987  LPSA26    12              7.0000000000
     28304       912  BGLCNA    H4            -36.6271625489       15.9539228521       51.9037868612  LPSA26    12              7.0000000000
     28305       912  BGLCNA    O4            -37.8581954127       15.0523852771       53.2294962294  LPSA26    12              7.0000000000
     28306       912  BGLCNA    HO4           -38.6870853080       14.4926187283       53.2834945119  LPSA26    12              7.0000000000
     28307       912  BGLCNA    C6            -39.2195035982       16.5696082312       50.9528560558  LPSA26    12              7.0000000000
     28308       912  BGLCNA    H61           -39.6647447230       16.6807952065       51.9144325068  LPSA26    12              7.0000000000
     28309       912  BGLCNA    H62           -38.4529320268       17.3265412617       50.8287962869  LPSA26    12              7.0000000000
     28310       912  BGLCNA    O6            -40.0960701387       16.6777914410       49.8597561973  LPSA26    12              7.0000000000
     28311       912  BGLCNA    HO6           -40.8877132355       16.2756198759       50.1903398796  LPSA26    12              7.0000000000
     28312       913  AGAL      C1            -35.9861927444       12.5807193580       53.8132743488  LPSA26    13              8.0000000000
     28313       913  AGAL      H1            -36.9829209363       12.8945535125       54.1959401301  LPSA26    13              8.0000000000
     28314       913  AGAL      C5            -34.4401442750       10.8058004302       53.2950732168  LPSA26    13              8.0000000000
     28315       913  AGAL      H5            -34.0488286403       11.5100555876       52.5641412600  LPSA26    13              8.0000000000
     28316       913  AGAL      O5            -35.8198079555       11.1537461148       53.4918445955  LPSA26    13              8.0000000000
     28317       913  AGAL      C2            -35.1303311921       12.7328609686       55.1010141246  LPSA26    13              8.0000000000
     28318       913  AGAL      H2            -35.3873096048       11.9048112185       55.7917211299  LPSA26    13              8.0000000000
     28319       913  AGAL      O2            -35.3712903418       13.9530139004       55.7701983428  LPSA26    13              8.0000000000
     28320       913  AGAL      C3            -33.6458552731       12.3443484046       54.8979691660  LPSA26    13              8.0000000000
     28321       913  AGAL      H3            -33.2622854903       12.8993427719       54.0477453328  LPSA26    13              8.0000000000
     28322       913  AGAL      O3            -32.8097489470       12.7589429723       55.9888739531  LPSA26    13              8.0000000000
     28323       913  AGAL      HO3           -31.9700512104       13.0880996008       55.6848713412  LPSA26    13              8.0000000000
     28324       913  AGAL      C4            -33.5401105775       10.9709785030       54.5514025965  LPSA26    13              8.0000000000
     28325       913  AGAL      H4            -32.4711554973       10.7121239412       54.1954731349  LPSA26    13              8.0000000000
     28326       913  AGAL      O4            -33.9488811648       10.0893376333       55.5743212917  LPSA26    13              8.0000000000
     28327       913  AGAL      HO4           -34.7620293182       10.3148298200       56.0499681296  LPSA26    13              8.0000000000
     28328       913  AGAL      C6            -34.1944648673        9.5200362514       52.5301443486  LPSA26    13              8.0000000000
     28329       913  AGAL      H61           -34.8179551218        9.5050351009       51.6253596531  LPSA26    13              8.0000000000
     28330       913  AGAL      H62           -33.0925223492        9.4175335320       52.3684678279  LPSA26    13              8.0000000000
     28331       913  AGAL      O6            -34.5548915026        8.3906103780       53.2985910507  LPSA26    13              8.0000000000
     28332       913  AGAL      HO6           -33.8417324503        8.2074474791       53.9299633642  LPSA26    13              8.0000000000
     28333       914  ARHM      C1            -36.0173199165       13.9617298536       57.0117786358  LPSA26    14              9.0000000000
     28334       914  ARHM      H1            -36.6616320941       13.0582479497       56.9981767125  LPSA26    14              9.0000000000
     28335       914  ARHM      C5            -36.1391039703       16.2793799560       57.1930138837  LPSA26    14              9.0000000000
     28336       914  ARHM      H5            -35.5577194085       16.3327624737       56.1976867078  LPSA26    14              9.0000000000
     28337       914  ARHM      O5            -36.8507594027       15.0986733275       57.1718909996  LPSA26    14              9.0000000000
     28338       914  ARHM      C2            -34.9651320383       13.9111358732       58.1413490634  LPSA26    14              9.0000000000
     28339       914  ARHM      H2            -34.3498459195       13.0572124319       57.8875987320  LPSA26    14              9.0000000000
     28340       914  ARHM      O2            -35.4823641439       13.8092247989       59.4330148990  LPSA26    14              9.0000000000
     28341       914  ARHM      C3            -34.1529132230       15.1734019216       58.1095432995  LPSA26    14              9.0000000000
     28342       914  ARHM      H3            -33.8151174215       15.3380357325       57.0440121713  LPSA26    14              9.0000000000
     28343       914  ARHM      O3            -32.9762819338       15.1338534878       58.8567888868  LPSA26    14              9.0000000000
     28344       914  ARHM      HO3           -33.2739163256       15.1981035406       59.8104957846  LPSA26    14              9.0000000000
     28345       914  ARHM      C4            -35.0960687550       16.2961351869       58.3490442956  LPSA26    14              9.0000000000
     28346       914  ARHM      H4            -35.6930301345       16.2557664095       59.2902338481  LPSA26    14              9.0000000000
     28347       914  ARHM      O4            -34.3430637345       17.5365264237       58.4446785014  LPSA26    14              9.0000000000
     28348       914  ARHM      HO4           -34.3331293114       17.9689723737       59.2969967688  LPSA26    14              9.0000000000
     28349       914  ARHM      C6            -37.1078216239       17.4727293588       57.2492155848  LPSA26    14              9.0000000000
     28350       914  ARHM      H61           -38.0027491152       17.3968539943       56.5358243550  LPSA26    14              9.0000000000
     28351       914  ARHM      H62           -37.3890560547       17.5753981327       58.3170764683  LPSA26    14              9.0000000000
     28352       914  ARHM      H63           -36.7628470506       18.4629292769       56.9421594120  LPSA26    14              9.0000000000
     28353       915  ARHM      C1            -36.3852229699       12.8627680717       59.7267990175  LPSA26    15             10.0000000000
     28354       915  ARHM      H1            -36.2911690173       11.9894133468       59.0458905905  LPSA26    15             10.0000000000
     28355       915  ARHM      C5            -38.1585643962       14.3379375839       60.6468530148  LPSA26    15             10.0000000000
     28356       915  ARHM      H5            -37.6377081770       15.3265684604       60.4457705401  LPSA26    15             10.0000000000
     28357       915  ARHM      O5            -37.7567178562       13.3288778792       59.6688136410  LPSA26    15             10.0000000000
     28358       915  ARHM      C2            -36.1364477665       12.3420198875       61.1407671534  LPSA26    15             10.0000000000
     28359       915  ARHM      H2            -35.0129903347       12.0801760761       61.2133420761  LPSA26    15             10.0000000000
     28360       915  ARHM      O2            -36.9898041595       11.1735622260       61.3234079317  LPSA26    15             10.0000000000
     28361       915  ARHM      C3            -36.4410038858       13.4335598963       62.1677656617  LPSA26    15             10.0000000000
     28362       915  ARHM      H3            -35.8350922698       14.3317395828       61.8628392879  LPSA26    15             10.0000000000
     28363       915  ARHM      O3            -35.8460666076       12.9697527280       63.4092175029  LPSA26    15             10.0000000000
     28364       915  ARHM      C4            -37.8420395527       13.7967572800       62.0487117432  LPSA26    15             10.0000000000
     28365       915  ARHM      H4            -38.4772875531       12.8278061760       62.1496903561  LPSA26    15             10.0000000000
     28366       915  ARHM      O4            -38.3628048924       14.7648001743       62.9635513464  LPSA26    15             10.0000000000
     28367       915  ARHM      HO4           -39.3056184724       14.6957993658       62.9565205260  LPSA26    15             10.0000000000
     28368       915  ARHM      C6            -39.6189782467       14.6715037505       60.4460959132  LPSA26    15             10.0000000000
     28369       915  ARHM      H61           -40.0014754059       15.5028563336       61.0956562646  LPSA26    15             10.0000000000
     28370       915  ARHM      H62           -39.8279219844       14.7707245707       59.3910198679  LPSA26    15             10.0000000000
     28371       915  ARHM      H63           -40.2976256114       13.8725050746       60.8578185328  LPSA26    15             10.0000000000
     28372       916  BMANNA    C1            -36.8929121422       10.4087506345       62.5145562334  LPSA26    16             11.0000000000
     28373       916  BMANNA    H1            -37.3768979743       11.0482059596       63.3432051365  LPSA26    16             11.0000000000
     28374       916  BMANNA    C5            -35.5920133719        9.3859618227       64.1851548173  LPSA26    16             11.0000000000
     28375       916  BMANNA    H5            -36.0890071652        9.9573113621       64.9800677769  LPSA26    16             11.0000000000
     28376       916  BMANNA    O5            -35.5656783550       10.0901438442       62.9158851071  LPSA26    16             11.0000000000
     28377       916  BMANNA    C2            -37.7204719453        9.1237729477       62.2781089586  LPSA26    16             11.0000000000
     28378       916  BMANNA    H2            -38.7380446065        9.4982830293       61.9912908466  LPSA26    16             11.0000000000
     28379       916  BMANNA    N             -37.2867557636        8.1995914546       61.2264456342  LPSA26    16             11.0000000000
     28380       916  BMANNA    HN            -36.6558764486        7.5427900551       61.5688724990  LPSA26    16             11.0000000000
     28381       916  BMANNA    C             -37.6533753116        8.2628406715       59.9704010620  LPSA26    16             11.0000000000
     28382       916  BMANNA    O             -38.4976510283        9.1047562007       59.5582221915  LPSA26    16             11.0000000000
     28383       916  BMANNA    CT            -37.0101875797        7.2635496867       59.1331689300  LPSA26    16             11.0000000000
     28384       916  BMANNA    HT1           -37.6267408674        6.4302803191       58.8344492748  LPSA26    16             11.0000000000
     28385       916  BMANNA    HT2           -36.0813088723        6.8316293334       59.5043001239  LPSA26    16             11.0000000000
     28386       916  BMANNA    HT3           -36.7234179950        7.7018846005       58.1231520073  LPSA26    16             11.0000000000
     28387       916  BMANNA    C3            -37.7743800108        8.4218870568       63.6119771117  LPSA26    16             11.0000000000
     28388       916  BMANNA    H3            -38.2331646581        9.0933545613       64.3839812837  LPSA26    16             11.0000000000
     28389       916  BMANNA    O3            -38.5835775700        7.2811898650       63.6122488842  LPSA26    16             11.0000000000
     28390       916  BMANNA    HO3           -39.2392336703        7.3335952359       64.2950500102  LPSA26    16             11.0000000000
     28391       916  BMANNA    C4            -36.3681226276        8.0571803138       64.1045846713  LPSA26    16             11.0000000000
     28392       916  BMANNA    H4            -35.8520431028        7.3647926756       63.4124605202  LPSA26    16             11.0000000000
     28393       916  BMANNA    O4            -36.2699146919        7.4008260026       65.3816866120  LPSA26    16             11.0000000000
     28394       916  BMANNA    HO4           -35.4589530419        6.8971204831       65.4353184152  LPSA26    16             11.0000000000
     28395       916  BMANNA    C6            -34.1854538530        9.1326219105       64.7427751243  LPSA26    16             11.0000000000
     28396       916  BMANNA    H61           -34.2739636586        9.1259629043       65.8875394407  LPSA26    16             11.0000000000
     28397       916  BMANNA    H62           -33.8073948231        8.1541440175       64.4389269682  LPSA26    16             11.0000000000
     28398       916  BMANNA    O6            -33.2117017078       10.1265415609       64.3660927576  LPSA26    16             11.0000000000
     28399       916  BMANNA    HO6           -32.5401243185        9.5779278497       63.9036969990  LPSA26    16             11.0000000000
     28400       917  BGLCNA    C1            -35.2750467559       13.9220581695       64.1715778089  LPSA26    17             11.0000000000
     28401       917  BGLCNA    H1            -35.7715353806       14.9417032687       63.9082176002  LPSA26    17             11.0000000000
     28402       917  BGLCNA    C5            -33.1962759251       15.1477259006       64.5563394407  LPSA26    17             11.0000000000
     28403       917  BGLCNA    H5            -33.6449344383       16.1749623362       64.2825289487  LPSA26    17             11.0000000000
     28404       917  BGLCNA    O5            -33.8900487007       14.1554262853       63.7849982893  LPSA26    17             11.0000000000
     28405       917  BGLCNA    C2            -35.3920528360       13.4989868211       65.5899343931  LPSA26    17             11.0000000000
     28406       917  BGLCNA    H2            -34.8727984012       12.5092394134       65.8249043900  LPSA26    17             11.0000000000
     28407       917  BGLCNA    N             -36.7313165226       13.1842940504       65.8849826081  LPSA26    17             11.0000000000
     28408       917  BGLCNA    HN            -37.4666881216       13.7079112934       65.4150135415  LPSA26    17             11.0000000000
     28409       917  BGLCNA    C             -37.2335132159       12.3793109909       66.8043620798  LPSA26    17             11.0000000000
     28410       917  BGLCNA    O             -36.5237331508       11.6374028879       67.4729873017  LPSA26    17             11.0000000000
     28411       917  BGLCNA    CT            -38.7047735068       12.4194124666       66.9728872304  LPSA26    17             11.0000000000
     28412       917  BGLCNA    HT1           -39.3301866842       11.6109396612       66.5529393721  LPSA26    17             11.0000000000
     28413       917  BGLCNA    HT2           -39.0411938583       13.4394804133       66.7043805047  LPSA26    17             11.0000000000
     28414       917  BGLCNA    HT3           -38.9774877867       12.3947624634       68.1408097225  LPSA26    17             11.0000000000
     28415       917  BGLCNA    C3            -34.7655096658       14.6061727905       66.4076579941  LPSA26    17             11.0000000000
     28416       917  BGLCNA    H3            -35.3528487177       15.5149149886       66.0441361901  LPSA26    17             11.0000000000
     28417       917  BGLCNA    O3            -35.1028886235       14.3579222770       67.8205355914  LPSA26    17             11.0000000000
     28418       917  BGLCNA    C4            -33.2892040134       14.7054466512       66.0496966154  LPSA26    17             11.0000000000
     28419       917  BGLCNA    H4            -32.7717853691       13.6847608450       66.1123142204  LPSA26    17             11.0000000000
     28420       917  BGLCNA    O4            -32.5791578576       15.5644407147       66.9186044206  LPSA26    17             11.0000000000
     28421       917  BGLCNA    HO4           -31.6591018253       15.6912143901       66.7204061560  LPSA26    17             11.0000000000
     28422       917  BGLCNA    C6            -31.7190079137       15.2021428321       64.1200051697  LPSA26    17             11.0000000000
     28423       917  BGLCNA    H61           -31.3707811025       16.2166195795       64.1272946536  LPSA26    17             11.0000000000
     28424       917  BGLCNA    H62           -31.0601783413       14.6028101072       64.8212395067  LPSA26    17             11.0000000000
     28425       917  BGLCNA    O6            -31.5201302554       14.6966143339       62.7926115083  LPSA26    17             11.0000000000
     28426       917  BGLCNA    HO6           -32.0400365358       15.2113742786       62.1856770532  LPSA26    17             11.0000000000
     28427       918  AGAL      C1            -35.3472730019       15.5432731628       68.6198653987  LPSA26    18             12.0000000000
     28428       918  AGAL      H1            -34.3446797814       16.0297863307       68.8082567594  LPSA26    18             12.0000000000
     28429       918  AGAL      C5            -37.5874407775       15.9644196696       67.8636918791  LPSA26    18             12.0000000000
     28430       918  AGAL      H5            -37.5443730536       14.9716624146       67.4068928888  LPSA26    18             12.0000000000
     28431       918  AGAL      O5            -36.2065212094       16.4636641038       67.9834320655  LPSA26    18             12.0000000000
     28432       918  AGAL      C2            -36.0236633232       15.1941884695       70.0000206359  LPSA26    18             12.0000000000
     28433       918  AGAL      H2            -36.1313631922       16.2321544969       70.3908489884  LPSA26    18             12.0000000000
     28434       918  AGAL      O2            -35.1185078226       14.5507771639       70.8342757016  LPSA26    18             12.0000000000
     28435       918  AGAL      C3            -37.4046442461       14.6530429660       69.8682924558  LPSA26    18             12.0000000000
     28436       918  AGAL      H3            -37.3810202467       13.7811898720       69.0958348126  LPSA26    18             12.0000000000
     28437       918  AGAL      O3            -37.9104312763       14.1690793941       71.0758896640  LPSA26    18             12.0000000000
     28438       918  AGAL      HO3           -38.3216671400       13.3096420239       70.9682873819  LPSA26    18             12.0000000000
     28439       918  AGAL      C4            -38.2408605510       15.6426833209       69.1634745928  LPSA26    18             12.0000000000
     28440       918  AGAL      H4            -39.2736944215       15.3111261398       68.9039691178  LPSA26    18             12.0000000000
     28441       918  AGAL      O4            -38.4126111583       16.8350928320       69.9734134928  LPSA26    18             12.0000000000
     28442       918  AGAL      HO4           -39.0727702292       16.6329973283       70.7236544006  LPSA26    18             12.0000000000
     28443       918  AGAL      C6            -38.2410005479       16.7344418113       66.8042742825  LPSA26    18             12.0000000000
     28444       918  AGAL      H61           -37.6808442438       16.5425430345       65.8877991861  LPSA26    18             12.0000000000
     28445       918  AGAL      H62           -39.2527937867       16.2702663287       66.6499463921  LPSA26    18             12.0000000000
     28446       918  AGAL      O6            -38.2932227676       18.0567893729       66.9803033045  LPSA26    18             12.0000000000
     28447       918  AGAL      HO6           -37.7574207837       18.4336246928       67.6707071977  LPSA26    18             12.0000000000
     28448       919  ARHM      C1            -35.2219057635       15.0814319864       72.1803514454  LPSA26    19             13.0000000000
     28449       919  ARHM      H1            -36.1625819672       15.5755488032       72.3185909119  LPSA26    19             13.0000000000
     28450       919  ARHM      C5            -32.9684817800       15.8164861183       72.2512180912  LPSA26    19             13.0000000000
     28451       919  ARHM      H5            -32.8699922863       15.4058147627       71.2133247196  LPSA26    19             13.0000000000
     28452       919  ARHM      O5            -34.3383424758       16.1869147095       72.4162684983  LPSA26    19             13.0000000000
     28453       919  ARHM      C2            -34.9582526142       13.9552911532       73.1100514097  LPSA26    19             13.0000000000
     28454       919  ARHM      H2            -35.5212168637       13.0734847543       72.9420985559  LPSA26    19             13.0000000000
     28455       919  ARHM      O2            -35.1912573420       14.3645132001       74.4131644751  LPSA26    19             13.0000000000
     28456       919  ARHM      C3            -33.4497429821       13.5769736197       72.9859276785  LPSA26    19             13.0000000000
     28457       919  ARHM      H3            -33.2749523982       13.3087792265       71.9471750908  LPSA26    19             13.0000000000
     28458       919  ARHM      O3            -33.1438524352       12.4770354617       73.7644258584  LPSA26    19             13.0000000000
     28459       919  ARHM      HO3           -33.4883367909       12.6563843984       74.6464134549  LPSA26    19             13.0000000000
     28460       919  ARHM      C4            -32.5482461734       14.7094344960       73.2443334127  LPSA26    19             13.0000000000
     28461       919  ARHM      H4            -32.7626582530       15.0343606030       74.2703943704  LPSA26    19             13.0000000000
     28462       919  ARHM      O4            -31.1879180354       14.4195291086       73.1708570575  LPSA26    19             13.0000000000
     28463       919  ARHM      HO4           -31.0152044818       14.1790025423       72.2126258713  LPSA26    19             13.0000000000
     28464       919  ARHM      C6            -32.0453392841       17.0471636865       72.3031700958  LPSA26    19             13.0000000000
     28465       919  ARHM      H61           -32.4722411942       17.6515403128       71.5186681997  LPSA26    19             13.0000000000
     28466       919  ARHM      H62           -32.0504365757       17.6234690913       73.2001761489  LPSA26    19             13.0000000000
     28467       919  ARHM      H63           -30.9984332084       16.8156860520       72.0875448643  LPSA26    19             13.0000000000
     28468       920  ARHM      C1            -36.5495113319       14.4341019609       74.6981797177  LPSA26    20             14.0000000000
     28469       920  ARHM      H1            -37.1935827700       13.9497419214       73.8936196974  LPSA26    20             14.0000000000
     28470       920  ARHM      C5            -36.5769264555       16.4486274822       75.9960310464  LPSA26    20             14.0000000000
     28471       920  ARHM      H5            -35.4729698168       16.4456878620       75.8071112250  LPSA26    20             14.0000000000
     28472       920  ARHM      O5            -37.1114886037       15.7353383358       74.8741575474  LPSA26    20             14.0000000000
     28473       920  ARHM      C2            -36.8534215910       13.6051126348       75.9438944127  LPSA26    20             14.0000000000
     28474       920  ARHM      H2            -36.3170234350       12.5782464379       75.7904987900  LPSA26    20             14.0000000000
     28475       920  ARHM      O2            -38.2644754290       13.4429070344       76.2145535291  LPSA26    20             14.0000000000
     28476       920  ARHM      C3            -36.2905221267       14.3529771620       77.0746584307  LPSA26    20             14.0000000000
     28477       920  ARHM      H3            -35.1485504148       14.4579785296       76.9570890266  LPSA26    20             14.0000000000
     28478       920  ARHM      O3            -36.4908240664       13.5188035333       78.2431898216  LPSA26    20             14.0000000000
     28479       920  ARHM      C4            -36.8762600526       15.7180408127       77.2147849866  LPSA26    20             14.0000000000
     28480       920  ARHM      H4            -37.9442896562       15.7102217366       77.2882629629  LPSA26    20             14.0000000000
     28481       920  ARHM      O4            -36.3728132522       16.3211585526       78.4294019453  LPSA26    20             14.0000000000
     28482       920  ARHM      HO4           -36.4096059358       17.1868879082       78.0714846557  LPSA26    20             14.0000000000
     28483       920  ARHM      C6            -37.0550051782       17.8403515856       75.9818768401  LPSA26    20             14.0000000000
     28484       920  ARHM      H61           -38.1649855425       18.0477872302       76.0487105533  LPSA26    20             14.0000000000
     28485       920  ARHM      H62           -36.5396449894       18.4207932681       76.7492574554  LPSA26    20             14.0000000000
     28486       920  ARHM      H63           -36.8290868108       18.4053876036       75.0059134709  LPSA26    20             14.0000000000
     28487       921  BMANNA    C1            -38.6791130169       12.3695267770       75.4501725836  LPSA26    21             15.0000000000
     28488       921  BMANNA    H1            -37.8860564935       12.0764150162       74.6495731600  LPSA26    21             15.0000000000
     28489       921  BMANNA    C5            -40.0626532923       11.6389495384       73.6578092950  LPSA26    21             15.0000000000
     28490       921  BMANNA    H5            -39.1591414890       11.2093838946       73.0422409194  LPSA26    21             15.0000000000
     28491       921  BMANNA    O5            -39.7649522565       12.7704448235       74.5460975074  LPSA26    21             15.0000000000
     28492       921  BMANNA    C2            -39.0980281617       11.2341234165       76.3268603500  LPSA26    21             15.0000000000
     28493       921  BMANNA    H2            -38.1710797027       11.0314094656       76.8663433126  LPSA26    21             15.0000000000
     28494       921  BMANNA    N             -40.1524444969       11.6214462626       77.2602735953  LPSA26    21             15.0000000000
     28495       921  BMANNA    HN            -40.9346049173       12.0386101254       76.8630196157  LPSA26    21             15.0000000000
     28496       921  BMANNA    C             -40.2502711098       11.1995742952       78.6142451918  LPSA26    21             15.0000000000
     28497       921  BMANNA    O             -39.5193421803       10.3020173410       79.0340579138  LPSA26    21             15.0000000000
     28498       921  BMANNA    CT            -41.3263069734       11.8492178447       79.5125915666  LPSA26    21             15.0000000000
     28499       921  BMANNA    HT1           -42.3018010549       11.3514242550       79.3040814335  LPSA26    21             15.0000000000
     28500       921  BMANNA    HT2           -41.2801219491       12.9344949349       79.3224353366  LPSA26    21             15.0000000000
     28501       921  BMANNA    HT3           -41.0821661230       11.6721846244       80.6000991146  LPSA26    21             15.0000000000
     28502       921  BMANNA    C3            -39.4296859956       10.0838500186       75.4428482744  LPSA26    21             15.0000000000
     28503       921  BMANNA    H3            -38.4600585913        9.8830899865       75.0091666053  LPSA26    21             15.0000000000
     28504       921  BMANNA    O3            -39.8155960652        8.9318628705       76.1769203835  LPSA26    21             15.0000000000
     28505       921  BMANNA    HO3           -40.5277560969        9.1807142795       76.7354970047  LPSA26    21             15.0000000000
     28506       921  BMANNA    C4            -40.5325732800       10.4589612256       74.4866217523  LPSA26    21             15.0000000000
     28507       921  BMANNA    H4            -41.5902690945       10.6821941378       75.0002820064  LPSA26    21             15.0000000000
     28508       921  BMANNA    O4            -40.8601277509        9.4148101497       73.6152290754  LPSA26    21             15.0000000000
     28509       921  BMANNA    HO4           -41.7779772948        9.0995927984       73.7703874424  LPSA26    21             15.0000000000
     28510       921  BMANNA    C6            -41.0110854138       11.9964286412       72.6348027846  LPSA26    21             15.0000000000
     28511       921  BMANNA    H61           -41.1284909466       11.2210704714       71.8494922130  LPSA26    21             15.0000000000
     28512       921  BMANNA    H62           -42.0519931791       11.9463571649       73.0558617198  LPSA26    21             15.0000000000
     28513       921  BMANNA    O6            -40.9008897890       13.2659234418       72.0654385618  LPSA26    21             15.0000000000
     28514       921  BMANNA    HO6           -40.8987453973       13.9035614488       72.7784055652  LPSA26    21             15.0000000000
     28515       922  BGLCNA    C1            -35.5178427192       13.4526606559       79.2248726046  LPSA26    22             15.0000000000
     28516       922  BGLCNA    H1            -34.8464138733       14.3593465668       79.2753119810  LPSA26    22             15.0000000000
     28517       922  BGLCNA    C5            -33.5866051806       12.3252792370       80.1145289529  LPSA26    22             15.0000000000
     28518       922  BGLCNA    H5            -33.0516441725       13.3659232123       80.0727605020  LPSA26    22             15.0000000000
     28519       922  BGLCNA    O5            -34.6295563669       12.3830868662       79.0803056561  LPSA26    22             15.0000000000
     28520       922  BGLCNA    C2            -36.2050799495       13.3299253214       80.5602818744  LPSA26    22             15.0000000000
     28521       922  BGLCNA    H2            -36.7563409255       12.3284830037       80.4633107900  LPSA26    22             15.0000000000
     28522       922  BGLCNA    N             -37.1302500722       14.4340209880       80.7025670875  LPSA26    22             15.0000000000
     28523       922  BGLCNA    HN            -36.7891594776       15.3139980550       80.4501896382  LPSA26    22             15.0000000000
     28524       922  BGLCNA    C             -38.2867123767       14.3682614922       81.3295640408  LPSA26    22             15.0000000000
     28525       922  BGLCNA    O             -38.6814392037       13.3062307444       81.8448112003  LPSA26    22             15.0000000000
     28526       922  BGLCNA    CT            -39.0855721863       15.6179771856       81.4359073222  LPSA26    22             15.0000000000
     28527       922  BGLCNA    HT1           -39.6871322497       15.5754702798       80.5353412834  LPSA26    22             15.0000000000
     28528       922  BGLCNA    HT2           -38.3880355571       16.4717119225       81.2752873926  LPSA26    22             15.0000000000
     28529       922  BGLCNA    HT3           -39.5841941341       15.7820326673       82.3679651303  LPSA26    22             15.0000000000
     28530       922  BGLCNA    C3            -35.1986983661       13.2530087025       81.6855161512  LPSA26    22             15.0000000000
     28531       922  BGLCNA    H3            -34.5627522109       14.1726608496       81.6419517197  LPSA26    22             15.0000000000
     28532       922  BGLCNA    O3            -35.9586052995       13.2737257124       82.8729300216  LPSA26    22             15.0000000000
     28533       922  BGLCNA    C4            -34.2408627633       12.0769628628       81.4704242134  LPSA26    22             15.0000000000
     28534       922  BGLCNA    H4            -34.8537142001       11.2161028950       81.4144045074  LPSA26    22             15.0000000000
     28535       922  BGLCNA    O4            -33.3030366463       11.9322878289       82.5140850489  LPSA26    22             15.0000000000
     28536       922  BGLCNA    HO4           -33.1978989833       10.9859200172       82.7130071916  LPSA26    22             15.0000000000
     28537       922  BGLCNA    C6            -32.6435029850       11.1945178530       79.7284495560  LPSA26    22             15.0000000000
     28538       922  BGLCNA    H61           -32.1005893166       10.9654617237       80.6924177192  LPSA26    22             15.0000000000
     28539       922  BGLCNA    H62           -33.2027772292       10.2718681690       79.4648784538  LPSA26    22             15.0000000000
     28540       922  BGLCNA    O6            -31.6637130240       11.5436081681       78.8100863794  LPSA26    22             15.0000000000
     28541       922  BGLCNA    HO6           -32.0877247489       11.8699002109       78.0328486455  LPSA26    22             15.0000000000
     28542       923  AGAL      C1            -35.3613511501       13.6418653521       84.0628261254  LPSA26    23             16.0000000000
     28543       923  AGAL      H1            -34.7298974028       12.8253280826       84.5106287163  LPSA26    23             16.0000000000
     28544       923  AGAL      C5            -35.3049639523       16.0029482801       83.7583018441  LPSA26    23             16.0000000000
     28545       923  AGAL      H5            -35.9762418335       15.8323011292       82.8366412438  LPSA26    23             16.0000000000
     28546       923  AGAL      O5            -34.5636815586       14.8284173556       83.9976212264  LPSA26    23             16.0000000000
     28547       923  AGAL      C2            -36.4070931363       13.8481307193       85.1427633740  LPSA26    23             16.0000000000
     28548       923  AGAL      H2            -35.8435452929       14.1141935626       86.0076373284  LPSA26    23             16.0000000000
     28549       923  AGAL      O2            -37.1027480221       12.6778798721       85.5000844886  LPSA26    23             16.0000000000
     28550       923  AGAL      C3            -37.2503964440       15.0556178450       84.9194901020  LPSA26    23             16.0000000000
     28551       923  AGAL      H3            -37.6493391143       14.9485958387       83.8641570193  LPSA26    23             16.0000000000
     28552       923  AGAL      O3            -38.3747649510       15.1730372822       85.7108298168  LPSA26    23             16.0000000000
     28553       923  AGAL      HO3           -38.0521170656       14.9825938288       86.6206525111  LPSA26    23             16.0000000000
     28554       923  AGAL      C4            -36.3382124476       16.2453292571       84.8901212015  LPSA26    23             16.0000000000
     28555       923  AGAL      H4            -36.8737592151       17.1919487061       84.6506069022  LPSA26    23             16.0000000000
     28556       923  AGAL      O4            -35.6988907565       16.5770418368       86.1132943683  LPSA26    23             16.0000000000
     28557       923  AGAL      HO4           -34.8988951239       16.8851188400       85.8278371007  LPSA26    23             16.0000000000
     28558       923  AGAL      C6            -34.4074961426       17.1322040181       83.3278962909  LPSA26    23             16.0000000000
     28559       923  AGAL      H61           -33.7151942552       16.7831775022       82.6074235255  LPSA26    23             16.0000000000
     28560       923  AGAL      H62           -34.9404476258       17.9018312030       82.7620574208  LPSA26    23             16.0000000000
     28561       923  AGAL      O6            -33.6628592314       17.6001653699       84.3845202183  LPSA26    23             16.0000000000
     28562       923  AGAL      HO6           -33.0450923237       18.2845890663       84.1740981585  LPSA26    23             16.0000000000
     28563       924  ARHM      C1            -36.5648846578       11.6271174748       86.2818185944  LPSA26    24             17.0000000000
     28564       924  ARHM      H1            -35.5091055765       11.7975762573       86.3680542693  LPSA26    24             17.0000000000
     28565       924  ARHM      C5            -38.0600000369        9.8696625797       85.6157638072  LPSA26    24             17.0000000000
     28566       924  ARHM      H5            -38.5724267972       10.5841649030       85.0070975499  LPSA26    24             17.0000000000
     28567       924  ARHM      O5            -36.7015009995       10.2178544302       85.8657410059  LPSA26    24             17.0000000000
     28568       924  ARHM      C2            -37.2540142924       11.8165024038       87.5921581840  LPSA26    24             17.0000000000
     28569       924  ARHM      H2            -37.2674615878       12.8459704254       87.8984046741  LPSA26    24             17.0000000000
     28570       924  ARHM      O2            -36.7532045473       10.9261245010       88.6075763533  LPSA26    24             17.0000000000
     28571       924  ARHM      C3            -38.7239754520       11.4074008313       87.4133527752  LPSA26    24             17.0000000000
     28572       924  ARHM      H3            -39.1227031205       12.0988280158       86.6640279609  LPSA26    24             17.0000000000
     28573       924  ARHM      O3            -39.5683288096       11.6839370023       88.5620392964  LPSA26    24             17.0000000000
     28574       924  ARHM      HO3           -39.4873800690       10.8995511733       89.1463757531  LPSA26    24             17.0000000000
     28575       924  ARHM      C4            -38.8525259008        9.9656155440       86.9402325015  LPSA26    24             17.0000000000
     28576       924  ARHM      H4            -38.2910670531        9.2965295620       87.7071552895  LPSA26    24             17.0000000000
     28577       924  ARHM      O4            -40.1784485445        9.4935000765       86.8379508285  LPSA26    24             17.0000000000
     28578       924  ARHM      HO4           -40.2820669351        8.5738997007       87.0219124236  LPSA26    24             17.0000000000
     28579       924  ARHM      C6            -38.2195750264        8.4565426396       84.9175891319  LPSA26    24             17.0000000000
     28580       924  ARHM      H61           -39.1693057077        8.4389126698       84.3853494017  LPSA26    24             17.0000000000
     28581       924  ARHM      H62           -37.4078868125        8.3794477828       84.2649634992  LPSA26    24             17.0000000000
     28582       924  ARHM      H63           -38.0763340403        7.6212982613       85.6811466487  LPSA26    24             17.0000000000
     28583       925  ARHM      C1            -35.5378168718       11.4207362904       89.1588742089  LPSA26    25             18.0000000000
     28584       925  ARHM      H1            -35.0803263532       12.0892504336       88.4722246341  LPSA26    25             18.0000000000
     28585       925  ARHM      C5            -34.8873351940        9.3509261453       90.1670531641  LPSA26    25             18.0000000000
     28586       925  ARHM      H5            -35.7692982235        8.8394806890       89.8870230824  LPSA26    25             18.0000000000
     28587       925  ARHM      O5            -34.5308792848       10.3920863802       89.2315309535  LPSA26    25             18.0000000000
     28588       925  ARHM      C2            -35.8203838200       12.0450550572       90.4685713243  LPSA26    25             18.0000000000
     28589       925  ARHM      H2            -36.7070136609       12.7533489124       90.3413143991  LPSA26    25             18.0000000000
     28590       925  ARHM      O2            -34.6418731286       12.7734670449       90.9328696740  LPSA26    25             18.0000000000
     28591       925  ARHM      C3            -36.1536526257       10.8801238406       91.4562257518  LPSA26    25             18.0000000000
     28592       925  ARHM      H3            -37.0799952708       10.3868013877       91.0689171631  LPSA26    25             18.0000000000
     28593       925  ARHM      O3            -36.4510315915       11.4959210125       92.6920647463  LPSA26    25             18.0000000000
     28594       925  ARHM      C4            -35.1182019193        9.9013688734       91.5960769721  LPSA26    25             18.0000000000
     28595       925  ARHM      H4            -34.0955290534       10.3844997207       91.8876801091  LPSA26    25             18.0000000000
     28596       925  ARHM      O4            -35.5564821680        8.9708759919       92.5862492282  LPSA26    25             18.0000000000
     28597       925  ARHM      HO4           -34.7565584767        8.7255131546       93.0149361445  LPSA26    25             18.0000000000
     28598       925  ARHM      C6            -33.8418798273        8.2374288461       90.2083352735  LPSA26    25             18.0000000000
     28599       925  ARHM      H61           -33.5728075502        7.8788430904       89.1912344565  LPSA26    25             18.0000000000
     28600       925  ARHM      H62           -32.8676595683        8.5558255338       90.6686969550  LPSA26    25             18.0000000000
     28601       925  ARHM      H63           -34.1758699100        7.3178154911       90.8233913566  LPSA26    25             18.0000000000
     28602       926  BMANNA    C1            -34.4613266177       14.0249594046       90.3138108879  LPSA26    26             19.0000000000
     28603       926  BMANNA    H1            -35.4142527179       14.4025255529       89.8388342826  LPSA26    26             19.0000000000
     28604       926  BMANNA    C5            -33.4181744608       15.3580607742       88.6312665858  LPSA26    26             19.0000000000
     28605       926  BMANNA    H5            -34.3905563646       15.5505133130       88.1771240033  LPSA26    26             19.0000000000
     28606       926  BMANNA    O5            -33.4880376144       14.0597651987       89.2346891933  LPSA26    26             19.0000000000
     28607       926  BMANNA    C2            -34.0669957716       14.9613197747       91.3475147821  LPSA26    26             19.0000000000
     28608       926  BMANNA    H2            -34.9141796966       14.9196166443       92.1081287357  LPSA26    26             19.0000000000
     28609       926  BMANNA    N             -32.7819708141       14.5067273799       91.9238920796  LPSA26    26             19.0000000000
     28610       926  BMANNA    HN            -32.0588546930       14.3879747319       91.3050515894  LPSA26    26             19.0000000000
     28611       926  BMANNA    C             -32.5417533481       14.3543695557       93.1798471680  LPSA26    26             19.0000000000
     28612       926  BMANNA    O             -33.4750369558       14.4049909530       94.0003587425  LPSA26    26             19.0000000000
     28613       926  BMANNA    CT            -31.1131741090       14.1345971573       93.6758917343  LPSA26    26             19.0000000000
     28614       926  BMANNA    HT1           -30.5610871850       13.7639907393       92.8666282051  LPSA26    26             19.0000000000
     28615       926  BMANNA    HT2           -30.8778370970       13.6190942019       94.6620984389  LPSA26    26             19.0000000000
     28616       926  BMANNA    HT3           -30.7196128497       15.1435975544       93.8484898219  LPSA26    26             19.0000000000
     28617       926  BMANNA    C3            -34.0306085147       16.3531794964       90.7100883268  LPSA26    26             19.0000000000
     28618       926  BMANNA    H3            -35.0599370030       16.5847096405       90.3384445889  LPSA26    26             19.0000000000
     28619       926  BMANNA    O3            -33.7556289665       17.3157157153       91.7636866611  LPSA26    26             19.0000000000
     28620       926  BMANNA    HO3           -34.5842289708       17.3515451732       92.2265744207  LPSA26    26             19.0000000000
     28621       926  BMANNA    C4            -33.0765889891       16.3498886582       89.6481622736  LPSA26    26             19.0000000000
     28622       926  BMANNA    H4            -32.0032704080       16.1110095565       89.9013799111  LPSA26    26             19.0000000000
     28623       926  BMANNA    O4            -32.9769603458       17.6306424965       89.0416847738  LPSA26    26             19.0000000000
     28624       926  BMANNA    HO4           -32.3734299484       18.1620061769       89.5591157304  LPSA26    26             19.0000000000
     28625       926  BMANNA    C6            -32.4961318017       15.1621360930       87.3900617492  LPSA26    26             19.0000000000
     28626       926  BMANNA    H61           -32.6443614693       14.1742274423       86.9191763972  LPSA26    26             19.0000000000
     28627       926  BMANNA    H62           -32.6644485444       15.9008674169       86.6504270337  LPSA26    26             19.0000000000
     28628       926  BMANNA    O6            -31.1182369870       15.2609871192       87.7329108337  LPSA26    26             19.0000000000
     28629       926  BMANNA    HO6           -30.9588147664       16.0723137945       88.1688153196  LPSA26    26             19.0000000000
     28630       927  BGLCNA    C1            -37.5155356068       11.1800736619       93.4616184899  LPSA26    27             19.0000000000
     28631       927  BGLCNA    H1            -37.7012713625       10.1107820955       93.4392217979  LPSA26    27             19.0000000000
     28632       927  BGLCNA    C5            -39.8283761477       11.3765412964       93.9656603721  LPSA26    27             19.0000000000
     28633       927  BGLCNA    H5            -39.8582902128       10.2568070284       93.9564344452  LPSA26    27             19.0000000000
     28634       927  BGLCNA    O5            -38.7791592230       11.7468385532       93.0607755266  LPSA26    27             19.0000000000
     28635       927  BGLCNA    C2            -37.1439356662       11.6165189943       94.8806799918  LPSA26    27             19.0000000000
     28636       927  BGLCNA    H2            -37.0879351202       12.7188729325       94.8757458582  LPSA26    27             19.0000000000
     28637       927  BGLCNA    N             -35.8489140187       11.0764966877       95.2501113516  LPSA26    27             19.0000000000
     28638       927  BGLCNA    HN            -35.7174383596       10.0440929671       95.0827132934  LPSA26    27             19.0000000000
     28639       927  BGLCNA    C             -35.0110493911       11.9369621960       95.9523160909  LPSA26    27             19.0000000000
     28640       927  BGLCNA    O             -35.3606908718       13.0139772706       96.5238801166  LPSA26    27             19.0000000000
     28641       927  BGLCNA    CT            -33.5308440257       11.4499214574       96.0293745529  LPSA26    27             19.0000000000
     28642       927  BGLCNA    HT1           -33.3729678613       10.5582913238       95.3635606282  LPSA26    27             19.0000000000
     28643       927  BGLCNA    HT2           -33.1691304628       11.2673853047       97.0167906789  LPSA26    27             19.0000000000
     28644       927  BGLCNA    HT3           -32.8750214518       12.3493580963       95.7039804309  LPSA26    27             19.0000000000
     28645       927  BGLCNA    C3            -38.2343201061       11.2270628910       95.7540348103  LPSA26    27             19.0000000000
     28646       927  BGLCNA    H3            -38.4129712832       10.1230869639       95.7401190096  LPSA26    27             19.0000000000
     28647       927  BGLCNA    O3            -37.7613833910       11.6517702520       97.0775356047  LPSA26    27             19.0000000000
     28648       927  BGLCNA    C4            -39.5807746692       11.8579603938       95.3486864533  LPSA26    27             19.0000000000
     28649       927  BGLCNA    H4            -39.4721995681       12.9662897963       95.3090014479  LPSA26    27             19.0000000000
     28650       927  BGLCNA    O4            -40.5938309745       11.5012428788       96.2156872787  LPSA26    27             19.0000000000
     28651       927  BGLCNA    HO4           -40.7372344871       10.5978146424       96.0162444362  LPSA26    27             19.0000000000
     28652       927  BGLCNA    C6            -41.1561696080       11.8547825357       93.2852949846  LPSA26    27             19.0000000000
     28653       927  BGLCNA    H61           -41.9559377824       11.3733982441       93.8557506920  LPSA26    27             19.0000000000
     28654       927  BGLCNA    H62           -41.3020054489       12.9447357203       93.4725180191  LPSA26    27             19.0000000000
     28655       927  BGLCNA    O6            -41.1846549681       11.5207505067       91.9076175409  LPSA26    27             19.0000000000
     28656       927  BGLCNA    HO6           -42.0223771444       11.8651156694       91.5273290588  LPSA26    27             19.0000000000
     28657       928  AGAL      C1            -38.3995857596       11.1179518796       98.2622020222  LPSA26    28             20.0000000000
     28658       928  AGAL      H1            -39.3792307266       11.5119239230       98.3007149491  LPSA26    28             20.0000000000
     28659       928  AGAL      C5            -37.2858486288        8.9663104370       98.1710438288  LPSA26    28             20.0000000000
     28660       928  AGAL      H5            -36.4682742612        9.4720482630       97.4646141937  LPSA26    28             20.0000000000
     28661       928  AGAL      O5            -38.5712043963        9.7100847004       98.1147365872  LPSA26    28             20.0000000000
     28662       928  AGAL      C2            -37.7098945300       11.3389426854       99.6197190629  LPSA26    28             20.0000000000
     28663       928  AGAL      H2            -38.3996329759       10.8390625993      100.2965066153  LPSA26    28             20.0000000000
     28664       928  AGAL      O2            -37.6108631737       12.6784657583      100.0788731798  LPSA26    28             20.0000000000
     28665       928  AGAL      C3            -36.4100413164       10.6073216865       99.7396972452  LPSA26    28             20.0000000000
     28666       928  AGAL      H3            -35.7626351401       10.9191153046       98.8607737785  LPSA26    28             20.0000000000
     28667       928  AGAL      O3            -35.5890809824       10.8217821389      100.9043404272  LPSA26    28             20.0000000000
     28668       928  AGAL      HO3           -34.7674401429       11.2233517411      100.5606486229  LPSA26    28             20.0000000000
     28669       928  AGAL      C4            -36.6468046891        9.1683590767       99.5102226768  LPSA26    28             20.0000000000
     28670       928  AGAL      H4            -35.7007306750        8.6826438217       99.4798298294  LPSA26    28             20.0000000000
     28671       928  AGAL      O4            -37.4500296327        8.5684154713      100.4757933835  LPSA26    28             20.0000000000
     28672       928  AGAL      HO4           -36.8703530899        8.1067183716      101.0376442747  LPSA26    28             20.0000000000
     28673       928  AGAL      C6            -37.3525562606        7.5330616972       97.6362902244  LPSA26    28             20.0000000000
     28674       928  AGAL      H61           -37.6161398621        7.5592401593       96.5809275898  LPSA26    28             20.0000000000
     28675       928  AGAL      H62           -36.4094663307        6.8856245815       97.7651048223  LPSA26    28             20.0000000000
     28676       928  AGAL      O6            -38.3361617593        6.8086813837       98.3456070822  LPSA26    28             20.0000000000
     28677       928  AGAL      HO6           -39.1957483798        6.9345410261       97.9416813930  LPSA26    28             20.0000000000
     28678       929  ARHM      C1            -37.9666953787       12.7213636853      101.4808913342  LPSA26    29             21.0000000000
     28679       929  ARHM      H1            -37.7364329100       11.7334027282      101.9964955809  LPSA26    29             21.0000000000
     28680       929  ARHM      C5            -39.7075868844       14.2615926143      101.1486206043  LPSA26    29             21.0000000000
     28681       929  ARHM      H5            -39.3686261884       14.2492374116      100.0935446791  LPSA26    29             21.0000000000
     28682       929  ARHM      O5            -39.3170304311       13.0287743265      101.6833506475  LPSA26    29             21.0000000000
     28683       929  ARHM      C2            -37.0969800128       13.6947716029      102.1437305515  LPSA26    29             21.0000000000
     28684       929  ARHM      H2            -36.0656213381       13.5316616591      101.9067628034  LPSA26    29             21.0000000000
     28685       929  ARHM      O2            -37.2365357099       13.6618140570      103.5748524404  LPSA26    29             21.0000000000
     28686       929  ARHM      C3            -37.4677203955       15.0566299151      101.6289418068  LPSA26    29             21.0000000000
     28687       929  ARHM      H3            -37.2089925250       15.1135177519      100.4952263366  LPSA26    29             21.0000000000
     28688       929  ARHM      O3            -36.5954821389       15.9940147410      102.1995749427  LPSA26    29             21.0000000000
     28689       929  ARHM      HO3           -37.0480708462       16.7678374396      102.2092645043  LPSA26    29             21.0000000000
     28690       929  ARHM      C4            -38.8786957377       15.4006590023      101.8247918557  LPSA26    29             21.0000000000
     28691       929  ARHM      H4            -39.1485557753       15.4642754081      102.9338171738  LPSA26    29             21.0000000000
     28692       929  ARHM      O4            -39.3243944494       16.6895437069      101.3452167393  LPSA26    29             21.0000000000
     28693       929  ARHM      HO4           -38.9728559437       16.9325116411      100.4362974805  LPSA26    29             21.0000000000
     28694       929  ARHM      C6            -41.2443086267       14.3097976611      101.2162231226  LPSA26    29             21.0000000000
     28695       929  ARHM      H61           -41.5475879530       13.2949895572      100.7685423143  LPSA26    29             21.0000000000
     28696       929  ARHM      H62           -41.5568538641       14.3315788481      102.3013153741  LPSA26    29             21.0000000000
     28697       929  ARHM      H63           -41.5974123003       15.1490246013      100.6072571094  LPSA26    29             21.0000000000
     28698       930  ARHM      C1            -36.3579580682       12.9585832398      104.3945976075  LPSA26    30             22.0000000000
     28699       930  ARHM      H1            -35.3267286548       13.3316976326      104.2094096401  LPSA26    30             22.0000000000
     28700       930  ARHM      C5            -37.7284768544       10.9508092630      104.5143062533  LPSA26    30             22.0000000000
     28701       930  ARHM      H5            -38.4213278532       11.6143626612      103.8668162917  LPSA26    30             22.0000000000
     28702       930  ARHM      O5            -36.4294138695       11.5295378666      104.2052433351  LPSA26    30             22.0000000000
     28703       930  ARHM      C2            -36.6914218867       13.2471531897      105.8471183130  LPSA26    30             22.0000000000
     28704       930  ARHM      H2            -36.6696070293       14.2721308948      106.0289718167  LPSA26    30             22.0000000000
     28705       930  ARHM      O2            -35.7673167517       12.5183318793      106.5813641610  LPSA26    30             22.0000000000
     28706       930  ARHM      C3            -37.9817599926       12.6772955569      106.2079894766  LPSA26    30             22.0000000000
     28707       930  ARHM      H3            -38.7087179228       13.0287185746      105.5270001340  LPSA26    30             22.0000000000
     28708       930  ARHM      O3            -38.4383538782       13.0546608456      107.5373891676  LPSA26    30             22.0000000000
     28709       930  ARHM      C4            -38.0396969073       11.1645832330      105.9708288384  LPSA26    30             22.0000000000
     28710       930  ARHM      H4            -37.2884543933       10.6132549239      106.5400372406  LPSA26    30             22.0000000000
     28711       930  ARHM      O4            -39.2085180222       10.5555929505      106.2997755749  LPSA26    30             22.0000000000
     28712       930  ARHM      HO4           -39.9613766762       10.6027103016      105.6964454668  LPSA26    30             22.0000000000
     28713       930  ARHM      C6            -37.7667616096        9.5064165451      104.0930490251  LPSA26    30             22.0000000000
     28714       930  ARHM      H61           -38.8302629239        9.1585789162      104.2143179997  LPSA26    30             22.0000000000
     28715       930  ARHM      H62           -37.6222990999        9.4517466066      103.0019050467  LPSA26    30             22.0000000000
     28716       930  ARHM      H63           -37.0296614472        8.8448276534      104.6493652223  LPSA26    30             22.0000000000
     28717       931  BMANNA    C1            -34.5909723301       13.2032954620      106.9502319096  LPSA26    31             23.0000000000
     28718       931  BMANNA    H1            -34.8666197135       14.2620786347      107.1550799008  LPSA26    31             23.0000000000
     28719       931  BMANNA    C5            -32.4002481426       13.9577134025      106.2136717625  LPSA26    31             23.0000000000
     28720       931  BMANNA    H5            -32.7691175423       14.9381648301      106.5467054000  LPSA26    31             23.0000000000
     28721       931  BMANNA    O5            -33.5931573678       13.1920268265      105.8742289322  LPSA26    31             23.0000000000
     28722       931  BMANNA    C2            -33.9928985450       12.5675486107      108.0830629221  LPSA26    31             23.0000000000
     28723       931  BMANNA    H2            -34.7252152013       12.6945680426      108.9031915743  LPSA26    31             23.0000000000
     28724       931  BMANNA    N             -33.8584701464       11.1754875032      107.8252935315  LPSA26    31             23.0000000000
     28725       931  BMANNA    HN            -33.7866823412       10.8847625500      106.8111160773  LPSA26    31             23.0000000000
     28726       931  BMANNA    C             -33.8715875119       10.2487540189      108.7868858964  LPSA26    31             23.0000000000
     28727       931  BMANNA    O             -34.0773463051       10.5311445417      109.9536662434  LPSA26    31             23.0000000000
     28728       931  BMANNA    CT            -33.6292321497        8.8040116480      108.3237946568  LPSA26    31             23.0000000000
     28729       931  BMANNA    HT1           -32.8799022123        8.8216346193      107.5739831696  LPSA26    31             23.0000000000
     28730       931  BMANNA    HT2           -34.5773687209        8.4173001144      107.9347099034  LPSA26    31             23.0000000000
     28731       931  BMANNA    HT3           -33.4042971029        8.1446595533      109.1768357935  LPSA26    31             23.0000000000
     28732       931  BMANNA    C3            -32.7691260818       13.3219532985      108.4884560283  LPSA26    31             23.0000000000
     28733       931  BMANNA    H3            -32.9980439651       14.4329753769      108.6988550870  LPSA26    31             23.0000000000
     28734       931  BMANNA    O3            -32.2549137738       12.8669351397      109.7404994872  LPSA26    31             23.0000000000
     28735       931  BMANNA    HO3           -33.0418969089       12.4312836287      110.0111610137  LPSA26    31             23.0000000000
     28736       931  BMANNA    C4            -31.7524028766       13.2735066346      107.4199857710  LPSA26    31             23.0000000000
     28737       931  BMANNA    H4            -31.4074183191       12.1936881901      107.0572414185  LPSA26    31             23.0000000000
     28738       931  BMANNA    O4            -30.5681484012       13.9269459506      107.8525671122  LPSA26    31             23.0000000000
     28739       931  BMANNA    HO4           -30.7452058486       14.8319233002      108.1943429300  LPSA26    31             23.0000000000
     28740       931  BMANNA    C6            -31.4003351468       14.0712108108      105.0512686782  LPSA26    31             23.0000000000
     28741       931  BMANNA    H61           -30.6043328347       14.8684074026      105.3397811046  LPSA26    31             23.0000000000
     28742       931  BMANNA    H62           -30.8600749618       13.1465196931      104.8698551944  LPSA26    31             23.0000000000
     28743       931  BMANNA    O6            -32.0457741807       14.4640636384      103.8241467834  LPSA26    31             23.0000000000
     28744       931  BMANNA    HO6           -32.3594590142       15.4126635408      103.8134147631  LPSA26    31             23.0000000000
     28745       932  BGLCNA    C1            -37.9217685673       12.3399942788      108.6103969990  LPSA26    32             23.0000000000
     28746       932  BGLCNA    H1            -36.8396840803       12.0416447359      108.4325564695  LPSA26    32             23.0000000000
     28747       932  BGLCNA    C5            -38.0182357357       10.3154463589      109.9277617404  LPSA26    32             23.0000000000
     28748       932  BGLCNA    H5            -36.9556868652       10.1132118622      109.5374749077  LPSA26    32             23.0000000000
     28749       932  BGLCNA    O5            -38.6351524874       11.1480441447      108.9423333575  LPSA26    32             23.0000000000
     28750       932  BGLCNA    C2            -37.8798452826       13.1681099023      109.8194522937  LPSA26    32             23.0000000000
     28751       932  BGLCNA    H2            -38.9000908968       13.2703785130      110.1044894257  LPSA26    32             23.0000000000
     28752       932  BGLCNA    N             -37.2934428436       14.4457781548      109.5956973249  LPSA26    32             23.0000000000
     28753       932  BGLCNA    HN            -36.5705073438       14.3571609663      108.8809076996  LPSA26    32             23.0000000000
     28754       932  BGLCNA    C             -37.6451332437       15.6557607214      110.0864625708  LPSA26    32             23.0000000000
     28755       932  BGLCNA    O             -38.5311023335       15.7915353394      110.9304085025  LPSA26    32             23.0000000000
     28756       932  BGLCNA    CT            -36.8489250908       16.8805064176      109.5841031968  LPSA26    32             23.0000000000
     28757       932  BGLCNA    HT1           -36.3551513368       16.4164535437      108.6281101354  LPSA26    32             23.0000000000
     28758       932  BGLCNA    HT2           -36.0412289140       17.2065465670      110.1898124037  LPSA26    32             23.0000000000
     28759       932  BGLCNA    HT3           -37.5067419549       17.7417440820      109.3122359934  LPSA26    32             23.0000000000
     28760       932  BGLCNA    C3            -37.1624506480       12.4048916194      110.8930231790  LPSA26    32             23.0000000000
     28761       932  BGLCNA    H3            -36.2510455665       12.1053486055      110.4606187373  LPSA26    32             23.0000000000
     28762       932  BGLCNA    O3            -36.8553430048       13.1764507525      112.0657798240  LPSA26    32             23.0000000000
     28763       932  BGLCNA    C4            -37.9673256665       11.1647580497      111.1707572500  LPSA26    32             23.0000000000
     28764       932  BGLCNA    H4            -38.9774824345       11.5002335922      111.5318289610  LPSA26    32             23.0000000000
     28765       932  BGLCNA    O4            -37.4049011765       10.4037200234      112.2070236435  LPSA26    32             23.0000000000
     28766       932  BGLCNA    HO4           -37.7573686507       10.6491256729      113.0745323218  LPSA26    32             23.0000000000
     28767       932  BGLCNA    C6            -38.7547682028        8.9956072200      110.0229508171  LPSA26    32             23.0000000000
     28768       932  BGLCNA    H61           -38.2087487747        8.2579536848      110.7194343748  LPSA26    32             23.0000000000
     28769       932  BGLCNA    H62           -39.7648041853        9.1647511179      110.5717638480  LPSA26    32             23.0000000000
     28770       932  BGLCNA    O6            -38.8701683686        8.3510734320      108.7709294272  LPSA26    32             23.0000000000
     28771       932  BGLCNA    HO6           -38.0502933477        8.5061348011      108.2360311317  LPSA26    32             23.0000000000
     28772       933  AGAL      C1            -35.5781669950       12.8654121250      112.6842874521  LPSA26    33             24.0000000000
     28773       933  AGAL      H1            -35.4500762483       11.7836182080      112.5979959475  LPSA26    33             24.0000000000
     28774       933  AGAL      C5            -34.6024482643       14.9773891194      112.2149219831  LPSA26    33             24.0000000000
     28775       933  AGAL      H5            -35.6313396598       15.1983735074      111.8792915250  LPSA26    33             24.0000000000
     28776       933  AGAL      O5            -34.4579322775       13.5794368583      112.0726784748  LPSA26    33             24.0000000000
     28777       933  AGAL      C2            -35.6734403675       13.2893454193      114.1482787662  LPSA26    33             24.0000000000
     28778       933  AGAL      H2            -34.6098964445       13.1225399387      114.5751854976  LPSA26    33             24.0000000000
     28779       933  AGAL      O2            -36.4773419823       12.3586694318      114.8486222260  LPSA26    33             24.0000000000
     28780       933  AGAL      C3            -35.7978605968       14.7856016295      114.2945545625  LPSA26    33             24.0000000000
     28781       933  AGAL      H3            -36.7244504103       15.1624661190      113.7405815065  LPSA26    33             24.0000000000
     28782       933  AGAL      O3            -36.0686255778       15.2067635589      115.5672660328  LPSA26    33             24.0000000000
     28783       933  AGAL      HO3           -35.4962527256       14.9035236146      116.2400186851  LPSA26    33             24.0000000000
     28784       933  AGAL      C4            -34.6124630734       15.4854492910      113.6708488317  LPSA26    33             24.0000000000
     28785       933  AGAL      H4            -34.7458785523       16.5740489214      113.6729875792  LPSA26    33             24.0000000000
     28786       933  AGAL      O4            -33.3038307112       15.2595265547      114.2435538900  LPSA26    33             24.0000000000
     28787       933  AGAL      HO4           -33.3001780587       14.5811756334      114.9085525172  LPSA26    33             24.0000000000
     28788       933  AGAL      C6            -33.6741894801       15.7396058646      111.2992528405  LPSA26    33             24.0000000000
     28789       933  AGAL      H61           -33.9858320831       15.4392111799      110.2783408757  LPSA26    33             24.0000000000
     28790       933  AGAL      H62           -33.7234360441       16.8439374475      111.3458027743  LPSA26    33             24.0000000000
     28791       933  AGAL      O6            -32.3055037898       15.5060155716      111.4129476537  LPSA26    33             24.0000000000
     28792       933  AGAL      HO6           -31.9843490003       14.7607801775      110.8444757795  LPSA26    33             24.0000000000
     28793       934  ARHM      C1            -35.9065358514       11.8506552492      116.0109133884  LPSA26    34             25.0000000000
     28794       934  ARHM      H1            -35.4555888226       12.6379169722      116.6389743656  LPSA26    34             25.0000000000
     28795       934  ARHM      C5            -35.2044800380        9.7351331262      115.0727799907  LPSA26    34             25.0000000000
     28796       934  ARHM      H5            -35.5142888906       10.1030362285      114.0209633333  LPSA26    34             25.0000000000
     28797       934  ARHM      O5            -34.8294197733       10.8988116928      115.8926868953  LPSA26    34             25.0000000000
     28798       934  ARHM      C2            -37.0592843253       11.2431063147      116.7601555753  LPSA26    34             25.0000000000
     28799       934  ARHM      H2            -37.9696946273       11.8926339040      116.8710959342  LPSA26    34             25.0000000000
     28800       934  ARHM      O2            -36.7385177387       10.8041780159      118.1592972339  LPSA26    34             25.0000000000
     28801       934  ARHM      C3            -37.5222590318       10.0094440358      115.9988665506  LPSA26    34             25.0000000000
     28802       934  ARHM      H3            -37.8260443438       10.2649141084      114.9724172480  LPSA26    34             25.0000000000
     28803       934  ARHM      O3            -38.6288394017        9.2839454769      116.5878695042  LPSA26    34             25.0000000000
     28804       934  ARHM      HO3           -39.2539943190        8.9431523498      115.9559434517  LPSA26    34             25.0000000000
     28805       934  ARHM      C4            -36.3760054643        8.9808085351      115.7987835878  LPSA26    34             25.0000000000
     28806       934  ARHM      H4            -35.8937036692        8.6997958119      116.7495315617  LPSA26    34             25.0000000000
     28807       934  ARHM      O4            -36.7791711430        7.8392223410      115.1362621200  LPSA26    34             25.0000000000
     28808       934  ARHM      HO4           -37.2752594885        7.2456306723      115.6953140327  LPSA26    34             25.0000000000
     28809       934  ARHM      C6            -33.9859619383        8.7712637936      114.8413279703  LPSA26    34             25.0000000000
     28810       934  ARHM      H61           -33.5894426313        8.3013045303      115.7172490283  LPSA26    34             25.0000000000
     28811       934  ARHM      H62           -34.3896139021        7.8432013593      114.3996926230  LPSA26    34             25.0000000000
     28812       934  ARHM      H63           -33.1929306515        9.1293721832      114.1590834060  LPSA26    34             25.0000000000
     28813       935  ARHM      C1            -36.2538056721       11.8035573357      119.0795908573  LPSA26    35             26.0000000000
     28814       935  ARHM      H1            -36.8371283888       12.7959842008      118.8787348947  LPSA26    35             26.0000000000
     28815       935  ARHM      C5            -34.0176915177       10.8679756943      119.2408916176  LPSA26    35             26.0000000000
     28816       935  ARHM      H5            -34.3025691231        9.9947595629      118.5254732223  LPSA26    35             26.0000000000
     28817       935  ARHM      O5            -34.7984159805       12.0846200963      118.9290334222  LPSA26    35             26.0000000000
     28818       935  ARHM      C2            -36.5405103591       11.3706051743      120.5365485050  LPSA26    35             26.0000000000
     28819       935  ARHM      H2            -37.6488982220       11.2682099125      120.7134209997  LPSA26    35             26.0000000000
     28820       935  ARHM      O2            -36.1012592863       12.3412585432      121.4126203716  LPSA26    35             26.0000000000
     28821       935  ARHM      C3            -35.7834242633       10.0660211947      120.8720061906  LPSA26    35             26.0000000000
     28822       935  ARHM      H3            -36.1696348001        9.2886319606      120.1344793452  LPSA26    35             26.0000000000
     28823       935  ARHM      O3            -36.1267287418        9.5827022064      122.1540075829  LPSA26    35             26.0000000000
     28824       935  ARHM      HO3           -36.2922805654       10.3331359670      122.7288731339  LPSA26    35             26.0000000000
     28825       935  ARHM      C4            -34.3170871337       10.3393456462      120.6788917534  LPSA26    35             26.0000000000
     28826       935  ARHM      H4            -33.9154219619       11.1634715478      121.3307119103  LPSA26    35             26.0000000000
     28827       935  ARHM      O4            -33.6308574897        9.1020338833      120.9693790153  LPSA26    35             26.0000000000
     28828       935  ARHM      HO4           -34.0477812115        8.3092344346      120.5581709812  LPSA26    35             26.0000000000
     28829       935  ARHM      C6            -32.5145412191       11.1040880165      118.8642347863  LPSA26    35             26.0000000000
     28830       935  ARHM      H61           -32.3912748693       11.2387661065      117.7433556958  LPSA26    35             26.0000000000
     28831       935  ARHM      H62           -32.2827789776       12.0009048424      119.4176110492  LPSA26    35             26.0000000000
     28832       935  ARHM      H63           -31.9729425554       10.1349294003      119.0633705917  LPSA26    35             26.0000000000
     28833       936  BMANNA    C1            -36.8346644809       13.5283805849      121.4471464502  LPSA26    36             27.0000000000
     28834       936  BMANNA    H1            -37.8824502534       13.3698667032      121.0972061898  LPSA26    36             27.0000000000
     28835       936  BMANNA    C5            -37.3142000629       15.7889484423      120.7299884793  LPSA26    36             27.0000000000
     28836       936  BMANNA    H5            -38.3049520785       15.4266618065      120.4610684421  LPSA26    36             27.0000000000
     28837       936  BMANNA    O5            -36.3777716154       14.6664445193      120.6641532654  LPSA26    36             27.0000000000
     28838       936  BMANNA    C2            -36.9242409642       13.9946623562      122.8920138725  LPSA26    36             27.0000000000
     28839       936  BMANNA    H2            -37.3589190317       13.1591005535      123.4719477421  LPSA26    36             27.0000000000
     28840       936  BMANNA    N             -35.5946768891       14.2623341546      123.4395449790  LPSA26    36             27.0000000000
     28841       936  BMANNA    HN            -34.9180053542       14.7443500916      122.8746519580  LPSA26    36             27.0000000000
     28842       936  BMANNA    C             -35.3541973682       14.1491906531      124.7737151700  LPSA26    36             27.0000000000
     28843       936  BMANNA    O             -36.1218266647       13.6781265646      125.6190347561  LPSA26    36             27.0000000000
     28844       936  BMANNA    CT            -34.0711332612       14.6723326885      125.3570716528  LPSA26    36             27.0000000000
     28845       936  BMANNA    HT1           -33.7928654994       15.6172642491      124.8802869227  LPSA26    36             27.0000000000
     28846       936  BMANNA    HT2           -33.1859229924       14.0003921773      125.1731404614  LPSA26    36             27.0000000000
     28847       936  BMANNA    HT3           -34.0482418769       14.7875544449      126.4547536948  LPSA26    36             27.0000000000
     28848       936  BMANNA    C3            -37.8453615469       15.1845979200      122.9763638711  LPSA26    36             27.0000000000
     28849       936  BMANNA    H3            -38.8544923037       14.9140835284      122.6403873786  LPSA26    36             27.0000000000
     28850       936  BMANNA    O3            -38.0195934100       15.6458611713      124.3414054450  LPSA26    36             27.0000000000
     28851       936  BMANNA    HO3           -38.8912360112       15.5807145568      124.7171830083  LPSA26    36             27.0000000000
     28852       936  BMANNA    C4            -37.3825454082       16.2992243366      122.1146940524  LPSA26    36             27.0000000000
     28853       936  BMANNA    H4            -36.4378315643       16.6855058379      122.4263894750  LPSA26    36             27.0000000000
     28854       936  BMANNA    O4            -38.2456022656       17.4299591204      122.2172873890  LPSA26    36             27.0000000000
     28855       936  BMANNA    HO4           -38.1816285456       17.5449159992      123.1985163392  LPSA26    36             27.0000000000
     28856       936  BMANNA    C6            -36.9095992887       16.8075116016      119.7412642597  LPSA26    36             27.0000000000
     28857       936  BMANNA    H61           -36.9486262637       16.4108596891      118.6946701192  LPSA26    36             27.0000000000
     28858       936  BMANNA    H62           -37.7384681004       17.5212178815      119.7045442506  LPSA26    36             27.0000000000
     28859       936  BMANNA    O6            -35.6337805011       17.4551714812      120.0914698020  LPSA26    36             27.0000000000
     28860       936  BMANNA    HO6           -35.8683141044       18.2070201490      120.6476247167  LPSA26    36             27.0000000000
     28861       937  ECLIPA    HB6S          -13.9809946793      -36.1433638755       20.4612168218  LPSA27    1               0.0000000000
     28862       937  ECLIPA    OB6           -12.6086135641      -35.3629566534       21.7140249152  LPSA27    1               0.0000000000
     28863       937  ECLIPA    CB6           -13.6633134634      -35.1653565365       20.7042159014  LPSA27    1               0.0000000000
     28864       937  ECLIPA    HB6R          -14.4076480677      -34.4736545645       21.0541931349  LPSA27    1               0.0000000000
     28865       937  ECLIPA    CB5           -13.1203331534      -34.4456514986       19.3988764877  LPSA27    1               0.0000000000
     28866       937  ECLIPA    OB5           -11.9717628367      -35.2829354377       18.9716901872  LPSA27    1               0.0000000000
     28867       937  ECLIPA    HB5           -12.7234784464      -33.4849367158       19.7771798410  LPSA27    1               0.0000000000
     28868       937  ECLIPA    CB1           -11.3811783280      -34.7315795584       17.7717324898  LPSA27    1               0.0000000000
     28869       937  ECLIPA    HB1           -10.9992003862      -33.6950234892       17.9003641080  LPSA27    1               0.0000000000
     28870       937  ECLIPA    OA6           -10.3412304606      -35.5468189672       17.3217246577  LPSA27    1               0.0000000000
     28871       937  ECLIPA    CA6           -10.3895502225      -36.9672350769       17.5745106853  LPSA27    1               0.0000000000
     28872       937  ECLIPA    HA6R          -11.4493459624      -37.2580644681       17.7226451425  LPSA27    1               0.0000000000
     28873       937  ECLIPA    HA6S           -9.6698394868      -37.1901676515       18.4598965841  LPSA27    1               0.0000000000
     28874       937  ECLIPA    CB4           -14.2132402311      -34.3101234406       18.3206521937  LPSA27    1               0.0000000000
     28875       937  ECLIPA    HB4           -14.6004748501      -35.3028262965       18.0085584641  LPSA27    1               0.0000000000
     28876       937  ECLIPA    OB4           -15.1144970819      -33.3424287245       18.9017319965  LPSA27    1               0.0000000000
     28877       937  ECLIPA    PB            -16.6002169917      -33.7969647336       19.3234616795  LPSA27    1               0.0000000000
     28878       937  ECLIPA    OPB4          -16.9950272975      -32.9651890683       20.5579515876  LPSA27    1               0.0000000000
     28879       937  ECLIPA    OPB3          -16.3674299604      -35.2896745638       19.6614545037  LPSA27    1               0.0000000000
     28880       937  ECLIPA    OPB2          -17.4925569345      -33.6422057421       18.0829495795  LPSA27    1               0.0000000000
     28881       937  ECLIPA    CB3           -13.5253373018      -33.7392611483       17.0955893951  LPSA27    1               0.0000000000
     28882       937  ECLIPA    OB3           -14.3434951354      -33.6175541037       15.9186528231  LPSA27    1               0.0000000000
     28883       937  ECLIPA    HB3           -12.9434947606      -32.7959829398       17.3284540628  LPSA27    1               0.0000000000
     28884       937  ECLIPA    C71           -14.9414661281      -32.4957127760       15.6929469039  LPSA27    1               0.0000000000
     28885       937  ECLIPA    O71           -14.7769431950      -31.4631518131       16.3832172580  LPSA27    1               0.0000000000
     28886       937  ECLIPA    C72           -15.7137702796      -32.6350694587       14.3548430386  LPSA27    1               0.0000000000
     28887       937  ECLIPA    H72R          -15.0035820429      -32.9116880443       13.5774555414  LPSA27    1               0.0000000000
     28888       937  ECLIPA    H72S          -16.2984002633      -31.6424655529       14.1464415926  LPSA27    1               0.0000000000
     28889       937  ECLIPA    CB2           -12.3850719796      -34.6863623046       16.6720734084  LPSA27    1               0.0000000000
     28890       937  ECLIPA    HB2           -12.8844682209      -35.7482317969       16.5298168153  LPSA27    1               0.0000000000
     28891       937  ECLIPA    NB2           -11.6766469835      -34.2285157030       15.4577284722  LPSA27    1               0.0000000000
     28892       937  ECLIPA    HNB2          -10.9412264447      -33.5667381721       15.5965609326  LPSA27    1               0.0000000000
     28893       937  ECLIPA    CA4            -8.6345273784      -37.0623641236       15.7929312798  LPSA27    1               0.0000000000
     28894       937  ECLIPA    HA4            -8.8531756496      -36.0065793521       15.4903430209  LPSA27    1               0.0000000000
     28895       937  ECLIPA    OA4            -7.6695714749      -37.0744205033       16.8012065728  LPSA27    1               0.0000000000
     28896       937  ECLIPA    HOA4           -7.9881378129      -36.7473674340       17.5928838569  LPSA27    1               0.0000000000
     28897       937  ECLIPA    CA5            -9.8526294312      -37.6671063503       16.3547806008  LPSA27    1               0.0000000000
     28898       937  ECLIPA    HA5            -9.8270731314      -38.8109302547       16.5880746347  LPSA27    1               0.0000000000
     28899       937  ECLIPA    OA5           -10.8880878674      -37.5520545759       15.3689671688  LPSA27    1               0.0000000000
     28900       937  ECLIPA    CA1           -10.5104500734      -38.2102586637       14.1076640156  LPSA27    1               0.0000000000
     28901       937  ECLIPA    HA1           -11.2541172783      -37.7325394639       13.4118188108  LPSA27    1               0.0000000000
     28902       937  ECLIPA    OA1           -10.7085515380      -39.6101922903       14.1359876212  LPSA27    1               0.0000000000
     28903       937  ECLIPA    OPA2          -11.5818928721      -40.9055732454       15.9734101064  LPSA27    1               0.0000000000
     28904       937  ECLIPA    OPA3          -13.1329014278      -39.2361100777       14.8300177673  LPSA27    1               0.0000000000
     28905       937  ECLIPA    OPA4          -12.4715767431      -41.2881863718       13.6615320840  LPSA27    1               0.0000000000
     28906       937  ECLIPA    PA            -12.0404690106      -40.2533836588       14.6765383084  LPSA27    1               0.0000000000
     28907       937  ECLIPA    CA3            -8.1461083622      -37.7423700194       14.5219348229  LPSA27    1               0.0000000000
     28908       937  ECLIPA    HA3            -7.8360270994      -38.8390447930       14.7377032538  LPSA27    1               0.0000000000
     28909       937  ECLIPA    OA3            -6.9043742224      -37.1182611063       14.2498111976  LPSA27    1               0.0000000000
     28910       937  ECLIPA    C31            -6.9549026734      -35.9708502244       13.5006246295  LPSA27    1               0.0000000000
     28911       937  ECLIPA    O31            -7.1055386703      -35.8997782438       12.2941239937  LPSA27    1               0.0000000000
     28912       937  ECLIPA    C32            -6.2680816672      -34.8386776250       14.2780289507  LPSA27    1               0.0000000000
     28913       937  ECLIPA    H32R           -5.3676699216      -34.5283196681       13.7149713840  LPSA27    1               0.0000000000
     28914       937  ECLIPA    H32S           -5.9970123732      -35.1828129045       15.2729523512  LPSA27    1               0.0000000000
     28915       937  ECLIPA    CA2            -9.2589598570      -37.6223291505       13.4984733916  LPSA27    1               0.0000000000
     28916       937  ECLIPA    HA2            -9.4942215108      -36.5595601341       13.3982259915  LPSA27    1               0.0000000000
     28917       937  ECLIPA    NA2            -8.9434507992      -38.2617486630       12.2035087571  LPSA27    1               0.0000000000
     28918       937  ECLIPA    HNA2           -8.0243676140      -38.5515188915       12.0865030408  LPSA27    1               0.0000000000
     28919       937  ECLIPA    C73           -16.7810139663      -33.6985173315       14.3319064372  LPSA27    1               0.0000000000
     28920       937  ECLIPA    H73R          -17.3981159163      -33.6977807391       15.2227416964  LPSA27    1               0.0000000000
     28921       937  ECLIPA    O73           -16.0909028405      -34.9711418728       14.2644256719  LPSA27    1               0.0000000000
     28922       937  ECLIPA    C81           -16.5180738673      -36.0994323404       14.8555734565  LPSA27    1               0.0000000000
     28923       937  ECLIPA    O81           -17.4924126676      -36.0325683163       15.6690894779  LPSA27    1               0.0000000000
     28924       937  ECLIPA    C82           -15.7488151754      -37.3371750068       14.3536111794  LPSA27    1               0.0000000000
     28925       937  ECLIPA    H82R          -16.0788202413      -38.2424553832       14.8531840528  LPSA27    1               0.0000000000
     28926       937  ECLIPA    H82S          -14.6534762589      -37.2373749904       14.5323473422  LPSA27    1               0.0000000000
     28927       937  ECLIPA    C83           -15.9425734916      -37.4940545738       12.8301722806  LPSA27    1               0.0000000000
     28928       937  ECLIPA    H83R          -15.2302864531      -36.8076104878       12.2351841548  LPSA27    1               0.0000000000
     28929       937  ECLIPA    H83S          -16.9275692022      -37.0892365338       12.5911296392  LPSA27    1               0.0000000000
     28930       937  ECLIPA    C84           -15.6375225198      -38.9119295024       12.3050927261  LPSA27    1               0.0000000000
     28931       937  ECLIPA    H84R          -16.4739867748      -39.5674857674       12.5767117503  LPSA27    1               0.0000000000
     28932       937  ECLIPA    H84S          -14.6887318526      -39.1492916295       12.7369555497  LPSA27    1               0.0000000000
     28933       937  ECLIPA    C85           -15.4549640738      -38.9118442648       10.7695484051  LPSA27    1               0.0000000000
     28934       937  ECLIPA    H85R          -14.8373814424      -38.0312691106       10.5503608829  LPSA27    1               0.0000000000
     28935       937  ECLIPA    H85S          -16.4372971287      -38.7277269747       10.2367999955  LPSA27    1               0.0000000000
     28936       937  ECLIPA    C86           -14.6571559344      -40.1612534243       10.3034592726  LPSA27    1               0.0000000000
     28937       937  ECLIPA    H86R          -15.3214470588      -41.0348165747        9.9932223571  LPSA27    1               0.0000000000
     28938       937  ECLIPA    H86S          -14.0192639729      -40.5385332421       11.0807540114  LPSA27    1               0.0000000000
     28939       937  ECLIPA    C87           -13.6393024979      -39.8244472224        9.1601018854  LPSA27    1               0.0000000000
     28940       937  ECLIPA    H87R          -13.1345176769      -40.7170600674        8.8049419625  LPSA27    1               0.0000000000
     28941       937  ECLIPA    H87S          -12.8180842238      -39.1587638662        9.5406723883  LPSA27    1               0.0000000000
     28942       937  ECLIPA    C88           -14.2884820003      -39.0615549202        8.0318999685  LPSA27    1               0.0000000000
     28943       937  ECLIPA    H88R          -14.4809437296      -37.9843526224        8.3479828359  LPSA27    1               0.0000000000
     28944       937  ECLIPA    H88S          -15.3619308778      -39.3940950313        7.9254521495  LPSA27    1               0.0000000000
     28945       937  ECLIPA    C89           -13.4541024182      -39.0080754114        6.7101000712  LPSA27    1               0.0000000000
     28946       937  ECLIPA    H89R          -12.3854178086      -39.2648156961        6.8746682686  LPSA27    1               0.0000000000
     28947       937  ECLIPA    H89S          -13.4336320955      -38.0477296491        6.2317001698  LPSA27    1               0.0000000000
     28948       937  ECLIPA    C810          -14.0920404243      -39.9831967863        5.7047246593  LPSA27    1               0.0000000000
     28949       937  ECLIPA    H810R         -15.1536340512      -39.9515476314        6.0108430704  LPSA27    1               0.0000000000
     28950       937  ECLIPA    H810S         -13.6836071898      -40.9639450241        5.8554647029  LPSA27    1               0.0000000000
     28951       937  ECLIPA    C811          -13.9274529255      -39.6230909356        4.2179945741  LPSA27    1               0.0000000000
     28952       937  ECLIPA    H811R         -14.0614281719      -40.3918796259        3.5081125689  LPSA27    1               0.0000000000
     28953       937  ECLIPA    H811S         -12.8845812997      -39.1319345294        4.1819101877  LPSA27    1               0.0000000000
     28954       937  ECLIPA    C812          -14.7654638909      -38.4266558318        3.7413673409  LPSA27    1               0.0000000000
     28955       937  ECLIPA    H812R         -14.4123548396      -38.1779654751        2.6403157337  LPSA27    1               0.0000000000
     28956       937  ECLIPA    H812S         -14.7494933517      -37.5785511254        4.4144737196  LPSA27    1               0.0000000000
     28957       937  ECLIPA    C813          -16.2801526176      -38.6965145635        3.6785234959  LPSA27    1               0.0000000000
     28958       937  ECLIPA    H813R         -16.4224794968      -39.5205493578        2.9398073555  LPSA27    1               0.0000000000
     28959       937  ECLIPA    H813S         -16.7706768380      -39.0472164377        4.6616087352  LPSA27    1               0.0000000000
     28960       937  ECLIPA    C814          -17.0829563741      -37.5313239106        3.1377409857  LPSA27    1               0.0000000000
     28961       937  ECLIPA    H814R         -16.6645206047      -37.0172234402        2.1719074593  LPSA27    1               0.0000000000
     28962       937  ECLIPA    H814S         -17.1689359657      -36.7615565652        3.9166242729  LPSA27    1               0.0000000000
     28963       937  ECLIPA    H814T         -18.1237464090      -37.8461428148        2.8964685373  LPSA27    1               0.0000000000
     28964       937  ECLIPA    C74           -17.7563728488      -33.7386587004       13.1792855021  LPSA27    1               0.0000000000
     28965       937  ECLIPA    H74R          -18.4093381499      -32.8877006735       12.9935747315  LPSA27    1               0.0000000000
     28966       937  ECLIPA    H74S          -18.4518030571      -34.6579039208       13.3086690609  LPSA27    1               0.0000000000
     28967       937  ECLIPA    C75           -17.0155549746      -34.0829672581       11.8151371119  LPSA27    1               0.0000000000
     28968       937  ECLIPA    H75R          -17.7435973744      -34.7359659175       11.2107603889  LPSA27    1               0.0000000000
     28969       937  ECLIPA    H75S          -16.1052008972      -34.6823768309       12.0082837783  LPSA27    1               0.0000000000
     28970       937  ECLIPA    C76           -16.6262314044      -32.8706350242       10.9251453624  LPSA27    1               0.0000000000
     28971       937  ECLIPA    H76R          -15.6984748126      -32.4024389236       11.3555905686  LPSA27    1               0.0000000000
     28972       937  ECLIPA    H76S          -17.4117188987      -32.0070753277       10.9731137071  LPSA27    1               0.0000000000
     28973       937  ECLIPA    C77           -16.3742389265      -33.1344121385        9.4191603634  LPSA27    1               0.0000000000
     28974       937  ECLIPA    H77R          -17.2886284303      -33.5221201021        9.0408775908  LPSA27    1               0.0000000000
     28975       937  ECLIPA    H77S          -15.6832896884      -33.9984841283        9.2852383479  LPSA27    1               0.0000000000
     28976       937  ECLIPA    C78           -15.7578416719      -31.8595021281        8.8297405752  LPSA27    1               0.0000000000
     28977       937  ECLIPA    H78R          -16.3726094316      -31.0214200597        9.1562620580  LPSA27    1               0.0000000000
     28978       937  ECLIPA    H78S          -14.7458753867      -31.7933909754        9.3169442960  LPSA27    1               0.0000000000
     28979       937  ECLIPA    C79           -15.3944590186      -31.9919177409        7.2570767761  LPSA27    1               0.0000000000
     28980       937  ECLIPA    H79R          -14.2963936504      -32.2600606399        7.1763205913  LPSA27    1               0.0000000000
     28981       937  ECLIPA    H79S          -15.5372108644      -31.0135264792        6.7882549413  LPSA27    1               0.0000000000
     28982       937  ECLIPA    C710          -16.3293925876      -32.8292286040        6.3785096220  LPSA27    1               0.0000000000
     28983       937  ECLIPA    H710R         -16.3238990411      -33.8415533224        6.8460783027  LPSA27    1               0.0000000000
     28984       937  ECLIPA    H710S         -17.2722289337      -32.4433308438        6.4843026416  LPSA27    1               0.0000000000
     28985       937  ECLIPA    C711          -15.8780506569      -32.9578231358        4.9384125046  LPSA27    1               0.0000000000
     28986       937  ECLIPA    H711R         -15.8991980315      -31.9312549099        4.5670708729  LPSA27    1               0.0000000000
     28987       937  ECLIPA    H711S         -14.8583131341      -33.4202094771        4.9306188492  LPSA27    1               0.0000000000
     28988       937  ECLIPA    C712          -16.8442161747      -33.8787247075        4.2148670498  LPSA27    1               0.0000000000
     28989       937  ECLIPA    H712R         -17.8339074762      -33.4191769452        4.3130666899  LPSA27    1               0.0000000000
     28990       937  ECLIPA    H712S         -16.8830589694      -34.7779824012        4.8522839389  LPSA27    1               0.0000000000
     28991       937  ECLIPA    C713          -16.3570731310      -34.2034854998        2.7357390519  LPSA27    1               0.0000000000
     28992       937  ECLIPA    H713R         -15.3750851673      -34.7344316155        2.8800411466  LPSA27    1               0.0000000000
     28993       937  ECLIPA    H713S         -17.1674619137      -34.8810251820        2.2750064041  LPSA27    1               0.0000000000
     28994       937  ECLIPA    C714          -16.3255952225      -32.9184477231        1.8879763961  LPSA27    1               0.0000000000
     28995       937  ECLIPA    H714R         -17.3325406621      -32.4959592685        1.7626189762  LPSA27    1               0.0000000000
     28996       937  ECLIPA    H714S         -15.5377333099      -32.2257315066        2.2081901572  LPSA27    1               0.0000000000
     28997       937  ECLIPA    H714T         -16.0603181400      -33.3124249410        0.9249202435  LPSA27    1               0.0000000000
     28998       937  ECLIPA    C51           -12.1630798292      -34.5102833981       14.2380633031  LPSA27    1               0.0000000000
     28999       937  ECLIPA    O51           -12.9683759575      -35.4597199468       14.1304636378  LPSA27    1               0.0000000000
     29000       937  ECLIPA    C52           -11.7811060166      -33.5987209370       13.0157035712  LPSA27    1               0.0000000000
     29001       937  ECLIPA    H52R          -12.4078268390      -32.7268042916       12.8950255930  LPSA27    1               0.0000000000
     29002       937  ECLIPA    H52S          -10.7737536649      -33.3136026497       13.2222025935  LPSA27    1               0.0000000000
     29003       937  ECLIPA    C53           -11.7059912741      -34.5385460741       11.7526064304  LPSA27    1               0.0000000000
     29004       937  ECLIPA    H53R          -11.4883831471      -35.5703482455       12.0082431084  LPSA27    1               0.0000000000
     29005       937  ECLIPA    O53           -10.7999938457      -33.8934578634       10.8431816314  LPSA27    1               0.0000000000
     29006       937  ECLIPA    C61            -9.6876017933      -34.5266478596       10.5090573566  LPSA27    1               0.0000000000
     29007       937  ECLIPA    O61            -9.3639652956      -35.6159022402       10.8659713306  LPSA27    1               0.0000000000
     29008       937  ECLIPA    C62            -8.8611036868      -33.6317388116        9.5765835255  LPSA27    1               0.0000000000
     29009       937  ECLIPA    H62R           -8.3396883516      -32.8878608515       10.2152837125  LPSA27    1               0.0000000000
     29010       937  ECLIPA    H62S           -9.5931780026      -32.9849237238        9.0470049452  LPSA27    1               0.0000000000
     29011       937  ECLIPA    C63            -7.9061579954      -34.4612348851        8.6803029234  LPSA27    1               0.0000000000
     29012       937  ECLIPA    H63R           -8.4938937184      -35.3030343742        8.2798705976  LPSA27    1               0.0000000000
     29013       937  ECLIPA    H63S           -7.0333647188      -34.9153585729        9.3252199642  LPSA27    1               0.0000000000
     29014       937  ECLIPA    C64            -7.2690806745      -33.7863447995        7.5279067597  LPSA27    1               0.0000000000
     29015       937  ECLIPA    H64R           -6.5214029969      -34.4489924269        6.9620099216  LPSA27    1               0.0000000000
     29016       937  ECLIPA    H64S           -6.7323074958      -32.8666657428        7.9657393466  LPSA27    1               0.0000000000
     29017       937  ECLIPA    C65            -8.3715164254      -33.2631809205        6.5414948800  LPSA27    1               0.0000000000
     29018       937  ECLIPA    H65R           -8.9222972593      -32.5861262188        7.2423230371  LPSA27    1               0.0000000000
     29019       937  ECLIPA    H65S           -8.9836469845      -34.1198429983        6.1828980290  LPSA27    1               0.0000000000
     29020       937  ECLIPA    C66            -7.8811235955      -32.5099689010        5.2222643966  LPSA27    1               0.0000000000
     29021       937  ECLIPA    H66R           -7.3163917248      -31.6359225241        5.5395647249  LPSA27    1               0.0000000000
     29022       937  ECLIPA    H66S           -8.8886827847      -32.2044032060        4.8113963288  LPSA27    1               0.0000000000
     29023       937  ECLIPA    C67            -7.1393819959      -33.2943488043        4.1696839457  LPSA27    1               0.0000000000
     29024       937  ECLIPA    H67R           -6.3024008449      -33.8643394714        4.5058181646  LPSA27    1               0.0000000000
     29025       937  ECLIPA    H67S           -6.7963470280      -32.6033822175        3.3478820057  LPSA27    1               0.0000000000
     29026       937  ECLIPA    C68            -7.9604865471      -34.3697667719        3.5077075145  LPSA27    1               0.0000000000
     29027       937  ECLIPA    H68R           -8.9184368017      -34.0841468605        3.0112508411  LPSA27    1               0.0000000000
     29028       937  ECLIPA    H68S           -8.0907394913      -35.0750116176        4.3087918325  LPSA27    1               0.0000000000
     29029       937  ECLIPA    C69            -7.2097142825      -34.9205928802        2.2963532923  LPSA27    1               0.0000000000
     29030       937  ECLIPA    H69R           -6.1055621584      -34.8425821664        2.3203210098  LPSA27    1               0.0000000000
     29031       937  ECLIPA    H69S           -7.4480274641      -34.2547403201        1.4693744207  LPSA27    1               0.0000000000
     29032       937  ECLIPA    C610           -7.5763486647      -36.3148248930        1.9396251084  LPSA27    1               0.0000000000
     29033       937  ECLIPA    H610R          -8.6845021243      -36.4658034841        2.0603347121  LPSA27    1               0.0000000000
     29034       937  ECLIPA    H610S          -7.1192545094      -37.0359362337        2.6933643884  LPSA27    1               0.0000000000
     29035       937  ECLIPA    C611           -7.0463530586      -36.7594175122        0.5312153135  LPSA27    1               0.0000000000
     29036       937  ECLIPA    H611R          -5.9453441049      -36.6475115217        0.5735373188  LPSA27    1               0.0000000000
     29037       937  ECLIPA    H611S          -7.0920806468      -37.8246058481        0.3609598123  LPSA27    1               0.0000000000
     29038       937  ECLIPA    C612           -7.7601888817      -36.0064959357       -0.5788949292  LPSA27    1               0.0000000000
     29039       937  ECLIPA    H612R          -8.8321598284      -36.3508823644       -0.6060949542  LPSA27    1               0.0000000000
     29040       937  ECLIPA    H612S          -7.8190294524      -34.9437295458       -0.3132441764  LPSA27    1               0.0000000000
     29041       937  ECLIPA    H612T          -7.3054323025      -36.1846388660       -1.5574606966  LPSA27    1               0.0000000000
     29042       937  ECLIPA    C54           -13.1329059703      -34.4763532106       11.1776054589  LPSA27    1               0.0000000000
     29043       937  ECLIPA    H54R          -13.3516856682      -33.4057409411       10.8869876633  LPSA27    1               0.0000000000
     29044       937  ECLIPA    H54S          -13.8738813209      -34.7155288765       11.9574517429  LPSA27    1               0.0000000000
     29045       937  ECLIPA    C55           -13.4923306872      -35.3633567289        9.9916770240  LPSA27    1               0.0000000000
     29046       937  ECLIPA    H55R          -14.5831994349      -35.4505573227        9.7856946516  LPSA27    1               0.0000000000
     29047       937  ECLIPA    H55S          -13.1238261584      -36.4209469030       10.2436295858  LPSA27    1               0.0000000000
     29048       937  ECLIPA    C56           -12.9302623839      -34.7208996454        8.7515486822  LPSA27    1               0.0000000000
     29049       937  ECLIPA    H56R          -11.8041356712      -34.6317763265        8.8382497819  LPSA27    1               0.0000000000
     29050       937  ECLIPA    H56S          -13.2970509221      -33.7789861887        8.4741334449  LPSA27    1               0.0000000000
     29051       937  ECLIPA    C57           -12.9465663476      -35.5928677472        7.4395707935  LPSA27    1               0.0000000000
     29052       937  ECLIPA    H57R          -13.9429807205      -35.9568564540        7.1827428724  LPSA27    1               0.0000000000
     29053       937  ECLIPA    H57S          -12.3353239062      -36.5166990714        7.5196553379  LPSA27    1               0.0000000000
     29054       937  ECLIPA    C58           -12.2973398089      -34.7967058285        6.2350750625  LPSA27    1               0.0000000000
     29055       937  ECLIPA    H58R          -12.6620013881      -33.7325641702        6.2095761879  LPSA27    1               0.0000000000
     29056       937  ECLIPA    H58S          -11.2247521850      -34.6192102871        6.5224540661  LPSA27    1               0.0000000000
     29057       937  ECLIPA    C59           -12.6004287788      -35.4690729707        4.8667186835  LPSA27    1               0.0000000000
     29058       937  ECLIPA    H59R          -13.6818947009      -35.5575871794        4.6589989540  LPSA27    1               0.0000000000
     29059       937  ECLIPA    H59S          -12.1355730150      -36.4511659582        5.0825555512  LPSA27    1               0.0000000000
     29060       937  ECLIPA    C510          -12.0991503379      -34.6327282591        3.6752379292  LPSA27    1               0.0000000000
     29061       937  ECLIPA    H510R         -11.0460142428      -34.2023974187        3.7937959224  LPSA27    1               0.0000000000
     29062       937  ECLIPA    H510S         -12.8023591456      -33.7072913542        3.4613250382  LPSA27    1               0.0000000000
     29063       937  ECLIPA    C511          -12.1009456845      -35.3339461576        2.3004848829  LPSA27    1               0.0000000000
     29064       937  ECLIPA    H511R         -11.1861945204      -35.9564319839        2.2679211996  LPSA27    1               0.0000000000
     29065       937  ECLIPA    H511S         -12.9571447459      -36.0616650354        2.1940961976  LPSA27    1               0.0000000000
     29066       937  ECLIPA    C512          -12.0448241196      -34.4234979238        1.0189424135  LPSA27    1               0.0000000000
     29067       937  ECLIPA    H512R         -12.2775446873      -35.0302351678        0.0815295424  LPSA27    1               0.0000000000
     29068       937  ECLIPA    H512S         -12.7794135172      -33.6141355192        1.1129704346  LPSA27    1               0.0000000000
     29069       937  ECLIPA    C513          -10.5941659965      -33.8724759443        0.6457389972  LPSA27    1               0.0000000000
     29070       937  ECLIPA    H513R          -9.8562436137      -34.7214743361        0.5010832175  LPSA27    1               0.0000000000
     29071       937  ECLIPA    H513S         -10.2177748169      -33.3019889660        1.4088770719  LPSA27    1               0.0000000000
     29072       937  ECLIPA    C514          -10.6296264938      -33.1208161595       -0.6567184026  LPSA27    1               0.0000000000
     29073       937  ECLIPA    H514R         -11.3804348602      -32.3314714577       -0.6273993866  LPSA27    1               0.0000000000
     29074       937  ECLIPA    H514S          -9.6650101025      -32.6104796611       -0.7024724270  LPSA27    1               0.0000000000
     29075       937  ECLIPA    H514T         -10.8321608671      -33.8263953844       -1.5427815912  LPSA27    1               0.0000000000
     29076       937  ECLIPA    C33            -7.0918669329      -33.4882166318       14.4880792826  LPSA27    1               0.0000000000
     29077       937  ECLIPA    H33R           -6.3598962056      -32.7079930740       14.8828993596  LPSA27    1               0.0000000000
     29078       937  ECLIPA    O33            -8.0974539083      -33.6586382428       15.4699768821  LPSA27    1               0.0000000000
     29079       937  ECLIPA    HO33           -7.6887931123      -33.7029558266       16.2926205744  LPSA27    1               0.0000000000
     29080       937  ECLIPA    C34            -7.7560275296      -32.8782751199       13.2255459338  LPSA27    1               0.0000000000
     29081       937  ECLIPA    H34R           -8.4501653175      -33.5952434895       12.8010908313  LPSA27    1               0.0000000000
     29082       937  ECLIPA    H34S           -6.9770818173      -32.7548207545       12.3772221142  LPSA27    1               0.0000000000
     29083       937  ECLIPA    C35            -8.5091588835      -31.5504582746       13.4256256262  LPSA27    1               0.0000000000
     29084       937  ECLIPA    H35R           -7.7812944411      -30.7889891797       13.6963698038  LPSA27    1               0.0000000000
     29085       937  ECLIPA    H35S           -9.2051313888      -31.6640434652       14.2668166019  LPSA27    1               0.0000000000
     29086       937  ECLIPA    C36            -9.1960547748      -30.9406906116       12.1865608177  LPSA27    1               0.0000000000
     29087       937  ECLIPA    H36R           -9.4804222197      -31.9171003836       11.7430812241  LPSA27    1               0.0000000000
     29088       937  ECLIPA    H36S           -8.5204698374      -30.3637666784       11.4785220412  LPSA27    1               0.0000000000
     29089       937  ECLIPA    C37           -10.5072120542      -30.2570221105       12.5255831563  LPSA27    1               0.0000000000
     29090       937  ECLIPA    H37R          -10.1966886362      -29.1264273408       12.6765215637  LPSA27    1               0.0000000000
     29091       937  ECLIPA    H37S          -10.9001597694      -30.5633204431       13.5128993321  LPSA27    1               0.0000000000
     29092       937  ECLIPA    C38           -11.6103722599      -30.2982001912       11.4317274953  LPSA27    1               0.0000000000
     29093       937  ECLIPA    H38R          -12.1651345673      -31.2508627691       11.4067421357  LPSA27    1               0.0000000000
     29094       937  ECLIPA    H38S          -12.3826072461      -29.5633990574       11.7230999881  LPSA27    1               0.0000000000
     29095       937  ECLIPA    C39           -11.0249869211      -30.0827209317       10.0213367345  LPSA27    1               0.0000000000
     29096       937  ECLIPA    H39R          -10.2077163583      -30.8231748527        9.8128797222  LPSA27    1               0.0000000000
     29097       937  ECLIPA    H39S          -10.7115312701      -29.0063055511        9.9697980947  LPSA27    1               0.0000000000
     29098       937  ECLIPA    C310          -12.0155303685      -30.1601810748        8.8401719124  LPSA27    1               0.0000000000
     29099       937  ECLIPA    H310R         -12.7308535386      -29.2832656804        9.0626900142  LPSA27    1               0.0000000000
     29100       937  ECLIPA    H310S         -12.5952960208      -31.1275636400        8.8945759064  LPSA27    1               0.0000000000
     29101       937  ECLIPA    C311          -11.3197104551      -30.3202409876        7.5676235846  LPSA27    1               0.0000000000
     29102       937  ECLIPA    H311R         -10.3880579736      -29.6994096837        7.5507520616  LPSA27    1               0.0000000000
     29103       937  ECLIPA    H311S         -11.0110541178      -31.3739206868        7.2851462164  LPSA27    1               0.0000000000
     29104       937  ECLIPA    C312          -12.1734864205      -29.9730615077        6.3280121142  LPSA27    1               0.0000000000
     29105       937  ECLIPA    H312R         -13.2411957826      -30.2691832855        6.4861373960  LPSA27    1               0.0000000000
     29106       937  ECLIPA    H312S         -12.1203320057      -28.8649573171        6.1820758986  LPSA27    1               0.0000000000
     29107       937  ECLIPA    C313          -11.6773075004      -30.6104828559        4.9895779706  LPSA27    1               0.0000000000
     29108       937  ECLIPA    H313R         -10.8055237253      -30.0705506592        4.7825120466  LPSA27    1               0.0000000000
     29109       937  ECLIPA    H313S         -11.4001412540      -31.6887426683        5.1572698764  LPSA27    1               0.0000000000
     29110       937  ECLIPA    C314          -12.5915933092      -30.5304103866        3.8116661598  LPSA27    1               0.0000000000
     29111       937  ECLIPA    H314R         -12.8352325745      -29.4524326992        3.6067793993  LPSA27    1               0.0000000000
     29112       937  ECLIPA    H314S         -12.2207257014      -30.9760461451        2.8849361441  LPSA27    1               0.0000000000
     29113       937  ECLIPA    H314T         -13.5974951945      -31.0280709911        4.0446347774  LPSA27    1               0.0000000000
     29114       937  ECLIPA    C11            -9.8070525772      -38.6303795654       11.2900808200  LPSA27    1               0.0000000000
     29115       937  ECLIPA    O11           -10.9725642609      -38.2850809375       11.1394597694  LPSA27    1               0.0000000000
     29116       937  ECLIPA    C12            -9.2776571122      -39.6962888408       10.2853014675  LPSA27    1               0.0000000000
     29117       937  ECLIPA    H12R           -9.7293808516      -40.7013109902       10.4852637814  LPSA27    1               0.0000000000
     29118       937  ECLIPA    H12S           -8.1811455431      -39.7280545450       10.5222272274  LPSA27    1               0.0000000000
     29119       937  ECLIPA    C13            -9.4627843425      -39.3625293057        8.8110583416  LPSA27    1               0.0000000000
     29120       937  ECLIPA    H13R          -10.5107610699      -38.9340166196        8.5839874118  LPSA27    1               0.0000000000
     29121       937  ECLIPA    O13            -9.3676768699      -40.6413264016        8.1311342176  LPSA27    1               0.0000000000
     29122       937  ECLIPA    HO13           -9.8156697007      -40.5999013146        7.3064966676  LPSA27    1               0.0000000000
     29123       937  ECLIPA    C14            -8.4207154547      -38.3270090873        8.4581579993  LPSA27    1               0.0000000000
     29124       937  ECLIPA    H14R           -7.4102585455      -38.5288099845        8.9706443184  LPSA27    1               0.0000000000
     29125       937  ECLIPA    H14S           -8.8409285291      -37.3347529958        8.7243868424  LPSA27    1               0.0000000000
     29126       937  ECLIPA    C15            -8.1060593061      -38.2427867884        6.9526486677  LPSA27    1               0.0000000000
     29127       937  ECLIPA    H15R           -7.8735688154      -39.2145750878        6.5500123177  LPSA27    1               0.0000000000
     29128       937  ECLIPA    H15S           -7.2632637016      -37.5536637842        6.8782608049  LPSA27    1               0.0000000000
     29129       937  ECLIPA    C16            -9.3295678799      -37.7150135490        6.1622847334  LPSA27    1               0.0000000000
     29130       937  ECLIPA    H16R           -9.4379932336      -36.5747351945        6.2733383262  LPSA27    1               0.0000000000
     29131       937  ECLIPA    H16S          -10.2342341215      -38.0155074100        6.7182496574  LPSA27    1               0.0000000000
     29132       937  ECLIPA    C17            -9.2917790178      -38.0804600068        4.6801229578  LPSA27    1               0.0000000000
     29133       937  ECLIPA    H17R           -8.2120052156      -37.8514354306        4.4246758429  LPSA27    1               0.0000000000
     29134       937  ECLIPA    H17S           -9.9028172419      -37.4727230048        4.0046542873  LPSA27    1               0.0000000000
     29135       937  ECLIPA    C18            -9.6221998930      -39.5300521241        4.4504458171  LPSA27    1               0.0000000000
     29136       937  ECLIPA    H18R           -8.9314100407      -40.0161735049        5.0865821920  LPSA27    1               0.0000000000
     29137       937  ECLIPA    H18S          -10.6890887149      -39.6967186805        4.7749867078  LPSA27    1               0.0000000000
     29138       937  ECLIPA    C19            -9.4480398582      -39.9413586099        3.0097966450  LPSA27    1               0.0000000000
     29139       937  ECLIPA    H19R           -9.5758530352      -41.0112936729        2.9245509529  LPSA27    1               0.0000000000
     29140       937  ECLIPA    H19S           -8.4185258861      -39.6407986660        2.6238151240  LPSA27    1               0.0000000000
     29141       937  ECLIPA    C110          -10.5392790745      -39.3189820503        2.1045801788  LPSA27    1               0.0000000000
     29142       937  ECLIPA    H110R         -11.5680535979      -39.4561178758        2.4416701971  LPSA27    1               0.0000000000
     29143       937  ECLIPA    H110S         -10.2375745844      -38.2497833556        2.1583327743  LPSA27    1               0.0000000000
     29144       937  ECLIPA    C111          -10.3581526587      -39.8254623590        0.7563571155  LPSA27    1               0.0000000000
     29145       937  ECLIPA    H111R          -9.2911983972      -39.8709883383        0.3999767799  LPSA27    1               0.0000000000
     29146       937  ECLIPA    H111S         -10.6534343949      -40.8416215668        0.7977177860  LPSA27    1               0.0000000000
     29147       937  ECLIPA    C112          -11.2384868850      -39.1299095526       -0.2937360943  LPSA27    1               0.0000000000
     29148       937  ECLIPA    H112R         -12.2345154375      -39.2857820942        0.1973446929  LPSA27    1               0.0000000000
     29149       937  ECLIPA    H112S         -11.1591170530      -38.0425281922       -0.2177998937  LPSA27    1               0.0000000000
     29150       937  ECLIPA    C113          -10.9035172424      -39.5036924354       -1.7468031795  LPSA27    1               0.0000000000
     29151       937  ECLIPA    H113R          -9.8888496723      -39.1060063470       -1.9802017524  LPSA27    1               0.0000000000
     29152       937  ECLIPA    H113S         -10.7849994811      -40.5867003808       -1.8531093719  LPSA27    1               0.0000000000
     29153       937  ECLIPA    C114          -11.8962832011      -39.1796516792       -2.8344928043  LPSA27    1               0.0000000000
     29154       937  ECLIPA    H114R         -12.9426882964      -39.4677693652       -2.7829422503  LPSA27    1               0.0000000000
     29155       937  ECLIPA    H114S         -11.9239522941      -38.0656037268       -2.9951089580  LPSA27    1               0.0000000000
     29156       937  ECLIPA    H114T         -11.6430926986      -39.7649500588       -3.7399523103  LPSA27    1               0.0000000000
     29157       938  AKDO      C1            -12.4671218974      -33.1419600165       22.4410509549  LPSA27    2               0.0000000000
     29158       938  AKDO      O11           -13.4864692310      -32.3714618410       22.4913720772  LPSA27    2               0.0000000000
     29159       938  AKDO      O12           -11.2805457419      -32.9029038959       22.0800765534  LPSA27    2               0.0000000000
     29160       938  AKDO      C2            -12.7251975419      -34.5832867012       22.8913181237  LPSA27    2               0.0000000000
     29161       938  AKDO      C6            -14.4058747764      -35.9781169675       23.8039205188  LPSA27    2               0.0000000000
     29162       938  AKDO      H6            -14.3707076643      -36.6010400175       22.9487387861  LPSA27    2               0.0000000000
     29163       938  AKDO      O6            -14.0049266118      -34.5997845056       23.4267274814  LPSA27    2               0.0000000000
     29164       938  AKDO      C3            -11.8065216155      -35.0350977811       23.9587385105  LPSA27    2               0.0000000000
     29165       938  AKDO      H31           -11.7386850064      -34.3955795261       24.7868435866  LPSA27    2               0.0000000000
     29166       938  AKDO      H32           -10.7516301450      -35.1619342535       23.4151264596  LPSA27    2               0.0000000000
     29167       938  AKDO      C4            -12.1637352995      -36.4565523125       24.3842593775  LPSA27    2               0.0000000000
     29168       938  AKDO      H4            -12.2022939618      -37.1427995791       23.5563617270  LPSA27    2               0.0000000000
     29169       938  AKDO      O4            -11.2141520068      -36.9162491263       25.3355834555  LPSA27    2               0.0000000000
     29170       938  AKDO      C5            -13.5159497919      -36.5681417230       24.9292437177  LPSA27    2               0.0000000000
     29171       938  AKDO      H5            -13.8214060191      -37.6445971726       25.0107888161  LPSA27    2               0.0000000000
     29172       938  AKDO      O5            -13.5589659274      -35.8043518467       26.2083878813  LPSA27    2               0.0000000000
     29173       938  AKDO      C7            -15.9509464656      -36.0750891921       24.1981149098  LPSA27    2               0.0000000000
     29174       938  AKDO      H7            -16.1059059978      -35.4770679343       25.0939202098  LPSA27    2               0.0000000000
     29175       938  AKDO      O7            -16.3842723889      -37.4528090684       24.3482682347  LPSA27    2               0.0000000000
     29176       938  AKDO      HO7           -16.4768175845      -37.7797531737       23.4945166536  LPSA27    2               0.0000000000
     29177       938  AKDO      C8            -16.7397927800      -35.4710444170       22.9864433882  LPSA27    2               0.0000000000
     29178       938  AKDO      H81           -16.3703306742      -34.4200164986       22.9153150275  LPSA27    2               0.0000000000
     29179       938  AKDO      H82           -16.4926227101      -36.1310956427       22.0745354517  LPSA27    2               0.0000000000
     29180       938  AKDO      O8            -18.1824192390      -35.4631834388       23.3537996748  LPSA27    2               0.0000000000
     29181       938  AKDO      HO8           -18.6028047596      -34.6769899045       22.9179804014  LPSA27    2               0.0000000000
     29182       939  AKDO      C1            -10.1691900273      -38.3931972865       23.8027969005  LPSA27    3               1.0000000000
     29183       939  AKDO      O11            -9.8675140486      -37.9677091573       22.6471489042  LPSA27    3               1.0000000000
     29184       939  AKDO      O12           -10.6161559659      -39.5350631314       24.0656860145  LPSA27    3               1.0000000000
     29185       939  AKDO      C2             -9.9669446571      -37.4973911951       25.0166033796  LPSA27    3               1.0000000000
     29186       939  AKDO      C6             -8.8586311785      -35.5011037466       25.7688829792  LPSA27    3               1.0000000000
     29187       939  AKDO      H6             -9.8529316042      -34.9887295419       25.9810553331  LPSA27    3               1.0000000000
     29188       939  AKDO      O6             -9.0106937025      -36.4239593472       24.7076657818  LPSA27    3               1.0000000000
     29189       939  AKDO      C3             -9.5084303405      -38.2067798768       26.3187707743  LPSA27    3               1.0000000000
     29190       939  AKDO      H31            -8.4664775060      -38.7047827734       26.1504935106  LPSA27    3               1.0000000000
     29191       939  AKDO      H32           -10.2042713469      -39.0117002916       26.5929217108  LPSA27    3               1.0000000000
     29192       939  AKDO      C4             -9.3935510318      -37.1665499966       27.4036122013  LPSA27    3               1.0000000000
     29193       939  AKDO      H4            -10.3283274135      -36.5975941005       27.4051754129  LPSA27    3               1.0000000000
     29194       939  AKDO      O4             -9.1840649492      -37.6493101432       28.7388570077  LPSA27    3               1.0000000000
     29195       939  AKDO      HO4            -9.8405814306      -37.3850548627       29.3717785514  LPSA27    3               1.0000000000
     29196       939  AKDO      C5             -8.4332226619      -36.1955926609       27.0369167275  LPSA27    3               1.0000000000
     29197       939  AKDO      H5             -8.2927803355      -35.4692926995       27.9236884022  LPSA27    3               1.0000000000
     29198       939  AKDO      O5             -7.1416857006      -36.8042279403       26.8495261943  LPSA27    3               1.0000000000
     29199       939  AKDO      HO5            -7.1929281416      -37.4634646692       26.1887877298  LPSA27    3               1.0000000000
     29200       939  AKDO      C7             -7.8530953919      -34.4680645429       25.3258859863  LPSA27    3               1.0000000000
     29201       939  AKDO      H7             -6.8418939573      -34.9316966718       25.1324849511  LPSA27    3               1.0000000000
     29202       939  AKDO      O7             -7.7433403810      -33.4579456638       26.3661029982  LPSA27    3               1.0000000000
     29203       939  AKDO      HO7            -6.9747702986      -32.8832678561       26.1647669547  LPSA27    3               1.0000000000
     29204       939  AKDO      C8             -8.4210559409      -33.7819922155       24.1539635864  LPSA27    3               1.0000000000
     29205       939  AKDO      H81            -8.6033568807      -34.4981590040       23.3419478721  LPSA27    3               1.0000000000
     29206       939  AKDO      H82            -9.3598600764      -33.2231402210       24.2853144505  LPSA27    3               1.0000000000
     29207       939  AKDO      O8             -7.4960340919      -32.8426661968       23.6541307456  LPSA27    3               1.0000000000
     29208       939  AKDO      HO8            -6.8964900734      -33.4960569441       23.2473452835  LPSA27    3               1.0000000000
     29209       940  AHEP      C1            -14.3533904981      -36.2877634578       27.2793229502  LPSA27    4               2.0000000000
     29210       940  AHEP      H1            -15.3239738097      -35.8726366195       26.8517192453  LPSA27    4               2.0000000000
     29211       940  AHEP      C5            -13.4482527701      -38.4106165465       28.0185271385  LPSA27    4               2.0000000000
     29212       940  AHEP      H5            -12.4742128832      -37.9800550991       27.5619054335  LPSA27    4               2.0000000000
     29213       940  AHEP      O5            -14.5163117040      -37.7033945442       27.3942805697  LPSA27    4               2.0000000000
     29214       940  AHEP      C2            -14.2704179202      -35.7438854808       28.6827861277  LPSA27    4               2.0000000000
     29215       940  AHEP      H2            -14.0978755427      -34.6636798838       28.7442425996  LPSA27    4               2.0000000000
     29216       940  AHEP      O2            -15.4617962667      -35.9828260610       29.3407203943  LPSA27    4               2.0000000000
     29217       940  AHEP      HO2           -15.6936661694      -35.2299198403       29.8507927467  LPSA27    4               2.0000000000
     29218       940  AHEP      C3            -13.1457927986      -36.4282760804       29.4857672188  LPSA27    4               2.0000000000
     29219       940  AHEP      H3            -12.1197305343      -36.1327607019       29.2269906369  LPSA27    4               2.0000000000
     29220       940  AHEP      O3            -13.2126941456      -36.0502265892       30.7882097304  LPSA27    4               2.0000000000
     29221       940  AHEP      C4            -13.3510511368      -37.9210616970       29.4546205599  LPSA27    4               2.0000000000
     29222       940  AHEP      H4            -14.2655778543      -38.2957283081       29.9788637739  LPSA27    4               2.0000000000
     29223       940  AHEP      O4            -12.2332438126      -38.5448319992       30.0145912217  LPSA27    4               2.0000000000
     29224       940  AHEP      P4            -12.2732848461      -39.2934598194       31.4978499249  LPSA27    4               2.0000000000
     29225       940  AHEP      OP42          -10.9611473338      -39.1261042779       32.1560374192  LPSA27    4               2.0000000000
     29226       940  AHEP      OP43          -12.5213976050      -40.7005102829       31.0397938518  LPSA27    4               2.0000000000
     29227       940  AHEP      OP44          -13.5022780831      -38.7775410230       32.3098937101  LPSA27    4               2.0000000000
     29228       940  AHEP      C6            -13.5713746488      -39.9612679198       27.7982482844  LPSA27    4               2.0000000000
     29229       940  AHEP      H6            -12.5626586135      -40.3896976175       28.0833143566  LPSA27    4               2.0000000000
     29230       940  AHEP      O6            -14.5611404592      -40.4443426610       28.7103505027  LPSA27    4               2.0000000000
     29231       940  AHEP      HO6           -14.2425253261      -41.2365027624       29.2203787365  LPSA27    4               2.0000000000
     29232       940  AHEP      C7            -13.8703807458      -40.3696210370       26.3054198206  LPSA27    4               2.0000000000
     29233       940  AHEP      H71           -13.7844340462      -41.4973512219       26.1576126064  LPSA27    4               2.0000000000
     29234       940  AHEP      H72           -13.2371259236      -39.7575127022       25.6323487339  LPSA27    4               2.0000000000
     29235       940  AHEP      O7            -15.2251953392      -40.0778469715       25.9755159574  LPSA27    4               2.0000000000
     29236       940  AHEP      HO7           -15.7741264169      -40.7973705912       26.3256794122  LPSA27    4               2.0000000000
     29237       941  AHEP      C1            -12.1116446380      -35.3715486155       31.4342177374  LPSA27    5               3.0000000000
     29238       941  AHEP      H1            -11.1285161875      -35.6624448654       30.9794447437  LPSA27    5               3.0000000000
     29239       941  AHEP      C5            -13.4081494263      -33.4317989809       31.9165413065  LPSA27    5               3.0000000000
     29240       941  AHEP      H5            -14.2956657551      -34.0797273693       31.6031509785  LPSA27    5               3.0000000000
     29241       941  AHEP      O5            -12.2362515799      -33.9437265419       31.3013865768  LPSA27    5               3.0000000000
     29242       941  AHEP      C2            -12.0001721296      -35.6448608558       32.9718957084  LPSA27    5               3.0000000000
     29243       941  AHEP      H2            -11.9700595899      -36.7755524826       33.0921707216  LPSA27    5               3.0000000000
     29244       941  AHEP      O2            -10.7909754903      -35.1027978638       33.4691025827  LPSA27    5               3.0000000000
     29245       941  AHEP      HO2           -10.1648859216      -35.7991386064       33.6403503244  LPSA27    5               3.0000000000
     29246       941  AHEP      C3            -13.2635299195      -35.1416057546       33.7004304811  LPSA27    5               3.0000000000
     29247       941  AHEP      H3            -14.1548404541      -35.6652768027       33.3375632548  LPSA27    5               3.0000000000
     29248       941  AHEP      O3            -13.2787306026      -35.3097604822       35.1462238331  LPSA27    5               3.0000000000
     29249       941  AHEP      C4            -13.3445941824      -33.6745170615       33.4524658705  LPSA27    5               3.0000000000
     29250       941  AHEP      H4            -12.4396206126      -33.1312796545       33.8188816395  LPSA27    5               3.0000000000
     29251       941  AHEP      O4            -14.5632374008      -33.1758271073       34.0881196202  LPSA27    5               3.0000000000
     29252       941  AHEP      P4            -14.4846871551      -32.1208810199       35.2810123301  LPSA27    5               3.0000000000
     29253       941  AHEP      OP42          -15.8910764167      -32.0075895796       35.8202965042  LPSA27    5               3.0000000000
     29254       941  AHEP      OP43          -14.0108555180      -30.8041550152       34.6107506294  LPSA27    5               3.0000000000
     29255       941  AHEP      OP44          -13.4420766729      -32.6283302446       36.2417033353  LPSA27    5               3.0000000000
     29256       941  AHEP      C6            -13.7011861851      -31.9689260980       31.5493607386  LPSA27    5               3.0000000000
     29257       941  AHEP      H6            -14.6699519240      -31.6304582425       31.9533288164  LPSA27    5               3.0000000000
     29258       941  AHEP      O6            -12.6686450169      -31.1222743251       32.0428602265  LPSA27    5               3.0000000000
     29259       941  AHEP      HO6           -11.8133813097      -31.1316711255       31.5367188277  LPSA27    5               3.0000000000
     29260       941  AHEP      C7            -13.9437370635      -31.8526029566       30.0822725317  LPSA27    5               3.0000000000
     29261       941  AHEP      H71           -14.6896069225      -31.0444452340       29.9169108581  LPSA27    5               3.0000000000
     29262       941  AHEP      H72           -14.3536011736      -32.7691654323       29.6179339851  LPSA27    5               3.0000000000
     29263       941  AHEP      O7            -12.7132254203      -31.3784366000       29.4957736452  LPSA27    5               3.0000000000
     29264       942  AHEP      C1            -12.0069790350      -32.3558476090       28.7926622005  LPSA27    6               4.0000000000
     29265       942  AHEP      H1            -12.4127359774      -33.3971381931       29.0422981953  LPSA27    6               4.0000000000
     29266       942  AHEP      C5            -11.6321061991      -30.9192970812       26.9237617191  LPSA27    6               4.0000000000
     29267       942  AHEP      H5            -12.1459948627      -30.1243010963       27.4818042043  LPSA27    6               4.0000000000
     29268       942  AHEP      O5            -12.1099135102      -32.2034196837       27.3547530115  LPSA27    6               4.0000000000
     29269       942  AHEP      C2            -10.5716291792      -32.3314004256       29.2397872647  LPSA27    6               4.0000000000
     29270       942  AHEP      H2            -10.5682718744      -32.5407985579       30.3523091474  LPSA27    6               4.0000000000
     29271       942  AHEP      O2             -9.8291747119      -33.4073049616       28.7267108980  LPSA27    6               4.0000000000
     29272       942  AHEP      HO2            -9.6868368407      -33.9642641175       29.4669064354  LPSA27    6               4.0000000000
     29273       942  AHEP      C3             -9.9762815280      -30.9560637790       28.8468391403  LPSA27    6               4.0000000000
     29274       942  AHEP      H3            -10.5142306414      -30.1992579960       29.4311808254  LPSA27    6               4.0000000000
     29275       942  AHEP      O3             -8.5219281675      -30.7974527972       29.2225362108  LPSA27    6               4.0000000000
     29276       942  AHEP      HO3            -8.3366445212      -30.3218271751       29.9865592523  LPSA27    6               4.0000000000
     29277       942  AHEP      C4            -10.1461281886      -30.8235512053       27.2761740859  LPSA27    6               4.0000000000
     29278       942  AHEP      H4             -9.4783357368      -31.5238251213       26.7944950683  LPSA27    6               4.0000000000
     29279       942  AHEP      O4             -9.6520159226      -29.5649170964       26.7938835778  LPSA27    6               4.0000000000
     29280       942  AHEP      HO4           -10.3561917127      -28.9028089963       27.1589530594  LPSA27    6               4.0000000000
     29281       942  AHEP      C6            -11.9540936131      -30.6167044998       25.4906533340  LPSA27    6               4.0000000000
     29282       942  AHEP      H6            -11.6309986275      -29.5918651363       25.3442628137  LPSA27    6               4.0000000000
     29283       942  AHEP      O6            -11.0960297184      -31.3768265844       24.6375675438  LPSA27    6               4.0000000000
     29284       942  AHEP      HO6           -11.6030420843      -31.8851597040       23.9977784313  LPSA27    6               4.0000000000
     29285       942  AHEP      C7            -13.4217754721      -30.6633345110       25.1799756221  LPSA27    6               4.0000000000
     29286       942  AHEP      H71           -13.5564047161      -30.2577607086       24.1408078076  LPSA27    6               4.0000000000
     29287       942  AHEP      H72           -13.9100430136      -30.0103182934       25.9252229174  LPSA27    6               4.0000000000
     29288       942  AHEP      O7            -13.9802240851      -31.9418635712       25.2517430265  LPSA27    6               4.0000000000
     29289       942  AHEP      HO7           -14.1888222002      -32.0588807138       26.2011285002  LPSA27    6               4.0000000000
     29290       943  AGLC      C1            -13.7721565614      -36.5417437431       35.6520976122  LPSA27    7               4.0000000000
     29291       943  AGLC      H1            -14.8070367678      -36.7373701304       35.2047739589  LPSA27    7               4.0000000000
     29292       943  AGLC      C5            -11.6836091418      -37.5430998016       36.0987679218  LPSA27    7               4.0000000000
     29293       943  AGLC      H5            -11.1488376561      -36.6199809220       35.8327124756  LPSA27    7               4.0000000000
     29294       943  AGLC      O5            -12.9025717563      -37.6155570465       35.4366254460  LPSA27    7               4.0000000000
     29295       943  AGLC      C2            -13.9772805151      -36.4815315224       37.1582745954  LPSA27    7               4.0000000000
     29296       943  AGLC      H2            -14.3061994156      -37.5316273034       37.4887389927  LPSA27    7               4.0000000000
     29297       943  AGLC      O2            -15.1331505474      -35.6931233610       37.5024056006  LPSA27    7               4.0000000000
     29298       943  AGLC      HO2           -14.8006550352      -34.8094879654       37.6430208865  LPSA27    7               4.0000000000
     29299       943  AGLC      C3            -12.7968733564      -36.3609066286       37.9903802326  LPSA27    7               4.0000000000
     29300       943  AGLC      H3            -12.3472327636      -35.4192977263       37.6727250444  LPSA27    7               4.0000000000
     29301       943  AGLC      O3            -13.0014903241      -36.1734702549       39.4204481292  LPSA27    7               4.0000000000
     29302       943  AGLC      C4            -11.9649584626      -37.5452076582       37.5928595998  LPSA27    7               4.0000000000
     29303       943  AGLC      H4            -12.4588773525      -38.5202870448       37.9560286200  LPSA27    7               4.0000000000
     29304       943  AGLC      O4            -10.6847293481      -37.3282860570       38.2243117391  LPSA27    7               4.0000000000
     29305       943  AGLC      HO4           -10.3219331822      -38.0950714048       38.6132003238  LPSA27    7               4.0000000000
     29306       943  AGLC      C6            -10.7112435885      -38.6037490955       35.5245160098  LPSA27    7               4.0000000000
     29307       943  AGLC      H61           -10.7098192765      -38.4624751885       34.4135318240  LPSA27    7               4.0000000000
     29308       943  AGLC      H62            -9.6561984381      -38.5860106901       35.8722646349  LPSA27    7               4.0000000000
     29309       943  AGLC      O6            -11.3384458696      -39.9119233820       35.6892983147  LPSA27    7               4.0000000000
     29310       943  AGLC      HO6           -10.8875041800      -40.1963719737       36.4386090630  LPSA27    7               4.0000000000
     29311       944  AGLC      C1            -12.6123590079      -34.9487541980       39.9328324507  LPSA27    8               5.0000000000
     29312       944  AGLC      H1            -11.5930238441      -34.7014664637       39.5884769495  LPSA27    8               5.0000000000
     29313       944  AGLC      C5            -14.8436751880      -33.8973752062       40.2153373402  LPSA27    8               5.0000000000
     29314       944  AGLC      H5            -15.2972211638      -34.8227279978       39.8400606936  LPSA27    8               5.0000000000
     29315       944  AGLC      O5            -13.5188286607      -33.8365426055       39.6195505863  LPSA27    8               5.0000000000
     29316       944  AGLC      C2            -12.5176631226      -34.9996908809       41.4170311384  LPSA27    8               5.0000000000
     29317       944  AGLC      H2            -12.0365596233      -34.0236325636       41.6529594578  LPSA27    8               5.0000000000
     29318       944  AGLC      O2            -11.5649259302      -35.9160124765       41.9438754185  LPSA27    8               5.0000000000
     29319       944  AGLC      C3            -13.8166343527      -35.1144874032       42.1297388169  LPSA27    8               5.0000000000
     29320       944  AGLC      H3            -14.1821088446      -36.0771354048       41.6567950186  LPSA27    8               5.0000000000
     29321       944  AGLC      O3            -13.5970223039      -35.2672328534       43.5370978028  LPSA27    8               5.0000000000
     29322       944  AGLC      C4            -14.6179428122      -33.9562479657       41.7603093222  LPSA27    8               5.0000000000
     29323       944  AGLC      H4            -14.1240130721      -33.0442050544       42.0401368658  LPSA27    8               5.0000000000
     29324       944  AGLC      O4            -15.8762922144      -33.9911604366       42.3914819843  LPSA27    8               5.0000000000
     29325       944  AGLC      HO4           -16.1809716677      -34.8653630883       42.3800652601  LPSA27    8               5.0000000000
     29326       944  AGLC      C6            -15.8603769662      -32.8346447243       39.7357334439  LPSA27    8               5.0000000000
     29327       944  AGLC      H61           -15.8700604579      -32.6813728087       38.6468043611  LPSA27    8               5.0000000000
     29328       944  AGLC      H62           -16.8777167617      -33.0177255764       40.0276014644  LPSA27    8               5.0000000000
     29329       944  AGLC      O6            -15.6757928797      -31.5716670946       40.3040784562  LPSA27    8               5.0000000000
     29330       944  AGLC      HO6           -16.0327919376      -31.5155549370       41.2121845210  LPSA27    8               5.0000000000
     29331       945  AGAL      C1            -10.2569305086      -35.9041920983       41.4573847493  LPSA27    9               6.0000000000
     29332       945  AGAL      H1            -10.2616739181      -35.8563459910       40.3420235153  LPSA27    9               6.0000000000
     29333       945  AGAL      C5             -9.1578442071      -34.8325667750       43.2125447641  LPSA27    9               6.0000000000
     29334       945  AGAL      H5            -10.1745715026      -35.0066449500       43.7424973645  LPSA27    9               6.0000000000
     29335       945  AGAL      O5             -9.3883449775      -34.7951526525       41.8451689838  LPSA27    9               6.0000000000
     29336       945  AGAL      C2             -9.6021829232      -37.2051971752       41.8393925249  LPSA27    9               6.0000000000
     29337       945  AGAL      H2             -8.6105361811      -37.2414350651       41.4115621152  LPSA27    9               6.0000000000
     29338       945  AGAL      O2            -10.1947486117      -38.3286440493       41.1608705954  LPSA27    9               6.0000000000
     29339       945  AGAL      C3             -9.3336432210      -37.2838573813       43.3264191845  LPSA27    9               6.0000000000
     29340       945  AGAL      H3            -10.3345112151      -37.2998731757       43.9424563891  LPSA27    9               6.0000000000
     29341       945  AGAL      O3             -8.8153061262      -38.5090409416       43.7491515633  LPSA27    9               6.0000000000
     29342       945  AGAL      HO3            -9.1973899550      -39.1747508522       43.1585960960  LPSA27    9               6.0000000000
     29343       945  AGAL      C4             -8.4680135178      -36.1330927202       43.6505755014  LPSA27    9               6.0000000000
     29344       945  AGAL      H4             -8.2817079014      -36.0204023507       44.7734818408  LPSA27    9               6.0000000000
     29345       945  AGAL      O4             -7.2099366248      -36.1518132807       43.0499075873  LPSA27    9               6.0000000000
     29346       945  AGAL      HO4            -6.6074630490      -35.7017970047       43.6622427513  LPSA27    9               6.0000000000
     29347       945  AGAL      C6             -8.6913581199      -33.5157549297       43.8349081587  LPSA27    9               6.0000000000
     29348       945  AGAL      H61            -9.3860036781      -32.6580343586       43.6417203355  LPSA27    9               6.0000000000
     29349       945  AGAL      H62            -8.6160985285      -33.5265814345       44.9292747136  LPSA27    9               6.0000000000
     29350       945  AGAL      O6             -7.4074723372      -33.1751393377       43.4062227539  LPSA27    9               6.0000000000
     29351       945  AGAL      HO6            -7.5122608036      -32.5193789451       42.6923548993  LPSA27    9               6.0000000000
     29352       946  AGAL      C1            -10.6353004181      -39.5738438225       41.7517281777  LPSA27    10              7.0000000000
     29353       946  AGAL      H1             -9.7033530236      -40.1478387692       41.8429972083  LPSA27    10              7.0000000000
     29354       946  AGAL      C5            -12.5597213552      -38.9639839534       43.0613392294  LPSA27    10              7.0000000000
     29355       946  AGAL      H5            -12.3864913354      -37.8837909105       42.6233508762  LPSA27    10              7.0000000000
     29356       946  AGAL      O5            -11.2923988903      -39.6485867269       43.0470213554  LPSA27    10              7.0000000000
     29357       946  AGAL      C2            -11.5745714396      -40.2294422017       40.7227968417  LPSA27    10              7.0000000000
     29358       946  AGAL      H2            -11.6386909809      -41.3407500970       41.0433947026  LPSA27    10              7.0000000000
     29359       946  AGAL      O2            -10.9551466619      -40.5476634238       39.5532095562  LPSA27    10              7.0000000000
     29360       946  AGAL      HO2           -11.0781200636      -41.4641894438       39.3379401176  LPSA27    10              7.0000000000
     29361       946  AGAL      C3            -12.9108071126      -39.5778348060       40.6928251787  LPSA27    10              7.0000000000
     29362       946  AGAL      H3            -12.6768919701      -38.5392540111       40.4679648945  LPSA27    10              7.0000000000
     29363       946  AGAL      O3            -13.8158910467      -40.1109377829       39.7732034444  LPSA27    10              7.0000000000
     29364       946  AGAL      HO3           -13.8812542208      -39.4790740399       39.0151094934  LPSA27    10              7.0000000000
     29365       946  AGAL      C4            -13.5175919736      -39.6476502350       42.0524071915  LPSA27    10              7.0000000000
     29366       946  AGAL      H4            -14.4673490200      -39.0816142439       42.1099272557  LPSA27    10              7.0000000000
     29367       946  AGAL      O4            -13.7876641083      -40.9453740067       42.4965010455  LPSA27    10              7.0000000000
     29368       946  AGAL      HO4           -12.9370353460      -41.3398487883       42.5675127347  LPSA27    10              7.0000000000
     29369       946  AGAL      C6            -13.1937461476      -38.7350755949       44.3959537205  LPSA27    10              7.0000000000
     29370       946  AGAL      H61           -12.5091863375      -38.2787659581       45.1044438806  LPSA27    10              7.0000000000
     29371       946  AGAL      H62           -14.0475068695      -37.9107114375       44.2564473849  LPSA27    10              7.0000000000
     29372       946  AGAL      O6            -13.8058612176      -39.8290825381       45.1112340130  LPSA27    10              7.0000000000
     29373       946  AGAL      HO6           -13.2894577279      -39.9799473250       45.9237589285  LPSA27    10              7.0000000000
     29374       947  BGLC      C1            -13.5974825412      -34.2305192180       44.5018065681  LPSA27    11              6.0000000000
     29375       947  BGLC      H1            -14.6491338490      -34.0006567387       44.5883763758  LPSA27    11              6.0000000000
     29376       947  BGLC      C5            -12.6808126549      -31.9833230953       45.1248117688  LPSA27    11              6.0000000000
     29377       947  BGLC      H5            -13.7072551633      -31.5462993928       45.3871201921  LPSA27    11              6.0000000000
     29378       947  BGLC      O5            -12.7381484162      -33.0964639893       44.0830650888  LPSA27    11              6.0000000000
     29379       947  BGLC      C2            -13.0418157478      -34.7637820611       45.7977571702  LPSA27    11              6.0000000000
     29380       947  BGLC      H2            -12.0161131130      -35.2064098112       45.7293388291  LPSA27    11              6.0000000000
     29381       947  BGLC      O2            -13.8465159862      -35.8972355269       46.0886391483  LPSA27    11              6.0000000000
     29382       947  BGLC      HO2           -13.2869061336      -36.6253990242       46.2788110113  LPSA27    11              6.0000000000
     29383       947  BGLC      C3            -12.9482019711      -33.7631472883       46.8736276645  LPSA27    11              6.0000000000
     29384       947  BGLC      H3            -14.0337676469      -33.4695397091       47.1984917368  LPSA27    11              6.0000000000
     29385       947  BGLC      O3            -12.3667045452      -34.3997250466       48.0056213318  LPSA27    11              6.0000000000
     29386       947  BGLC      C4            -12.1520211576      -32.6342720698       46.4390836423  LPSA27    11              6.0000000000
     29387       947  BGLC      H4            -11.1174138965      -33.0549094373       46.2001611147  LPSA27    11              6.0000000000
     29388       947  BGLC      O4            -11.9586169813      -31.6872429508       47.4766894645  LPSA27    11              6.0000000000
     29389       947  BGLC      HO4           -11.3569222582      -32.0723541338       48.1247908570  LPSA27    11              6.0000000000
     29390       947  BGLC      C6            -11.9358178019      -30.7762437543       44.5291127165  LPSA27    11              6.0000000000
     29391       947  BGLC      H61           -11.5510412684      -30.0658096217       45.2481190913  LPSA27    11              6.0000000000
     29392       947  BGLC      H62           -11.1143761604      -31.1883244929       43.8913252379  LPSA27    11              6.0000000000
     29393       947  BGLC      O6            -12.7019232506      -30.0053876407       43.5637942269  LPSA27    11              6.0000000000
     29394       947  BGLC      HO6           -12.8364455151      -29.2002093627       44.0054369298  LPSA27    11              6.0000000000
     29395       948  BGLCNA    C1            -12.9589207274      -34.3488312242       49.3238540420  LPSA27    12              7.0000000000
     29396       948  BGLCNA    H1            -13.7136603855      -35.2035553422       49.3874222992  LPSA27    12              7.0000000000
     29397       948  BGLCNA    C5            -14.3054237514      -33.1146142597       50.8763077070  LPSA27    12              7.0000000000
     29398       948  BGLCNA    H5            -15.0868779575      -33.9940674394       50.9814236466  LPSA27    12              7.0000000000
     29399       948  BGLCNA    O5            -13.6394839107      -33.1014756896       49.5875345322  LPSA27    12              7.0000000000
     29400       948  BGLCNA    C2            -11.8647102805      -34.5195222667       50.3245054808  LPSA27    12              7.0000000000
     29401       948  BGLCNA    H2            -11.2687431118      -33.5105782968       50.3375086743  LPSA27    12              7.0000000000
     29402       948  BGLCNA    N             -11.0857581138      -35.7391768422       50.0347611965  LPSA27    12              7.0000000000
     29403       948  BGLCNA    HN            -11.6845864692      -36.4689223639       49.9972643287  LPSA27    12              7.0000000000
     29404       948  BGLCNA    C              -9.7962915623      -35.6919338598       49.8903426450  LPSA27    12              7.0000000000
     29405       948  BGLCNA    O              -9.1993916184      -34.6425693554       50.0855928044  LPSA27    12              7.0000000000
     29406       948  BGLCNA    CT             -9.1039759798      -36.9811277638       49.5677689528  LPSA27    12              7.0000000000
     29407       948  BGLCNA    HT1            -8.4522311405      -37.3230864283       50.3918503408  LPSA27    12              7.0000000000
     29408       948  BGLCNA    HT2            -8.3130640599      -36.8047432582       48.7104760971  LPSA27    12              7.0000000000
     29409       948  BGLCNA    HT3            -9.8975664208      -37.6934854333       49.2316245990  LPSA27    12              7.0000000000
     29410       948  BGLCNA    C3            -12.4127187177      -34.5721517479       51.6995695120  LPSA27    12              7.0000000000
     29411       948  BGLCNA    H3            -13.0917164193      -35.5310029175       51.8605307917  LPSA27    12              7.0000000000
     29412       948  BGLCNA    O3            -11.4070711706      -34.7872963031       52.7272334264  LPSA27    12              7.0000000000
     29413       948  BGLCNA    C4            -13.1735531383      -33.3110757603       51.9591692987  LPSA27    12              7.0000000000
     29414       948  BGLCNA    H4            -12.5364623732      -32.3490304654       51.9037868612  LPSA27    12              7.0000000000
     29415       948  BGLCNA    O4            -13.7346630240      -33.2937669955       53.2294962294  LPSA27    12              7.0000000000
     29416       948  BGLCNA    HO4           -14.5431265243      -33.8826505292       53.2834945119  LPSA27    12              7.0000000000
     29417       948  BGLCNA    C6            -15.1490548611      -31.8259041955       50.9528560558  LPSA27    12              7.0000000000
     29418       948  BGLCNA    H61           -15.5979676907      -31.7306179215       51.9144325068  LPSA27    12              7.0000000000
     29419       948  BGLCNA    H62           -14.4098804721      -31.0421945493       50.8287962869  LPSA27    12              7.0000000000
     29420       948  BGLCNA    O6            -16.0289135956      -31.7489554207       49.8597561973  LPSA27    12              7.0000000000
     29421       948  BGLCNA    HO6           -16.8057570851      -32.1790193153       50.1903398796  LPSA27    12              7.0000000000
     29422       949  AGAL      C1            -11.7759646945      -35.6973117236       53.8132743488  LPSA27    13              8.0000000000
     29423       949  AGAL      H1            -12.7832209578      -35.4191143384       54.1959401301  LPSA27    13              8.0000000000
     29424       949  AGAL      C5            -10.1677870835      -37.4161391847       53.2950732168  LPSA27    13              8.0000000000
     29425       949  AGAL      H5             -9.8017584247      -36.6984162063       52.5641412600  LPSA27    13              8.0000000000
     29426       949  AGAL      O5            -11.5589495419      -37.1174669821       53.4918445955  LPSA27    13              8.0000000000
     29427       949  AGAL      C2            -10.9260536202      -35.5148364317       55.1010141246  LPSA27    13              8.0000000000
     29428       949  AGAL      H2            -11.1534285180      -36.3514994160       55.7917211299  LPSA27    13              8.0000000000
     29429       949  AGAL      O2            -11.2102425546      -34.3040221858       55.7701983428  LPSA27    13              8.0000000000
     29430       949  AGAL      C3             -9.4287028504      -35.8503233000       54.8979691660  LPSA27    13              8.0000000000
     29431       949  AGAL      H3             -9.0651082281      -35.2820421403       54.0477453328  LPSA27    13              8.0000000000
     29432       949  AGAL      O3             -8.6078659401      -35.4062633820       55.9888739531  LPSA27    13              8.0000000000
     29433       949  AGAL      HO3            -7.7804021722      -35.0474596922       55.6848713412  LPSA27    13              8.0000000000
     29434       949  AGAL      C4             -9.2741952996      -37.2190651471       54.5514025965  LPSA27    13              8.0000000000
     29435       949  AGAL      H4             -8.1967125960      -37.4397496981       54.1954731349  LPSA27    13              8.0000000000
     29436       949  AGAL      O4             -9.6513609842      -38.1146822877       55.5743212917  LPSA27    13              8.0000000000
     29437       949  AGAL      HO4           -10.4720123110      -37.9182438869       56.0499681296  LPSA27    13              8.0000000000
     29438       949  AGAL      C6             -9.8765480892      -38.6923553667       52.5301443486  LPSA27    13              8.0000000000
     29439       949  AGAL      H61           -10.4991107703      -38.7295150229       51.6253596531  LPSA27    13              8.0000000000
     29440       949  AGAL      H62            -8.7716578428      -38.7556140740       52.3684678279  LPSA27    13              8.0000000000
     29441       949  AGAL      O6            -10.1965904739      -39.8338819913       53.2985910507  LPSA27    13              8.0000000000
     29442       949  AGAL      HO6            -9.4773700321      -39.9915729473       53.9299633642  LPSA27    13              8.0000000000
     29443       950  ARHM      C1            -11.8561735588      -34.3182811119       57.0117786358  LPSA27    14              9.0000000000
     29444       950  ARHM      H1            -12.4679553578      -35.2441000809       56.9981767125  LPSA27    14              9.0000000000
     29445       950  ARHM      C5            -12.0602838980      -32.0064263754       57.1930138837  LPSA27    14              9.0000000000
     29446       950  ARHM      H5            -11.4811649244      -31.9324066733       56.1976867078  LPSA27    14              9.0000000000
     29447       950  ARHM      O5            -12.7295097391      -33.2116891563       57.1718909996  LPSA27    14              9.0000000000
     29448       950  ARHM      C2            -10.8028520923      -34.3314329102       58.1413490634  LPSA27    14              9.0000000000
     29449       950  ARHM      H2            -10.1575940322      -35.1629401486       57.8875987320  LPSA27    14              9.0000000000
     29450       950  ARHM      O2            -11.3161337543      -34.4516695665       59.4330148990  LPSA27    14              9.0000000000
     29451       950  ARHM      C3            -10.0360262695      -33.0410867789       58.1095432995  LPSA27    14              9.0000000000
     29452       950  ARHM      H3             -9.7042975461      -32.8645468422       57.0440121713  LPSA27    14              9.0000000000
     29453       950  ARHM      O3             -8.8587327941      -33.0387754700       58.8567888868  LPSA27    14              9.0000000000
     29454       950  ARHM      HO3            -9.1584633909      -32.9851483331       59.8104957846  LPSA27    14              9.0000000000
     29455       950  ARHM      C4            -11.0185038863      -31.9525969651       58.3490442956  LPSA27    14              9.0000000000
     29456       950  ARHM      H4            -11.6136525282      -32.0141649837       59.2902338481  LPSA27    14              9.0000000000
     29457       950  ARHM      O4            -10.3100766678      -30.6862171417       58.4446785014  LPSA27    14              9.0000000000
     29458       950  ARHM      HO4           -10.3155239991      -30.2536913979       59.2969967688  LPSA27    14              9.0000000000
     29459       950  ARHM      C6            -13.0708182079      -30.8482739252       57.2492155848  LPSA27    14              9.0000000000
     29460       950  ARHM      H61           -13.9624821424      -30.9559201681       56.5358243550  LPSA27    14              9.0000000000
     29461       950  ARHM      H62           -13.3555251779      -30.7556692628       58.3170764683  LPSA27    14              9.0000000000
     29462       950  ARHM      H63           -12.7612679824      -29.8464346207       56.9421594120  LPSA27    14              9.0000000000
     29463       951  ARHM      C1            -12.1847707753      -35.4296287281       59.7267990175  LPSA27    15             10.0000000000
     29464       951  ARHM      H1            -12.0597244506      -36.2990872022       59.0458905905  LPSA27    15             10.0000000000
     29465       951  ARHM      C5            -14.0094401419      -34.0184424871       60.6468530148  LPSA27    15             10.0000000000
     29466       951  ARHM      H5            -13.5240636879      -33.0119178182       60.4457705401  LPSA27    15             10.0000000000
     29467       951  ARHM      O5            -13.5719708910      -35.0125766751       59.6688136410  LPSA27    15             10.0000000000
     29468       951  ARHM      C2            -11.9176378343      -35.9412025400       61.1407671534  LPSA27    15             10.0000000000
     29469       951  ARHM      H2            -10.7855809574      -36.1629366375       61.2133420761  LPSA27    15             10.0000000000
     29470       951  ARHM      O2            -12.7289105511      -37.1392622294       61.3234079317  LPSA27    15             10.0000000000
     29471       951  ARHM      C3            -12.2608107380      -34.8611810685       62.1677656617  LPSA27    15             10.0000000000
     29472       951  ARHM      H3            -11.6872167027      -33.9420262838       61.8628392879  LPSA27    15             10.0000000000
     29473       951  ARHM      O3            -11.6497591081      -35.3035421880       63.4092175029  LPSA27    15             10.0000000000
     29474       951  ARHM      C4            -13.6738739392      -34.5480266840       62.0487117432  LPSA27    15             10.0000000000
     29475       951  ARHM      H4            -14.2742695561      -35.5389511852       62.1496903561  LPSA27    15             10.0000000000
     29476       951  ARHM      O4            -14.2287284622      -33.5991114913       62.9635513464  LPSA27    15             10.0000000000
     29477       951  ARHM      HO4           -15.1684926311      -33.7015900990       62.9565205260  LPSA27    15             10.0000000000
     29478       951  ARHM      C6            -15.4807904556      -33.7370117564       60.4460959132  LPSA27    15             10.0000000000
     29479       951  ARHM      H61           -15.8926042415      -32.9197843707       61.0956562646  LPSA27    15             10.0000000000
     29480       951  ARHM      H62           -15.6931298486      -33.6452825961       59.3910198679  LPSA27    15             10.0000000000
     29481       951  ARHM      H63           -16.1306005994      -34.5596343350       60.8578185328  LPSA27    15             10.0000000000
     29482       952  BMANNA    C1            -12.6048871714      -37.9001452919       62.5145562334  LPSA27    16             11.0000000000
     29483       952  BMANNA    H1            -13.1113026184      -37.2783022301       63.3432051365  LPSA27    16             11.0000000000
     29484       952  BMANNA    C5            -11.2684459976      -38.8760344009       64.1851548173  LPSA27    16             11.0000000000
     29485       952  BMANNA    H5            -11.7854397026      -38.3227165575       64.9800677769  LPSA27    16             11.0000000000
     29486       952  BMANNA    O5            -11.2671645911      -38.1713612777       62.9158851071  LPSA27    16             11.0000000000
     29487       952  BMANNA    C2            -13.3862367775      -39.2137341454       62.2781089586  LPSA27    16             11.0000000000
     29488       952  BMANNA    H2            -14.4164816434      -38.8756403148       61.9912908466  LPSA27    16             11.0000000000
     29489       952  BMANNA    N             -12.9199358520      -40.1219106731       61.2264456342  LPSA27    16             11.0000000000
     29490       952  BMANNA    HN            -12.2661030640      -40.7558660925       61.5688724990  LPSA27    16             11.0000000000
     29491       952  BMANNA    C             -13.2885724035      -40.0717364837       59.9704010620  LPSA27    16             11.0000000000
     29492       952  BMANNA    O             -14.1622483416      -39.2603712149       59.5582221915  LPSA27    16             11.0000000000
     29493       952  BMANNA    CT            -12.6102618765      -41.0475273218       59.1331689300  LPSA27    16             11.0000000000
     29494       952  BMANNA    HT1           -13.1967987201      -41.9021911895       58.8344492748  LPSA27    16             11.0000000000
     29495       952  BMANNA    HT2           -11.6666136829      -41.4461486099       59.5043001239  LPSA27    16             11.0000000000
     29496       952  BMANNA    HT3           -12.3392584603      -40.5992735547       58.1231520073  LPSA27    16             11.0000000000
     29497       952  BMANNA    C3            -13.4151554372      -39.9170929404       63.6119771117  LPSA27    16             11.0000000000
     29498       952  BMANNA    H3            -13.8975238159      -39.2623619197       64.3839812837  LPSA27    16             11.0000000000
     29499       952  BMANNA    O3            -14.1832842547      -41.0858396593       63.6122488842  LPSA27    16             11.0000000000
     29500       952  BMANNA    HO3           -14.8403890609      -41.0567790592       64.2950500102  LPSA27    16             11.0000000000
     29501       952  BMANNA    C4            -11.9968201564      -40.2315700736       64.1045846713  LPSA27    16             11.0000000000
     29502       952  BMANNA    H4            -11.4564493175      -40.9051709004       63.4124605202  LPSA27    16             11.0000000000
     29503       952  BMANNA    O4            -11.8753378532      -40.8840176428       65.3816866120  LPSA27    16             11.0000000000
     29504       952  BMANNA    HO4           -11.0469798639      -41.3585712116       65.4353184152  LPSA27    16             11.0000000000
     29505       952  BMANNA    C6             -9.8537683830      -39.0792043745       64.7427751243  LPSA27    16             11.0000000000
     29506       952  BMANNA    H61            -9.9419854680      -39.0890061074       65.8875394407  LPSA27    16             11.0000000000
     29507       952  BMANNA    H62            -9.4411589285      -40.0436218439       64.4389269682  LPSA27    16             11.0000000000
     29508       952  BMANNA    O6             -8.9159703949      -38.0512917103       64.3660927576  LPSA27    16             11.0000000000
     29509       952  BMANNA    HO6            -8.2253118423      -38.5756808384       63.9036969990  LPSA27    16             11.0000000000
     29510       953  BGLCNA    C1            -11.1129591996      -34.3315364354       64.1715778089  LPSA27    17             11.0000000000
     29511       953  BGLCNA    H1            -11.6453870562      -33.3301885136       63.9082176002  LPSA27    17             11.0000000000
     29512       953  BGLCNA    C5             -9.0790809195      -33.0327336420       64.5563394407  LPSA27    17             11.0000000000
     29513       953  BGLCNA    H5             -9.5639788135      -32.0220985999       64.2825289487  LPSA27    17             11.0000000000
     29514       953  BGLCNA    O5             -9.7371341597      -34.0490727213       63.7849982893  LPSA27    17             11.0000000000
     29515       953  BGLCNA    C2            -11.2148491382      -34.7585004022       65.5899343931  LPSA27    17             11.0000000000
     29516       953  BGLCNA    H2            -10.6607328682      -35.7291601049       65.8249043900  LPSA27    17             11.0000000000
     29517       953  BGLCNA    N             -12.5420772547      -35.1206112819       65.8849826081  LPSA27    17             11.0000000000
     29518       953  BGLCNA    HN            -13.2956009408      -34.6234709997       65.4150135415  LPSA27    17             11.0000000000
     29519       953  BGLCNA    C             -13.0153355181      -35.9429408150       66.8043620798  LPSA27    17             11.0000000000
     29520       953  BGLCNA    O             -12.2796259257      -36.6591438375       67.4729873017  LPSA27    17             11.0000000000
     29521       953  BGLCNA    CT            -14.4870913742      -35.9551748687       66.9728872304  LPSA27    17             11.0000000000
     29522       953  BGLCNA    HT1           -15.0833641393      -36.7853728627       66.5529393721  LPSA27    17             11.0000000000
     29523       953  BGLCNA    HT2           -14.8595671978      -34.9477131922       66.7043805047  LPSA27    17             11.0000000000
     29524       953  BGLCNA    HT3           -14.7587568031      -35.9895055530       68.1408097225  LPSA27    17             11.0000000000
     29525       953  BGLCNA    C3            -10.6280677429      -33.6297379343       66.4076579941  LPSA27    17             11.0000000000
     29526       953  BGLCNA    H3            -11.2473454689      -32.7424529504       66.0441361901  LPSA27    17             11.0000000000
     29527       953  BGLCNA    O3            -10.9564069218      -33.8898268848       67.8205355914  LPSA27    17             11.0000000000
     29528       953  BGLCNA    C4             -9.1562251595      -33.4780372803       66.0496966154  LPSA27    17             11.0000000000
     29529       953  BGLCNA    H4             -8.6028435147      -34.4796810911       66.1123142204  LPSA27    17             11.0000000000
     29530       953  BGLCNA    O4             -8.4771691934      -32.5943408736       66.9186044206  LPSA27    17             11.0000000000
     29531       953  BGLCNA    HO4            -7.5622022785      -32.4349350641       66.7204061560  LPSA27    17             11.0000000000
     29532       953  BGLCNA    C6             -7.6046817122      -32.9258273394       64.1200051697  LPSA27    17             11.0000000000
     29533       953  BGLCNA    H61            -7.2927444598      -31.8996109229       64.1272946536  LPSA27    17             11.0000000000
     29534       953  BGLCNA    H62            -6.9249596186      -33.5013566577       64.8212395067  LPSA27    17             11.0000000000
     29535       953  BGLCNA    O6             -7.3879558987      -33.4239651789       62.7926115083  LPSA27    17             11.0000000000
     29536       953  BGLCNA    HO6            -7.9258355795      -32.9280157965       62.1856770532  LPSA27    17             11.0000000000
     29537       954  AGAL      C1            -11.2427815439      -32.7139144634       68.6198653987  LPSA27    18             12.0000000000
     29538       954  AGAL      H1            -10.2581200456      -32.1920620303       68.8082567594  LPSA27    18             12.0000000000
     29539       954  AGAL      C5            -13.4965066603      -32.3726826606       67.8636918791  LPSA27    18             12.0000000000
     29540       954  AGAL      H5            -13.4181690097      -33.3632809691       67.4068928888  LPSA27    18             12.0000000000
     29541       954  AGAL      O5            -12.1342106735      -31.8246557422       67.9834320655  LPSA27    18             12.0000000000
     29542       954  AGAL      C2            -11.9063326147      -33.0868272769       70.0000206359  LPSA27    18             12.0000000000
     29543       954  AGAL      H2            -12.0508689286      -32.0533467546       70.3908489884  LPSA27    18             12.0000000000
     29544       954  AGAL      O2            -10.9788731373      -33.6976492691       70.8342757016  LPSA27    18             12.0000000000
     29545       954  AGAL      C3            -13.2672001386      -33.6767309533       69.8682924558  LPSA27    18             12.0000000000
     29546       954  AGAL      H3            -13.2125926266      -34.5471928597       69.0958348126  LPSA27    18             12.0000000000
     29547       954  AGAL      O3            -13.7554602111      -34.1783716221       71.0758896640  LPSA27    18             12.0000000000
     29548       954  AGAL      HO3           -14.1358790514      -35.0518869538       70.9682873819  LPSA27    18             12.0000000000
     29549       954  AGAL      C4            -14.1380740680      -32.7174477106       69.1634745928  LPSA27    18             12.0000000000
     29550       954  AGAL      H4            -15.1584665053      -33.0855173268       68.9039691178  LPSA27    18             12.0000000000
     29551       954  AGAL      O4            -14.3521118102      -31.5318986571       69.9734134928  LPSA27    18             12.0000000000
     29552       954  AGAL      HO4           -15.0046680451      -31.7573381207       70.7236544006  LPSA27    18             12.0000000000
     29553       954  AGAL      C6            -14.1770310897      -31.6263844808       66.8042742825  LPSA27    18             12.0000000000
     29554       954  AGAL      H61           -13.6104060563      -31.7982457536       65.8877991861  LPSA27    18             12.0000000000
     29555       954  AGAL      H62           -15.1716809986      -32.1262404556       66.6499463921  LPSA27    18             12.0000000000
     29556       954  AGAL      O6            -14.2762359226      -30.3067297399       66.9803033045  LPSA27    18             12.0000000000
     29557       954  AGAL      HO6           -13.7541709643      -29.9110824178       67.6707071977  LPSA27    18             12.0000000000
     29558       955  ARHM      C1            -11.1010729604      -33.1710062420       72.1803514454  LPSA27    19             13.0000000000
     29559       955  ARHM      H1            -12.0587225659      -32.7106472713       72.3185909119  LPSA27    19             13.0000000000
     29560       955  ARHM      C5             -8.8752083502      -32.3562971137       72.2512180912  LPSA27    19             13.0000000000
     29561       955  ARHM      H5             -8.7621798435      -32.7632070539       71.2133247196  LPSA27    19             13.0000000000
     29562       955  ARHM      O5            -10.2573733946      -32.0348076779       72.4162684983  LPSA27    19             13.0000000000
     29563       955  ARHM      C2            -10.7975469441      -34.2870609525       73.1100514097  LPSA27    19             13.0000000000
     29564       955  ARHM      H2            -11.3288029140      -35.1883258225       72.9420985559  LPSA27    19             13.0000000000
     29565       955  ARHM      O2            -11.0449541057      -33.8863820496       74.4131644751  LPSA27    19             13.0000000000
     29566       955  ARHM      C3             -9.2765401380      -34.6115047255       72.9859276785  LPSA27    19             13.0000000000
     29567       955  ARHM      H3             -9.0923245052      -34.8733149266       71.9471750908  LPSA27    19             13.0000000000
     29568       955  ARHM      O3             -8.9317350571      -35.6998715912       73.7644258584  LPSA27    19             13.0000000000
     29569       955  ARHM      HO3            -9.2823782989      -35.5328840786       74.6464134549  LPSA27    19             13.0000000000
     29570       955  ARHM      C4             -8.4158775893      -33.4477074452       73.2443334127  LPSA27    19             13.0000000000
     29571       955  ARHM      H4             -8.6417067439      -33.1306101291       74.2703943704  LPSA27    19             13.0000000000
     29572       955  ARHM      O4             -7.0461020517      -33.6890635164       73.1708570575  LPSA27    19             13.0000000000
     29573       955  ARHM      HO4            -6.8649458563      -33.9232972321       72.2126258713  LPSA27    19             13.0000000000
     29574       955  ARHM      C6             -7.9964058623      -31.0935756355       72.3031700958  LPSA27    19             13.0000000000
     29575       955  ARHM      H61            -8.4445262681      -30.5047594933       71.5186681997  LPSA27    19             13.0000000000
     29576       955  ARHM      H62            -8.0219902797      -30.5178158422       73.2001761489  LPSA27    19             13.0000000000
     29577       955  ARHM      H63            -6.9419316000      -31.2876845138       72.0875448643  LPSA27    19             13.0000000000
     29578       956  ARHM      C1            -12.4048235217      -33.8651295603       74.6981797177  LPSA27    20             14.0000000000
     29579       956  ARHM      H1            -13.0312664730      -34.3720831025       73.8936196974  LPSA27    20             14.0000000000
     29580       956  ARHM      C5            -12.5038471024      -31.8528524931       75.9960310464  LPSA27    20             14.0000000000
     29581       956  ARHM      H5            -11.4004839420      -31.8165394403       75.8071112250  LPSA27    20             14.0000000000
     29582       956  ARHM      O5            -13.0127105041      -32.5846968311       74.8741575474  LPSA27    20             14.0000000000
     29583       956  ARHM      C2            -12.6790671861      -34.7044001728       75.9438944127  LPSA27    20             14.0000000000
     29584       956  ARHM      H2            -12.1064982878      -35.7115456563       75.7904987900  LPSA27    20             14.0000000000
     29585       956  ARHM      O2            -14.0834616944      -34.9166727700       76.2145535291  LPSA27    20             14.0000000000
     29586       956  ARHM      C3            -12.1431137014      -33.9369947909       77.0746584307  LPSA27    20             14.0000000000
     29587       956  ARHM      H3            -11.0055973097      -33.7914573844       76.9570890266  LPSA27    20             14.0000000000
     29588       956  ARHM      O3            -12.3136302284      -34.7777626684       78.2431898216  LPSA27    20             14.0000000000
     29589       956  ARHM      C4            -12.7770156725      -32.5936199440       77.2147849866  LPSA27    20             14.0000000000
     29590       956  ARHM      H4            -13.8440919914      -32.6394075168       77.2882629629  LPSA27    20             14.0000000000
     29591       956  ARHM      O4            -12.2953308374      -31.9729836506       78.4294019453  LPSA27    20             14.0000000000
     29592       956  ARHM      HO4           -12.3628809801      -31.1091098189       78.0714846557  LPSA27    20             14.0000000000
     29593       956  ARHM      C6            -13.0311058434      -30.4790062626       75.9818768401  LPSA27    20             14.0000000000
     29594       956  ARHM      H61           -14.1477597095      -30.3111667587       76.0487105533  LPSA27    20             14.0000000000
     29595       956  ARHM      H62           -12.5367089126      -29.8806081126       76.7492574554  LPSA27    20             14.0000000000
     29596       956  ARHM      H63           -12.8254199862      -29.9062950451       75.0059134709  LPSA27    20             14.0000000000
     29597       957  BMANNA    C1            -14.4596734393      -36.0041166670       75.4501725836  LPSA27    21             15.0000000000
     29598       957  BMANNA    H1            -13.6566968475      -36.2688462396       74.6495731600  LPSA27    21             15.0000000000
     29599       957  BMANNA    C5            -15.8163635148      -36.7834233040       73.6578092950  LPSA27    21             15.0000000000
     29600       957  BMANNA    H5            -14.8981499074      -37.1805932833       73.0422409194  LPSA27    21             15.0000000000
     29601       957  BMANNA    O5            -15.5590806474      -35.6420587641       74.5460975074  LPSA27    21             15.0000000000
     29602       957  BMANNA    C2            -14.8379548256      -37.1536965391       76.3268603500  LPSA27    21             15.0000000000
     29603       957  BMANNA    H2            -13.9043850180      -37.3233249737       76.8663433126  LPSA27    21             15.0000000000
     29604       957  BMANNA    N             -15.9054756241      -36.8041080098       77.2602735953  LPSA27    21             15.0000000000
     29605       957  BMANNA    HN            -16.7019736338      -36.4150173620       76.8630196157  LPSA27    21             15.0000000000
     29606       957  BMANNA    C             -15.9882408657      -37.2291914343       78.6142451918  LPSA27    21             15.0000000000
     29607       957  BMANNA    O             -15.2258617369      -38.1001929556       79.0340579138  LPSA27    21             15.0000000000
     29608       957  BMANNA    CT            -17.0866942495      -36.6182167336       79.5125915666  LPSA27    21             15.0000000000
     29609       957  BMANNA    HT1           -18.0438726710      -37.1503789552       79.3040814335  LPSA27    21             15.0000000000
     29610       957  BMANNA    HT2           -17.0791250956      -35.5319837352       79.3224353366  LPSA27    21             15.0000000000
     29611       957  BMANNA    HT3           -16.8364134035      -36.7864576741       80.6000991146  LPSA27    21             15.0000000000
     29612       957  BMANNA    C3            -15.1285053716      -38.3150346419       75.4428482744  LPSA27    21             15.0000000000
     29613       957  BMANNA    H3            -14.1523530742      -38.4811929573       75.0091666053  LPSA27    21             15.0000000000
     29614       957  BMANNA    O3            -15.4732129196      -39.4800143317       76.1769203835  LPSA27    21             15.0000000000
     29615       957  BMANNA    HO3           -16.1937705057      -39.2566408784       76.7354970047  LPSA27    21             15.0000000000
     29616       957  BMANNA    C4            -16.2440322920      -37.9793733993       74.4866217523  LPSA27    21             15.0000000000
     29617       957  BMANNA    H4            -17.3089963328      -37.7938876559       75.0002820064  LPSA27    21             15.0000000000
     29618       957  BMANNA    O4            -16.5342552136      -39.0345103840       73.6152290754  LPSA27    21             15.0000000000
     29619       957  BMANNA    HO4           -17.4403169823      -39.3821622716       73.7703874424  LPSA27    21             15.0000000000
     29620       957  BMANNA    C6            -16.7769060254      -36.4598914150       72.6348027846  LPSA27    21             15.0000000000
     29621       957  BMANNA    H61           -16.8666697224      -37.2389336663       71.8494922130  LPSA27    21             15.0000000000
     29622       957  BMANNA    H62           -17.8153753841      -36.5469403652       73.0558617198  LPSA27    21             15.0000000000
     29623       957  BMANNA    O6            -16.7119165428      -35.1872813052       72.0654385618  LPSA27    21             15.0000000000
     29624       957  BMANNA    HO6           -16.7324445162      -34.5499702126       72.7784055652  LPSA27    21             15.0000000000
     29625       958  BGLCNA    C1            -11.3389123771      -34.8092696948       79.2248726046  LPSA27    22             15.0000000000
     29626       958  BGLCNA    H1            -10.7001449723      -33.8792846203       79.2753119810  LPSA27    22             15.0000000000
     29627       958  BGLCNA    C5             -9.3688122219      -35.8672737933       80.1145289529  LPSA27    22             15.0000000000
     29628       958  BGLCNA    H5             -8.8711892056      -34.8082674207       80.0727605020  LPSA27    22             15.0000000000
     29629       958  BGLCNA    O5            -10.4131593155      -35.8465844996       79.0803056561  LPSA27    22             15.0000000000
     29630       958  BGLCNA    C2            -12.0213512755      -34.9563619210       80.5602818744  LPSA27    22             15.0000000000
     29631       958  BGLCNA    H2            -12.5366577558      -35.9767709618       80.4633107900  LPSA27    22             15.0000000000
     29632       958  BGLCNA    N             -12.9851922009      -33.8858584565       80.7025670875  LPSA27    22             15.0000000000
     29633       958  BGLCNA    HN            -12.6756045613      -32.9943104064       80.4501896382  LPSA27    22             15.0000000000
     29634       958  BGLCNA    C             -14.1385852551      -33.9926940107       81.3295640408  LPSA27    22             15.0000000000
     29635       958  BGLCNA    O             -14.4953023562      -35.0680876536       81.8448112003  LPSA27    22             15.0000000000
     29636       958  BGLCNA    CT            -14.9813732015      -32.7721716688       81.4359073222  LPSA27    22             15.0000000000
     29637       958  BGLCNA    HT1           -15.5810415991      -32.8360399686       80.5353412834  LPSA27    22             15.0000000000
     29638       958  BGLCNA    HT2           -14.3146318589      -31.8941760354       81.2752873926  LPSA27    22             15.0000000000
     29639       958  BGLCNA    HT3           -15.4855128255      -32.6259482530       82.3679651303  LPSA27    22             15.0000000000
     29640       958  BGLCNA    C3            -11.0128712491      -34.9974483425       81.6855161512  LPSA27    22             15.0000000000
     29641       958  BGLCNA    H3            -10.4100251107      -34.0557668053       81.6419517197  LPSA27    22             15.0000000000
     29642       958  BGLCNA    O3            -11.7730343048      -35.0037626719       82.8729300216  LPSA27    22             15.0000000000
     29643       958  BGLCNA    C4            -10.0138273321      -36.1386950779       81.4704242134  LPSA27    22             15.0000000000
     29644       958  BGLCNA    H4            -10.5956836907      -37.0208004831       81.4144045074  LPSA27    22             15.0000000000
     29645       958  BGLCNA    O4             -9.0714502987      -36.2499345401       82.5140850489  LPSA27    22             15.0000000000
     29646       958  BGLCNA    HO4            -8.9327313152      -37.1919658595       82.7130071916  LPSA27    22             15.0000000000
     29647       958  BGLCNA    C6             -8.3861024705      -36.9637885463       79.7284495560  LPSA27    22             15.0000000000
     29648       958  BGLCNA    H61            -7.8353880535      -37.1733967345       80.6924177192  LPSA27    22             15.0000000000
     29649       958  BGLCNA    H62            -8.9122185986      -37.9057396806       79.4648784538  LPSA27    22             15.0000000000
     29650       958  BGLCNA    O6             -7.4193437897      -36.5800828405       78.8100863794  LPSA27    22             15.0000000000
     29651       958  BGLCNA    HO6            -7.8546886319      -36.2690726986       78.0328486455  LPSA27    22             15.0000000000
     29652       959  AGAL      C1            -11.1892468631      -34.6146206203       84.0628261254  LPSA27    23             16.0000000000
     29653       959  AGAL      H1            -10.5291606498      -35.4081904903       84.5106287163  LPSA27    23             16.0000000000
     29654       959  AGAL      C5            -11.2168428423      -32.2530256994       83.7583018441  LPSA27    23             16.0000000000
     29655       959  AGAL      H5            -11.8816289933      -32.4474320194       82.8366412438  LPSA27    23             16.0000000000
     29656       959  AGAL      O5            -10.4342690772      -33.4004579553       83.9976212264  LPSA27    23             16.0000000000
     29657       959  AGAL      C2            -12.2416613581      -34.4456666796       85.1427633740  LPSA27    23             16.0000000000
     29658       959  AGAL      H2            -11.6879296041      -34.1597353012       86.0076373284  LPSA27    23             16.0000000000
     29659       959  AGAL      O2            -12.8952685210      -35.6399113957       85.5000844886  LPSA27    23             16.0000000000
     29660       959  AGAL      C3            -13.1273632795      -33.2689263794       84.9194901020  LPSA27    23             16.0000000000
     29661       959  AGAL      H3            -13.5222485793      -33.3900649944       83.8641570193  LPSA27    23             16.0000000000
     29662       959  AGAL      O3            -14.2551956946      -33.1915577343       85.7108298168  LPSA27    23             16.0000000000
     29663       959  AGAL      HO3           -13.9259806546      -33.3704091374       86.6206525111  LPSA27    23             16.0000000000
     29664       959  AGAL      C4            -12.2580558242      -32.0475347816       84.8901212015  LPSA27    23             16.0000000000
     29665       959  AGAL      H4            -12.8269207255      -31.1205550377       84.6506069022  LPSA27    23             16.0000000000
     29666       959  AGAL      O4            -11.6309322867      -31.6933010608       86.1132943683  LPSA27    23             16.0000000000
     29667       959  AGAL      HO4           -10.8423960413      -31.3569752636       85.8278371007  LPSA27    23             16.0000000000
     29668       959  AGAL      C6            -10.3600927875      -31.0925747805       83.3278962909  LPSA27    23             16.0000000000
     29669       959  AGAL      H61            -9.6558190972      -31.4167660530       82.6074235255  LPSA27    23             16.0000000000
     29670       959  AGAL      H62           -10.9200711439      -30.3423831200       82.7620574208  LPSA27    23             16.0000000000
     29671       959  AGAL      O6             -9.6325648974      -30.5984339854       84.3845202183  LPSA27    23             16.0000000000
     29672       959  AGAL      HO6            -9.0395230424      -29.8924785289       84.1740981585  LPSA27    23             16.0000000000
     29673       960  ARHM      C1            -12.3203857194      -36.6708858758       86.2818185944  LPSA27    24             17.0000000000
     29674       960  ARHM      H1            -11.2713347784      -36.4629969916       86.3680542693  LPSA27    24             17.0000000000
     29675       960  ARHM      C5            -13.7520700567      -38.4803879244       85.6157638072  LPSA27    24             17.0000000000
     29676       960  ARHM      H5            -14.2895767209      -37.7845565219       85.0070975499  LPSA27    24             17.0000000000
     29677       960  ARHM      O5            -12.4068098001      -38.0841152387       85.8657410059  LPSA27    24             17.0000000000
     29678       960  ARHM      C2            -13.0158131586      -36.5061224657       87.5921581840  LPSA27    24             17.0000000000
     29679       960  ARHM      H2            -13.0658543479      -35.4777834571       87.8984046741  LPSA27    24             17.0000000000
     29680       960  ARHM      O2            -12.4836629663      -37.3781312863       88.6075763533  LPSA27    24             17.0000000000
     29681       960  ARHM      C3            -14.4702994385      -36.9672293611       87.4133527752  LPSA27    24             17.0000000000
     29682       960  ARHM      H3            -14.8933584702      -36.2904159742       86.6640279609  LPSA27    24             17.0000000000
     29683       960  ARHM      O3            -15.3239510916      -36.7208887402       88.5620392964  LPSA27    24             17.0000000000
     29684       960  ARHM      HO3           -15.2151649527      -37.5019005220       89.1463757531  LPSA27    24             17.0000000000
     29685       960  ARHM      C4            -14.5475064085      -38.4126736238       86.9402325015  LPSA27    24             17.0000000000
     29686       960  ARHM      H4            -13.9626134213      -39.0613740804       87.7071552895  LPSA27    24             17.0000000000
     29687       960  ARHM      O4            -15.8558048050      -38.9316333307       86.8379508285  LPSA27    24             17.0000000000
     29688       960  ARHM      HO4           -15.9266615928      -39.8543363912       87.0219124236  LPSA27    24             17.0000000000
     29689       960  ARHM      C6            -13.8613011385      -39.8982880312       84.9175891319  LPSA27    24             17.0000000000
     29690       960  ARHM      H61           -14.8098045084      -39.9496742155       84.3853494017  LPSA27    24             17.0000000000
     29691       960  ARHM      H62           -13.0473850462      -39.9464748366       84.2649634992  LPSA27    24             17.0000000000
     29692       960  ARHM      H63           -13.6884538804      -40.7279114259       85.6811466487  LPSA27    24             17.0000000000
     29693       961  ARHM      C1            -11.2866294996      -36.8406195156       89.1588742089  LPSA27    25             18.0000000000
     29694       961  ARHM      H1            -10.8531970373      -36.1562621274       88.4722246341  LPSA27    25             18.0000000000
     29695       961  ARHM      C5            -10.5629676826      -38.8859933261       90.1670531641  LPSA27    25             18.0000000000
     29696       961  ARHM      H5            -11.4261888013      -39.4284733169       89.8870230824  LPSA27    25             18.0000000000
     29697       961  ARHM      O5            -10.2437552578      -37.8328177102       89.2315309535  LPSA27    25             18.0000000000
     29698       961  ARHM      C2            -11.5912152380      -36.2267420598       90.4685713243  LPSA27    25             18.0000000000
     29699       961  ARHM      H2            -12.5024676465      -35.5504198672       90.3413143991  LPSA27    25             18.0000000000
     29700       961  ARHM      O2            -10.4393481284      -35.4568890638       90.9328696740  LPSA27    25             18.0000000000
     29701       961  ARHM      C3            -11.8828545834      -37.4027859911       91.4562257518  LPSA27    25             18.0000000000
     29702       961  ARHM      H3            -12.7910716152      -37.9287323398       91.0689171631  LPSA27    25             18.0000000000
     29703       961  ARHM      O3            -12.2019399917      -36.7979513786       92.6920647463  LPSA27    25             18.0000000000
     29704       961  ARHM      C4            -10.8132592483      -38.3441070151       91.5960769721  LPSA27    25             18.0000000000
     29705       961  ARHM      H4             -9.8084105428      -37.8249208390       91.8876801091  LPSA27    25             18.0000000000
     29706       961  ARHM      O4            -11.2181790190      -39.2895944863       92.5862492282  LPSA27    25             18.0000000000
     29707       961  ARHM      HO4           -10.4100372985      -39.5063611655       93.0149361445  LPSA27    25             18.0000000000
     29708       961  ARHM      C6             -9.4785832936      -39.9616157765       90.2083352735  LPSA27    25             18.0000000000
     29709       961  ARHM      H61            -9.1969317438      -40.3104080341       89.1912344565  LPSA27    25             18.0000000000
     29710       961  ARHM      H62            -8.5162994914      -39.6087823204       90.6686969550  LPSA27    25             18.0000000000
     29711       961  ARHM      H63            -9.7796656557      -40.8925225975       90.8233913566  LPSA27    25             18.0000000000
     29712       962  BMANNA    C1            -10.3034121694      -34.1997687100       90.3138108879  LPSA27    26             19.0000000000
     29713       962  BMANNA    H1            -11.2691600057      -33.8563222578       89.8388342826  LPSA27    26             19.0000000000
     29714       962  BMANNA    C5             -9.3083175431      -32.8304212856       88.6312665858  LPSA27    26             19.0000000000
     29715       962  BMANNA    H5            -10.2869272284      -32.6726631463       88.1771240033  LPSA27    26             19.0000000000
     29716       962  BMANNA    O5             -9.3319760534      -34.1303799528       89.2346891933  LPSA27    26             19.0000000000
     29717       962  BMANNA    C2             -9.9426226301      -33.2499800666       91.3475147821  LPSA27    26             19.0000000000
     29718       962  BMANNA    H2            -10.7877881674      -33.3217781746       92.1081287357  LPSA27    26             19.0000000000
     29719       962  BMANNA    N              -8.6422472689      -33.6585963988       91.9238920796  LPSA27    26             19.0000000000
     29720       962  BMANNA    HN             -7.9153661391      -33.7515638081       91.3050515894  LPSA27    26             19.0000000000
     29721       962  BMANNA    C              -8.3967646523      -33.8023170393       93.1798471680  LPSA27    26             19.0000000000
     29722       962  BMANNA    O              -9.3312580025      -33.7849102392       94.0003587425  LPSA27    26             19.0000000000
     29723       962  BMANNA    CT             -6.9612747218      -33.9711578189       93.6758917343  LPSA27    26             19.0000000000
     29724       962  BMANNA    HT1            -6.3963600752      -34.3219006460       92.8666282051  LPSA27    26             19.0000000000
     29725       962  BMANNA    HT2            -6.7077579680      -34.4779675088       94.6620984389  LPSA27    26             19.0000000000
     29726       962  BMANNA    HT3            -6.6038369748      -32.9488024388       93.8484898219  LPSA27    26             19.0000000000
     29727       962  BMANNA    C3             -9.9557454932      -31.8577066352       90.7100883268  LPSA27    26             19.0000000000
     29728       962  BMANNA    H3            -10.9926551489      -31.6629203151       90.3384445889  LPSA27    26             19.0000000000
     29729       962  BMANNA    O3             -9.7151624635      -30.8860021891       91.7636866611  LPSA27    26             19.0000000000
     29730       962  BMANNA    HO3           -10.5445124758      -30.8796559851       92.2265744207  LPSA27    26             19.0000000000
     29731       962  BMANNA    C4             -9.0022121582      -31.8270755430       89.6481622736  LPSA27    26             19.0000000000
     29732       962  BMANNA    H4             -7.9210789334      -32.0276421209       89.9013799111  LPSA27    26             19.0000000000
     29733       962  BMANNA    O4             -8.9481832873      -30.5435892197       89.0416847738  LPSA27    26             19.0000000000
     29734       962  BMANNA    HO4            -8.3639269429      -29.9911031787       89.5591157304  LPSA27    26             19.0000000000
     29735       962  BMANNA    C6             -8.3798918239      -32.9934391673       87.3900617492  LPSA27    26             19.0000000000
     29736       962  BMANNA    H61            -8.4929030043      -33.9859934527       86.9191763972  LPSA27    26             19.0000000000
     29737       962  BMANNA    H62            -8.5743674941      -32.2611593653       86.6504270337  LPSA27    26             19.0000000000
     29738       962  BMANNA    O6             -7.0063828225      -32.8456600453       87.7329108337  LPSA27    26             19.0000000000
     29739       962  BMANNA    HO6            -6.8759078518      -32.0291781407       88.1688153196  LPSA27    26             19.0000000000
     29740       963  BGLCNA    C1            -13.2545411076      -37.1514471187       93.4616184899  LPSA27    27             19.0000000000
     29741       963  BGLCNA    H1            -13.4021411195      -38.2266663807       93.4392217979  LPSA27    27             19.0000000000
     29742       963  BGLCNA    C5            -15.5729046574      -37.0373359873       93.9656603721  LPSA27    27             19.0000000000
     29743       963  BGLCNA    H5            -15.5629880260      -38.1574258688       93.9564344452  LPSA27    27             19.0000000000
     29744       963  BGLCNA    O5            -14.5375169150      -36.6299682953       93.0607755266  LPSA27    27             19.0000000000
     29745       963  BGLCNA    C2            -12.8986937873      -36.7020656230       94.8806799918  LPSA27    27             19.0000000000
     29746       963  BGLCNA    H2            -12.8819224795      -35.5984175860       94.8757458582  LPSA27    27             19.0000000000
     29747       963  BGLCNA    N             -11.5852906245      -37.1957024234       95.2501113516  LPSA27    27             19.0000000000
     29748       963  BGLCNA    HN            -11.4171913191      -38.2227788153       95.0827132934  LPSA27    27             19.0000000000
     29749       963  BGLCNA    C             -10.7785493187      -36.3059909585       95.9523160909  LPSA27    27             19.0000000000
     29750       963  BGLCNA    O             -11.1662626484      -35.2420882329       96.5238801166  LPSA27    27             19.0000000000
     29751       963  BGLCNA    CT             -9.2819632656      -36.7400955434       96.0293745529  LPSA27    27             19.0000000000
     29752       963  BGLCNA    HT1            -9.0924853056      -37.6255486936       95.3635606282  LPSA27    27             19.0000000000
     29753       963  BGLCNA    HT2            -8.9139883896      -36.9096556780       97.0167906789  LPSA27    27             19.0000000000
     29754       963  BGLCNA    HT3            -8.6585345200      -35.8179100333       95.7039804309  LPSA27    27             19.0000000000
     29755       963  BGLCNA    C3            -13.9745418296      -37.1300437453       95.7540348103  LPSA27    27             19.0000000000
     29756       963  BGLCNA    H3            -14.1138285513      -38.2396735484       95.7401190096  LPSA27    27             19.0000000000
     29757       963  BGLCNA    O3            -13.5170044671      -36.6887898038       97.0775356047  LPSA27    27             19.0000000000
     29758       963  BGLCNA    C4            -15.3425764264      -36.5474178864       95.3486864533  LPSA27    27             19.0000000000
     29759       963  BGLCNA    H4            -15.2734762604      -35.4359288923       95.3090014479  LPSA27    27             19.0000000000
     29760       963  BGLCNA    O4            -16.3423092358      -36.9399287437       96.2156872787  LPSA27    27             19.0000000000
     29761       963  BGLCNA    HO4           -16.4535009860      -37.8478844367       96.0162444362  LPSA27    27             19.0000000000
     29762       963  BGLCNA    C6            -16.9168623070      -36.6066063830       93.2852949846  LPSA27    27             19.0000000000
     29763       963  BGLCNA    H61           -17.6990093545      -37.1161218050       93.8557506920  LPSA27    27             19.0000000000
     29764       963  BGLCNA    H62           -17.1013588669      -35.5225274853       93.4725180191  LPSA27    27             19.0000000000
     29765       963  BGLCNA    O6            -16.9334532581      -36.9414400021       91.9076175409  LPSA27    27             19.0000000000
     29766       963  BGLCNA    HO6           -17.7828895600      -36.6270775061       91.5273290588  LPSA27    27             19.0000000000
     29767       964  AGAL      C1            -14.1358235850      -37.2449617352       98.2622020222  LPSA27    28             20.0000000000
     29768       964  AGAL      H1            -15.1288567008      -36.8860697413       98.3007149491  LPSA27    28             20.0000000000
     29769       964  AGAL      C5            -12.9462897314      -39.3556442090       98.1710438288  LPSA27    28             20.0000000000
     29770       964  AGAL      H5            -12.1472136309      -38.8211575573       97.4646141937  LPSA27    28             20.0000000000
     29771       964  AGAL      O5            -14.2572774594      -38.6580406102       98.1147365872  LPSA27    28             20.0000000000
     29772       964  AGAL      C2            -13.4544256798      -36.9995889103       99.6197190629  LPSA27    28             20.0000000000
     29773       964  AGAL      H2            -14.1259549550      -37.5236763618      100.2965066153  LPSA27    28             20.0000000000
     29774       964  AGAL      O2            -13.4030832391      -35.6573917467      100.0788731798  LPSA27    28             20.0000000000
     29775       964  AGAL      C3            -12.1293817773      -37.6845314768       99.7396972452  LPSA27    28             20.0000000000
     29776       964  AGAL      H3            -11.4934706539      -37.3499166824       98.8607737785  LPSA27    28             20.0000000000
     29777       964  AGAL      O3            -11.3165655803      -37.4410176466      100.9043404272  LPSA27    28             20.0000000000
     29778       964  AGAL      HO3           -10.5097219121      -37.0104887744      100.5606486229  LPSA27    28             20.0000000000
     29779       964  AGAL      C4            -12.3148336110      -39.1310023214       99.5102226768  LPSA27    28             20.0000000000
     29780       964  AGAL      H4            -11.3520883226      -39.5827731249       99.4798298294  LPSA27    28             20.0000000000
     29781       964  AGAL      O4            -13.0962199047      -39.7591250002      100.4757933835  LPSA27    28             20.0000000000
     29782       964  AGAL      HO4           -12.5004943842      -40.1999199757      101.0376442747  LPSA27    28             20.0000000000
     29783       964  AGAL      C6            -12.9619964996      -40.7903585205       97.6362902244  LPSA27    28             20.0000000000
     29784       964  AGAL      H61           -13.2263442125      -40.7735682383       96.5809275898  LPSA27    28             20.0000000000
     29785       964  AGAL      H62           -11.9964834413      -41.4038550314       97.7651048223  LPSA27    28             20.0000000000
     29786       964  AGAL      O6            -13.9192249937      -41.5492526014       98.3456070822  LPSA27    28             20.0000000000
     29787       964  AGAL      HO6           -14.7827430239      -41.4540348548       97.9416813930  LPSA27    28             20.0000000000
     29788       965  ARHM      C1            -13.7602156847      -35.6271724394      101.4808913342  LPSA27    29             21.0000000000
     29789       965  ARHM      H1            -13.4949721772      -36.6063218350      101.9964955809  LPSA27    29             21.0000000000
     29790       965  ARHM      C5            -15.5547688137      -34.1498141702      101.1486206043  LPSA27    29             21.0000000000
     29791       965  ARHM      H5            -15.2155831463      -34.1501099253      100.0935446791  LPSA27    29             21.0000000000
     29792       965  ARHM      O5            -15.1206268486      -35.3679668815      101.6833506475  LPSA27    29             21.0000000000
     29793       965  ARHM      C2            -12.9256594089      -34.6234575325      102.1437305515  LPSA27    29             21.0000000000
     29794       965  ARHM      H2            -11.8891535081      -34.7497947295      101.9067628034  LPSA27    29             21.0000000000
     29795       965  ARHM      O2            -13.0639550749      -34.6613560972      103.5748524404  LPSA27    29             21.0000000000
     29796       965  ARHM      C3            -13.3445858081      -33.2756418307      101.6289418068  LPSA27    29             21.0000000000
     29797       965  ARHM      H3            -13.0880441510      -33.2095909781      100.4952263366  LPSA27    29             21.0000000000
     29798       965  ARHM      O3            -12.5062274475      -32.3078375388      102.1995749427  LPSA27    29             21.0000000000
     29799       965  ARHM      HO3           -12.9860430088      -31.5505957451      102.2092645043  LPSA27    29             21.0000000000
     29800       965  ARHM      C4            -14.7669008777      -32.9819970250      101.8247918557  LPSA27    29             21.0000000000
     29801       965  ARHM      H4            -15.0388521520      -32.9280156265      102.9338171738  LPSA27    29             21.0000000000
     29802       965  ARHM      O4            -15.2581436595      -31.7097739106      101.3452167393  LPSA27    29             21.0000000000
     29803       965  ARHM      HO4           -14.9154660649      -31.4544607614      100.4362974805  LPSA27    29             21.0000000000
     29804       965  ARHM      C6            -17.0922328519      -34.1562772368      101.2162231226  LPSA27    29             21.0000000000
     29805       965  ARHM      H61           -17.3592392569      -35.1812267074      100.7685423143  LPSA27    29             21.0000000000
     29806       965  ARHM      H62           -17.4053549001      -34.1456222643      102.3013153741  LPSA27    29             21.0000000000
     29807       965  ARHM      H63           -17.4749517069      -33.3301353970      100.6072571094  LPSA27    29             21.0000000000
     29808       966  ARHM      C1            -12.1609297891      -35.3329047462      104.3945976075  LPSA27    30             22.0000000000
     29809       966  ARHM      H1            -11.1436183474      -34.9233612395      104.2094096401  LPSA27    30             22.0000000000
     29810       966  ARHM      C5            -13.4591962994      -37.3881376171      104.5143062533  LPSA27    30             22.0000000000
     29811       966  ARHM      H5            -14.1752016535      -36.7496378508      103.8668162917  LPSA27    30             22.0000000000
     29812       966  ARHM      O5            -12.1815311740      -36.7635871684      104.2052433351  LPSA27    30             22.0000000000
     29813       966  ARHM      C2            -12.5044427788      -35.0563734458      105.8471183130  LPSA27    30             22.0000000000
     29814       966  ARHM      H2            -12.5190844586      -34.0312681804      106.0289718167  LPSA27    30             22.0000000000
     29815       966  ARHM      O2            -11.5550089237      -35.7518776929      106.5813641610  LPSA27    30             22.0000000000
     29816       966  ARHM      C3            -13.7737039460      -35.6717483223      106.2079894766  LPSA27    30             22.0000000000
     29817       966  ARHM      H3            -14.5126969741      -35.3463942474      105.5270001340  LPSA27    30             22.0000000000
     29818       966  ARHM      O3            -14.2434262407      -35.3108556744      107.5373891676  LPSA27    30             22.0000000000
     29819       966  ARHM      C4            -13.7778202411      -37.1855641358      105.9708288384  LPSA27    30             22.0000000000
     29820       966  ARHM      H4            -13.0074504167      -37.7098336781      106.5400372406  LPSA27    30             22.0000000000
     29821       966  ARHM      O4            -14.9242498999      -37.8357264232      106.2997755749  LPSA27    30             22.0000000000
     29822       966  ARHM      HO4           -15.6783077880      -37.8154065041      105.6964454668  LPSA27    30             22.0000000000
     29823       966  ARHM      C6            -13.4461019414      -38.8329782947      104.0930490251  LPSA27    30             22.0000000000
     29824       966  ARHM      H61           -14.4965635864      -39.2184084361      104.2143179997  LPSA27    30             22.0000000000
     29825       966  ARHM      H62           -13.2997869989      -38.8824773503      103.0019050467  LPSA27    30             22.0000000000
     29826       966  ARHM      H63           -12.6859452482      -39.4679415322      104.6493652223  LPSA27    30             22.0000000000
     29827       967  BMANNA    C1            -10.4037619204      -35.0255226521      106.9502319096  LPSA27    31             23.0000000000
     29828       967  BMANNA    H1            -10.7168797077      -33.9772094651      107.1550799008  LPSA27    31             23.0000000000
     29829       967  BMANNA    C5             -8.2412459371      -34.1936912289      106.2136717625  LPSA27    31             23.0000000000
     29830       967  BMANNA    H5             -8.6447417401      -33.2269747385      106.5467054000  LPSA27    31             23.0000000000
     29831       967  BMANNA    O5             -9.4061771911      -35.0013071807      105.8742289322  LPSA27    31             23.0000000000
     29832       967  BMANNA    C2             -9.7834625080      -35.6396032252      108.0830629221  LPSA27    31             23.0000000000
     29833       967  BMANNA    H2            -10.5198322786      -35.5387013809      108.9031915743  LPSA27    31             23.0000000000
     29834       967  BMANNA    N              -9.5996248303      -37.0260046208      107.8252935315  LPSA27    31             23.0000000000
     29835       967  BMANNA    HN             -9.5175457843      -37.3139933664      106.8111160773  LPSA27    31             23.0000000000
     29836       967  BMANNA    C              -9.5797841985      -37.9526185455      108.7868858964  LPSA27    31             23.0000000000
     29837       967  BMANNA    O              -9.7954531992      -37.6777222550      109.9536662434  LPSA27    31             23.0000000000
     29838       967  BMANNA    CT             -9.2862147310      -39.3878305882      108.3237946568  LPSA27    31             23.0000000000
     29839       967  BMANNA    HT1            -8.5379851492      -39.3435765804      107.5739831696  LPSA27    31             23.0000000000
     29840       967  BMANNA    HT2           -10.2200024254      -39.8080083001      107.9347099034  LPSA27    31             23.0000000000
     29841       967  BMANNA    HT3            -9.0379788567      -40.0387683048      109.1768357935  LPSA27    31             23.0000000000
     29842       967  BMANNA    C3             -8.5872864060      -34.8421646962      108.4884560283  LPSA27    31             23.0000000000
     29843       967  BMANNA    H3             -8.8555615757      -33.7399841805      108.6988550870  LPSA27    31             23.0000000000
     29844       967  BMANNA    O3             -8.0572211969      -35.2786125129      109.7404994872  LPSA27    31             23.0000000000
     29845       967  BMANNA    HO3            -8.8282173026      -35.7419695017      110.0111610137  LPSA27    31             23.0000000000
     29846       967  BMANNA    C4             -7.5694835364      -34.8544314704      107.4199857710  LPSA27    31             23.0000000000
     29847       967  BMANNA    H4             -7.1863245124      -35.9213013690      107.0572414185  LPSA27    31             23.0000000000
     29848       967  BMANNA    O4             -6.4092106457      -34.1592995252      107.8525671122  LPSA27    31             23.0000000000
     29849       967  BMANNA    HO4            -6.6183323168      -33.2611895822      108.1943429300  LPSA27    31             23.0000000000
     29850       967  BMANNA    C6             -7.2460005165      -34.0447140043      105.0512686782  LPSA27    31             23.0000000000
     29851       967  BMANNA    H61            -6.4788455525      -33.2197198539      105.3397811046  LPSA27    31             23.0000000000
     29852       967  BMANNA    H62            -6.6732048323      -34.9496116974      104.8698551944  LPSA27    31             23.0000000000
     29853       967  BMANNA    O6             -7.9049992132      -33.6750579368      103.8241467834  LPSA27    31             23.0000000000
     29854       967  BMANNA    HO6            -8.2522128709      -32.7382107638      103.8134147631  LPSA27    31             23.0000000000
     29855       968  BGLCNA    C1            -13.7017578155      -36.0067033606      108.6103969990  LPSA27    32             23.0000000000
     29856       968  BGLCNA    H1            -12.6097497754      -36.2663911095      108.4325564695  LPSA27    32             23.0000000000
     29857       968  BGLCNA    C5            -13.7261818569      -38.0334010837      109.9277617404  LPSA27    32             23.0000000000
     29858       968  BGLCNA    H5            -12.6571144204      -38.1977291393      109.5374749077  LPSA27    32             23.0000000000
     29859       968  BGLCNA    O5            -14.3723112923      -37.2232639938      108.9423333575  LPSA27    32             23.0000000000
     29860       968  BGLCNA    C2            -13.6893044156      -35.1776207588      109.8194522937  LPSA27    32             23.0000000000
     29861       968  BGLCNA    H2            -14.7125410886      -35.1116913057      110.1044894257  LPSA27    32             23.0000000000
     29862       968  BGLCNA    N             -13.1486998131      -33.8799109886      109.5956973249  LPSA27    32             23.0000000000
     29863       968  BGLCNA    HN            -12.4230706468      -33.9427684140      108.8809076996  LPSA27    32             23.0000000000
     29864       968  BGLCNA    C             -13.5431883823      -32.6831976905      110.0864625708  LPSA27    32             23.0000000000
     29865       968  BGLCNA    O             -14.4334247246      -32.5790092573      110.9304085025  LPSA27    32             23.0000000000
     29866       968  BGLCNA    CT            -12.7910290752      -31.4309174423      109.5841031968  LPSA27    32             23.0000000000
     29867       968  BGLCNA    HT1           -12.2810682711      -31.8771209478      108.6281101354  LPSA27    32             23.0000000000
     29868       968  BGLCNA    HT2           -11.9954358282      -31.0763660661      110.1898124037  LPSA27    32             23.0000000000
     29869       968  BGLCNA    HT3           -13.4790510445      -30.5936127721      109.3122359934  LPSA27    32             23.0000000000
     29870       968  BGLCNA    C3            -12.9452273916      -35.9148497541      110.8930231790  LPSA27    32             23.0000000000
     29871       968  BGLCNA    H3            -12.0237484085      -36.1817986695      110.4606187373  LPSA27    32             23.0000000000
     29872       968  BGLCNA    O3            -12.6657464531      -35.1328593414      112.0657798240  LPSA27    32             23.0000000000
     29873       968  BGLCNA    C4            -13.7055009737      -37.1828162940      111.1707572500  LPSA27    32             23.0000000000
     29874       968  BGLCNA    H4            -14.7269467751      -36.8834686525      111.5318289610  LPSA27    32             23.0000000000
     29875       968  BGLCNA    O4            -13.1163736302      -37.9233763236      112.2070236435  LPSA27    32             23.0000000000
     29876       968  BGLCNA    HO4           -13.4773435677      -37.6906577009      113.0745323218  LPSA27    32             23.0000000000
     29877       968  BGLCNA    C6            -14.4153221933      -39.3785929007      110.0229508171  LPSA27    32             23.0000000000
     29878       968  BGLCNA    H61           -13.8434209671      -40.0963665009      110.7194343748  LPSA27    32             23.0000000000
     29879       968  BGLCNA    H62           -15.4307334187      -39.2454674433      110.5717638480  LPSA27    32             23.0000000000
     29880       968  BGLCNA    O6            -14.5077332089      -40.0268221859      108.7709294272  LPSA27    32             23.0000000000
     29881       968  BGLCNA    HO6           -13.6938897240      -39.8427084709      108.2360311317  LPSA27    32             23.0000000000
     29882       969  AGAL      C1            -11.3783190839      -35.3982917374      112.6842874521  LPSA27    33             24.0000000000
     29883       969  AGAL      H1            -11.2118464986      -36.4748474474      112.5979959475  LPSA27    33             24.0000000000
     29884       969  AGAL      C5            -10.4783079140      -33.2529587189      112.2149219831  LPSA27    33             24.0000000000
     29885       969  AGAL      H5            -11.5144058023      -33.0686959464      111.8792915250  LPSA27    33             24.0000000000
     29886       969  AGAL      O5            -10.2841795681      -34.6448888824      112.0726784748  LPSA27    33             24.0000000000
     29887       969  AGAL      C2            -11.4886050267      -34.9780138956      114.1482787662  LPSA27    33             24.0000000000
     29888       969  AGAL      H2            -10.4198028337      -35.1068999570      114.5751854976  LPSA27    33             24.0000000000
     29889       969  AGAL      O2            -12.2589084830      -35.9366839041      114.8486222260  LPSA27    33             24.0000000000
     29890       969  AGAL      C3            -11.6661454855      -33.4871274393      114.2945545625  LPSA27    33             24.0000000000
     29891       969  AGAL      H3            -12.6055487394      -33.1434458243      113.7405815065  LPSA27    33             24.0000000000
     29892       969  AGAL      O3            -11.9517135443      -33.0758587564      115.5672660328  LPSA27    33             24.0000000000
     29893       969  AGAL      HO3           -11.3689209884      -33.3585564439      116.2400186851  LPSA27    33             24.0000000000
     29894       969  AGAL      C4            -10.5063803030      -32.7455758503      113.6708488317  LPSA27    33             24.0000000000
     29895       969  AGAL      H4            -10.6784162287      -31.6624080491      113.6729875792  LPSA27    33             24.0000000000
     29896       969  AGAL      O4             -9.1905427376      -32.9248277508      114.2435538900  LPSA27    33             24.0000000000
     29897       969  AGAL      HO4            -9.1627738511      -33.6026199042      114.9085525172  LPSA27    33             24.0000000000
     29898       969  AGAL      C6             -9.5777364024      -32.4582199632      111.2992528405  LPSA27    33             24.0000000000
     29899       969  AGAL      H61            -9.8785015301      -32.7695050683      110.2783408757  LPSA27    33             24.0000000000
     29900       969  AGAL      H62            -9.6662159749      -31.3563375583      111.3458027743  LPSA27    33             24.0000000000
     29901       969  AGAL      O6             -8.2016108613      -32.6429993962      111.4129476537  LPSA27    33             24.0000000000
     29902       969  AGAL      HO6            -7.8541625287      -33.3763450497      110.8444757795  LPSA27    33             24.0000000000
     29903       970  ARHM      C1            -11.6704009772      -36.4240820623      116.0109133884  LPSA27    34             25.0000000000
     29904       970  ARHM      H1            -11.2477298985      -35.6212848260      116.6389743656  LPSA27    34             25.0000000000
     29905       970  ARHM      C5            -10.8935723589      -38.5133052470      115.0727799907  LPSA27    34             25.0000000000
     29906       970  ARHM      H5            -11.2162660031      -38.1566499094      114.0209633333  LPSA27    34             25.0000000000
     29907       970  ARHM      O5            -10.5601234404      -37.3370272921      115.8926868953  LPSA27    34             25.0000000000
     29908       970  ARHM      C2            -12.8008194040      -37.0722324555      116.7601555753  LPSA27    34             25.0000000000
     29909       970  ARHM      H2            -13.7337478228      -36.4554848794      116.8710959342  LPSA27    34             25.0000000000
     29910       970  ARHM      O2            -12.4646496766      -37.4994784841      118.1592972339  LPSA27    34             25.0000000000
     29911       970  ARHM      C3            -13.2196389311      -38.3215756433      115.9988665506  LPSA27    34             25.0000000000
     29912       970  ARHM      H3            -13.5323153239      -38.0770680827      114.9724172480  LPSA27    34             25.0000000000
     29913       970  ARHM      O3            -14.2997247845      -39.0859595935      116.5878695042  LPSA27    34             25.0000000000
     29914       970  ARHM      HO3           -14.9123676495      -39.4487644254      115.9559434517  LPSA27    34             25.0000000000
     29915       970  ARHM      C4            -12.0375373060      -39.3088061038      115.7987835878  LPSA27    34             25.0000000000
     29916       970  ARHM      H4            -11.5455491397      -39.5724930705      116.7495315617  LPSA27    34             25.0000000000
     29917       970  ARHM      O4            -12.3998593554      -40.4640049332      115.1362621200  LPSA27    34             25.0000000000
     29918       970  ARHM      HO4           -12.8745290845      -41.0748595510      115.6953140327  LPSA27    34             25.0000000000
     29919       970  ARHM      C6             -9.6415546319      -39.4332411473      114.8413279703  LPSA27    34             25.0000000000
     29920       970  ARHM      H61            -9.2285767843      -39.8888051575      115.7172490283  LPSA27    34             25.0000000000
     29921       970  ARHM      H62           -10.0119544258      -40.3750685107      114.3996926230  LPSA27    34             25.0000000000
     29922       970  ARHM      H63            -8.8617571784      -39.0471632119      114.1590834060  LPSA27    34             25.0000000000
     29923       971  ARHM      C1            -12.0157766798      -36.4834972612      119.0795908573  LPSA27    35             26.0000000000
     29924       971  ARHM      H1            -12.6340159907      -35.5124377220      118.8787348947  LPSA27    35             26.0000000000
     29925       971  ARHM      C5             -9.7478120501      -37.3389830634      119.2408916176  LPSA27    35             26.0000000000
     29926       971  ARHM      H5            -10.0014626251      -38.2217758183      118.5254732223  LPSA27    35             26.0000000000
     29927       971  ARHM      O5            -10.5713002771      -36.1508663066      118.9290334222  LPSA27    35             26.0000000000
     29928       971  ARHM      C2            -12.2869066215      -36.9263693718      120.5365485050  LPSA27    35             26.0000000000
     29929       971  ARHM      H2            -13.3909530574      -37.0681082576      120.7134209997  LPSA27    35             26.0000000000
     29930       971  ARHM      O2            -11.8824445333      -35.9407122881      121.4126203716  LPSA27    35             26.0000000000
     29931       971  ARHM      C3            -11.4839151530      -38.2032105593      120.8720061906  LPSA27    35             26.0000000000
     29932       971  ARHM      H3            -11.8422416836      -38.9938398640      120.1344793452  LPSA27    35             26.0000000000
     29933       971  ARHM      O3            -11.8098183240      -38.6984300384      122.1540075829  LPSA27    35             26.0000000000
     29934       971  ARHM      HO3           -12.0019468996      -37.9543568929      122.7288731339  LPSA27    35             26.0000000000
     29935       971  ARHM      C4            -10.0282231010      -37.8779237885      120.6788917534  LPSA27    35             26.0000000000
     29936       971  ARHM      H4             -9.6561134137      -37.0400378819      121.3307119103  LPSA27    35             26.0000000000
     29937       971  ARHM      O4             -9.2984351256      -39.0900545710      120.9693790153  LPSA27    35             26.0000000000
     29938       971  ARHM      HO4            -9.6869075172      -39.8971763442      120.5581709812  LPSA27    35             26.0000000000
     29939       971  ARHM      C6             -8.2540070399      -37.0495760139      118.8642347863  LPSA27    35             26.0000000000
     29940       971  ARHM      H61            -8.1356070625      -36.9106003820      117.7433556958  LPSA27    35             26.0000000000
     29941       971  ARHM      H62            -8.0542773607      -36.1450859858      119.4176110492  LPSA27    35             26.0000000000
     29942       971  ARHM      H63            -7.6782926962      -37.9988655010      119.0633705917  LPSA27    35             26.0000000000
     29943       972  BMANNA    C1            -12.6575937527      -34.7804168047      121.4471464502  LPSA27    36             27.0000000000
     29944       972  BMANNA    H1            -13.6990811359      -34.9760841410      121.0972061898  LPSA27    36             27.0000000000
     29945       972  BMANNA    C5            -13.2171998851      -32.5383279597      120.7299884793  LPSA27    36             27.0000000000
     29946       972  BMANNA    H5            -14.1944444988      -32.9356113949      120.4610684421  LPSA27    36             27.0000000000
     29947       972  BMANNA    O5            -12.2414532536      -33.6268277555      120.6641532654  LPSA27    36             27.0000000000
     29948       972  BMANNA    C2            -12.7636920945      -34.3176147103      122.8920138725  LPSA27    36             27.0000000000
     29949       972  BMANNA    H2            -13.1683872048      -35.1681030502      123.4719477421  LPSA27    36             27.0000000000
     29950       972  BMANNA    N             -11.4444856416      -34.0028399396      123.4395449790  LPSA27    36             27.0000000000
     29951       972  BMANNA    HN            -10.7853798617      -33.4970699321      122.8746519580  LPSA27    36             27.0000000000
     29952       972  BMANNA    C             -11.2001353881      -34.1073617341      124.7737151700  LPSA27    36             27.0000000000
     29953       972  BMANNA    O             -11.9505308094      -34.6054207908      125.6190347561  LPSA27    36             27.0000000000
     29954       972  BMANNA    CT             -9.9364826631      -33.5389315428      125.3570716528  LPSA27    36             27.0000000000
     29955       972  BMANNA    HT1            -9.6919875710      -32.5847037129      124.8802869227  LPSA27    36             27.0000000000
     29956       972  BMANNA    HT2            -9.0279414603      -34.1789738488      125.1731404614  LPSA27    36             27.0000000000
     29957       972  BMANNA    HT3            -9.9177024238      -33.4229687417      126.4547536948  LPSA27    36             27.0000000000
     29958       972  BMANNA    C3            -13.7265380496      -33.1611816425      122.9763638711  LPSA27    36             27.0000000000
     29959       972  BMANNA    H3            -14.7254127161      -33.4674043081      122.6403873786  LPSA27    36             27.0000000000
     29960       972  BMANNA    O3            -13.9170598144      -32.7064047892      124.3414054450  LPSA27    36             27.0000000000
     29961       972  BMANNA    HO3           -14.7858350383      -32.8025011790      124.7171830083  LPSA27    36             27.0000000000
     29962       972  BMANNA    C4            -13.3036447091      -32.0308046923      122.1146940524  LPSA27    36             27.0000000000
     29963       972  BMANNA    H4            -12.3732622883      -31.6111784348      122.4263894750  LPSA27    36             27.0000000000
     29964       972  BMANNA    O4            -14.2063587865      -30.9314705370      122.2172873890  LPSA27    36             27.0000000000
     29965       972  BMANNA    HO4           -14.1465127690      -30.8143117772      123.1985163392  LPSA27    36             27.0000000000
     29966       972  BMANNA    C6            -12.8490696041      -31.5060233572      119.7412642597  LPSA27    36             27.0000000000
     29967       972  BMANNA    H61           -12.8739690756      -31.9038120710      118.6946701192  LPSA27    36             27.0000000000
     29968       972  BMANNA    H62           -13.7027899408      -30.8222384878      119.7045442506  LPSA27    36             27.0000000000
     29969       972  BMANNA    O6            -11.5970848083      -30.8134116552      120.0914698020  LPSA27    36             27.0000000000
     29970       972  BMANNA    HO6           -11.8582018553      -30.0703771216      120.6476247167  LPSA27    36             27.0000000000
     29971       973  ECLIPA    HB6S           34.6983359735       20.1920591182       20.4612168218  LPSA28    1               0.0000000000
     29972       973  ECLIPA    OB6            33.3719328907       19.3358347201       21.7140249152  LPSA28    1               0.0000000000
     29973       973  ECLIPA    CB6            34.4360629579       19.1977590752       20.7042159014  LPSA28    1               0.0000000000
     29974       973  ECLIPA    HB6R           35.2180570365       18.5489363858       21.0541931349  LPSA28    1               0.0000000000
     29975       973  ECLIPA    CB5            33.9343446172       18.4487052285       19.3988764877  LPSA28    1               0.0000000000
     29976       973  ECLIPA    OB5            32.7405791432       19.2201857274       18.9716901872  LPSA28    1               0.0000000000
     29977       973  ECLIPA    HB5            33.5920521466       17.4672255207       19.7771798410  LPSA28    1               0.0000000000
     29978       973  ECLIPA    CB1            32.1818802497       18.6365429309       17.7717324898  LPSA28    1               0.0000000000
     29979       973  ECLIPA    HB1            31.8586989518       17.5801767627       17.9003641080  LPSA28    1               0.0000000000
     29980       973  ECLIPA    OA6            31.0978035268       19.3921119348       17.3217246577  LPSA28    1               0.0000000000
     29981       973  ECLIPA    CA6            31.0663022720       20.8130005282       17.5745106853  LPSA28    1               0.0000000000
     29982       973  ECLIPA    HA6R           32.1080988002       21.1628701312       17.7226451425  LPSA28    1               0.0000000000
     29983       973  ECLIPA    HA6S           30.3352108127       20.9951755924       18.4598965841  LPSA28    1               0.0000000000
     29984       973  ECLIPA    CB4            35.0331367616       18.3747487647       18.3206521937  LPSA28    1               0.0000000000
     29985       973  ECLIPA    HB4            35.3640284470       19.3876260045       18.0085584641  LPSA28    1               0.0000000000
     29986       973  ECLIPA    OB4            35.9873003360       17.4591785337       18.9017319965  LPSA28    1               0.0000000000
     29987       973  ECLIPA    PB             37.4451584727       17.9964087334       19.3234616795  LPSA28    1               0.0000000000
     29988       973  ECLIPA    OPB4           37.8860435199       17.1881103293       20.5579515876  LPSA28    1               0.0000000000
     29989       973  ECLIPA    OPB3           37.1289350816       19.4736951666       19.6614545037  LPSA28    1               0.0000000000
     29990       973  ECLIPA    OPB2           38.3447794767       17.8919914543       18.0829495795  LPSA28    1               0.0000000000
     29991       973  ECLIPA    CB3            34.3783680642       17.7661666832       17.0955893951  LPSA28    1               0.0000000000
     29992       973  ECLIPA    OB3            35.2020683610       17.6905844999       15.9186528231  LPSA28    1               0.0000000000
     29993       973  ECLIPA    HB3            33.8504006001       16.7917104871       17.3284540628  LPSA28    1               0.0000000000
     29994       973  ECLIPA    C71            35.8620784972       16.6040837439       15.6929469039  LPSA28    1               0.0000000000
     29995       973  ECLIPA    O71            35.7557849456       15.5639147103       16.3832172580  LPSA28    1               0.0000000000
     29996       973  ECLIPA    C72            36.6253408282       16.7865792275       14.3548430386  LPSA28    1               0.0000000000
     29997       973  ECLIPA    H72R           35.9007428163       17.0228902400       13.5774555414  LPSA28    1               0.0000000000
     29998       973  ECLIPA    H72S           37.2647753672       15.8283630713       14.1464415926  LPSA28    1               0.0000000000
     29999       973  ECLIPA    CB2            33.1867291429       18.6477574537       16.6720734084  LPSA28    1               0.0000000000
     30000       973  ECLIPA    HB2            33.6257224057       19.7359892028       16.5298168153  LPSA28    1               0.0000000000
     30001       973  ECLIPA    NB2            32.5051258346       18.1508606678       15.4577284722  LPSA28    1               0.0000000000
     30002       973  ECLIPA    HNB2           31.8080186234       17.4488390119       15.5965609326  LPSA28    1               0.0000000000
     30003       973  ECLIPA    CA4            29.3087067248       20.8094492852       15.7929312798  LPSA28    1               0.0000000000
     30004       973  ECLIPA    HA4            29.5862838685       19.7676050169       15.4903430209  LPSA28    1               0.0000000000
     30005       973  ECLIPA    OA4            28.3445958804       20.7673122274       16.8012065728  LPSA28    1               0.0000000000
     30006       973  ECLIPA    HOA4           28.6810211448       20.4586598933       17.5928838569  LPSA28    1               0.0000000000
     30007       973  ECLIPA    CA5            30.4909362340       21.4816242324       16.3547806008  LPSA28    1               0.0000000000
     30008       973  ECLIPA    HA5            30.4012038364       22.6222093214       16.5880746347  LPSA28    1               0.0000000000
     30009       973  ECLIPA    OA5            31.5312207680       21.4248864832       15.3689671688  LPSA28    1               0.0000000000
     30010       973  ECLIPA    CA1            31.1172257798       22.0608511633       14.1076640156  LPSA28    1               0.0000000000
     30011       973  ECLIPA    HA1            31.8865401201       21.6256362838       13.4118188108  LPSA28    1               0.0000000000
     30012       973  ECLIPA    OA1            31.2364199171       23.4696986025       14.1359876212  LPSA28    1               0.0000000000
     30013       973  ECLIPA    OPA2           32.0356587185       24.8120674948       15.9734101064  LPSA28    1               0.0000000000
     30014       973  ECLIPA    OPA3           33.6779477990       23.2323139114       14.8300177673  LPSA28    1               0.0000000000
     30015       973  ECLIPA    OPA4           32.9024587680       25.2440256746       13.6615320840  LPSA28    1               0.0000000000
     30016       973  ECLIPA    PA             32.5301267300       24.1866518593       14.6765383084  LPSA28    1               0.0000000000
     30017       973  ECLIPA    CA3            28.7828812443       21.4609619234       14.5219348229  LPSA28    1               0.0000000000
     30018       973  ECLIPA    HA3            28.4117196760       22.5384984838       14.7377032538  LPSA28    1               0.0000000000
     30019       973  ECLIPA    OA3            27.5781442025       20.7681240856       14.2498111976  LPSA28    1               0.0000000000
     30020       973  ECLIPA    C31            27.6930107448       19.6253596594       13.5006246295  LPSA28    1               0.0000000000
     30021       973  ECLIPA    O31            27.8473992723       19.5628567589       12.2941239937  LPSA28    1               0.0000000000
     30022       973  ECLIPA    C32            27.0708352705       18.4564133097       14.2780289507  LPSA28    1               0.0000000000
     30023       973  ECLIPA    H32R           26.1892677267       18.0959940558       13.7149713840  LPSA28    1               0.0000000000
     30024       973  ECLIPA    H32S           26.7808731108       18.7847874844       15.2729523512  LPSA28    1               0.0000000000
     30025       973  ECLIPA    CA2            29.9007168698       21.4035879391       13.4984733916  LPSA28    1               0.0000000000
     30026       973  ECLIPA    HA2            30.1952733020       20.3557031476       13.3982259915  LPSA28    1               0.0000000000
     30027       973  ECLIPA    NA2            29.5498072295       22.0242856940       12.2035087571  LPSA28    1               0.0000000000
     30028       973  ECLIPA    HNA2           28.6159053801       22.2619998549       12.0865030408  LPSA28    1               0.0000000000
     30029       973  ECLIPA    C73            37.6311973152       17.9082668813       14.3319064372  LPSA28    1               0.0000000000
     30030       973  ECLIPA    H73R           38.2473673268       17.9421767039       15.2227416964  LPSA28    1               0.0000000000
     30031       973  ECLIPA    O73            36.8707271185       19.1401401171       14.2644256719  LPSA28    1               0.0000000000
     30032       973  ECLIPA    C81            37.2338800830       20.2906332243       14.8555734565  LPSA28    1               0.0000000000
     30033       973  ECLIPA    O81            38.2104360288       20.2785758536       15.6690894779  LPSA28    1               0.0000000000
     30034       973  ECLIPA    C82            36.3963454851       21.4832361091       14.3536111794  LPSA28    1               0.0000000000
     30035       973  ECLIPA    H82R           36.6750059406       22.4056157782       14.8531840528  LPSA28    1               0.0000000000
     30036       973  ECLIPA    H82S           35.3083370940       21.3220991295       14.5323473422  LPSA28    1               0.0000000000
     30037       973  ECLIPA    C83            36.5809906948       21.6507461988       12.8301722806  LPSA28    1               0.0000000000
     30038       973  ECLIPA    H83R           35.9083653241       20.9253956497       12.2351841548  LPSA28    1               0.0000000000
     30039       973  ECLIPA    H83S           37.5871601110       21.3018661315       12.5911296392  LPSA28    1               0.0000000000
     30040       973  ECLIPA    C84            36.1968187087       23.0492587277       12.3050927261  LPSA28    1               0.0000000000
     30041       973  ECLIPA    H84R           36.9951595437       23.7507417123       12.5767117503  LPSA28    1               0.0000000000
     30042       973  ECLIPA    H84S           35.2361985203       23.2329796119       12.7369555497  LPSA28    1               0.0000000000
     30043       973  ECLIPA    C85            36.0145529790       23.0389244533       10.7695484051  LPSA28    1               0.0000000000
     30044       973  ECLIPA    H85R           35.4473815276       22.1250659010       10.5503608829  LPSA28    1               0.0000000000
     30045       973  ECLIPA    H85S           37.0056733876       22.9102475605       10.2367999955  LPSA28    1               0.0000000000
     30046       973  ECLIPA    C86            35.1478589831       24.2415726115       10.3034592726  LPSA28    1               0.0000000000
     30047       973  ECLIPA    H86R           35.7620589259       25.1510525211        9.9932223571  LPSA28    1               0.0000000000
     30048       973  ECLIPA    H86S           34.4897919117       24.5824449411       11.0807540114  LPSA28    1               0.0000000000
     30049       973  ECLIPA    C87            34.1505198308       23.8481534314        9.1601018854  LPSA28    1               0.0000000000
     30050       973  ECLIPA    H87R           33.5964182073       24.7110188888        8.8049419625  LPSA28    1               0.0000000000
     30051       973  ECLIPA    H87S           33.3679694846       23.1374152658        9.5406723883  LPSA28    1               0.0000000000
     30052       973  ECLIPA    C88            34.8415056437       23.1229105083        8.0318999685  LPSA28    1               0.0000000000
     30053       973  ECLIPA    H88R           35.0941399667       22.0582123321        8.3479828359  LPSA28    1               0.0000000000
     30054       973  ECLIPA    H88S           35.8945920582       23.5151915577        7.9254521495  LPSA28    1               0.0000000000
     30055       973  ECLIPA    C89            34.0114444828       23.0226717230        6.7101000712  LPSA28    1               0.0000000000
     30056       973  ECLIPA    H89R           32.9300315227       23.2190091323        6.8746682686  LPSA28    1               0.0000000000
     30057       973  ECLIPA    H89S           34.0449220463       22.0626913742        6.2317001698  LPSA28    1               0.0000000000
     30058       973  ECLIPA    C810           34.5936312035       24.0320701665        5.7047246593  LPSA28    1               0.0000000000
     30059       973  ECLIPA    H810R          35.6553273293       24.0600707727        6.0108430704  LPSA28    1               0.0000000000
     30060       973  ECLIPA    H810S          34.1307811157       24.9883413672        5.8554647029  LPSA28    1               0.0000000000
     30061       973  ECLIPA    C811           34.4495203052       23.6632920253        4.2179945741  LPSA28    1               0.0000000000
     30062       973  ECLIPA    H811R          34.5401230167       24.4383898034        3.5081125689  LPSA28    1               0.0000000000
     30063       973  ECLIPA    H811S          33.4358679304       23.1143615139        4.1819101877  LPSA28    1               0.0000000000
     30064       973  ECLIPA    C812           35.3533796571       22.5157914336        3.7413673409  LPSA28    1               0.0000000000
     30065       973  ECLIPA    H812R          35.0147894687       22.2476691110        2.6403157337  LPSA28    1               0.0000000000
     30066       973  ECLIPA    H812S          35.3850484849       21.6681277406        4.4144737196  LPSA28    1               0.0000000000
     30067       973  ECLIPA    C813           36.8505290475       22.8702619919        3.6785234959  LPSA28    1               0.0000000000
     30068       973  ECLIPA    H813R          36.9463686004       23.7009876162        2.9398073555  LPSA28    1               0.0000000000
     30069       973  ECLIPA    H813S          37.3205905574       23.2479496834        4.6616087352  LPSA28    1               0.0000000000
     30070       973  ECLIPA    C814           37.7174825975       21.7519799742        3.1377409857  LPSA28    1               0.0000000000
     30071       973  ECLIPA    H814R          37.3285693425       21.2151985784        2.1719074593  LPSA28    1               0.0000000000
     30072       973  ECLIPA    H814S          37.8465427553       20.9882537588        3.9166242729  LPSA28    1               0.0000000000
     30073       973  ECLIPA    H814T          38.7389565804       22.1247342383        2.8964685373  LPSA28    1               0.0000000000
     30074       973  ECLIPA    C74            38.6027642522       18.0031034042       13.1792855021  LPSA28    1               0.0000000000
     30075       973  ECLIPA    H74R           39.3024740667       17.1901461953       12.9935747315  LPSA28    1               0.0000000000
     30076       973  ECLIPA    H74S           39.2454894899       18.9599415403       13.3086690609  LPSA28    1               0.0000000000
     30077       973  ECLIPA    C75            37.8437846707       18.3052780234       11.8151371119  LPSA28    1               0.0000000000
     30078       973  ECLIPA    H75R           38.5340182420       18.9981204313       11.2107603889  LPSA28    1               0.0000000000
     30079       973  ECLIPA    H75S           36.9012144318       18.8526332345       12.0082837783  LPSA28    1               0.0000000000
     30080       973  ECLIPA    C76            37.5231377313       17.0730005271       10.9251453624  LPSA28    1               0.0000000000
     30081       973  ECLIPA    H76R           36.6231297968       16.5534568808       11.3555905686  LPSA28    1               0.0000000000
     30082       973  ECLIPA    H76S           38.3558682064       16.2549015667       10.9731137071  LPSA28    1               0.0000000000
     30083       973  ECLIPA    C77            37.2567337568       17.3222142853        9.4191603634  LPSA28    1               0.0000000000
     30084       973  ECLIPA    H77R           38.1479144397       17.7606462870        9.0408775908  LPSA28    1               0.0000000000
     30085       973  ECLIPA    H77S           36.5183636712       18.1461322848        9.2852383479  LPSA28    1               0.0000000000
     30086       973  ECLIPA    C78            36.7128845061       16.0147093704        8.8297405752  LPSA28    1               0.0000000000
     30087       973  ECLIPA    H78R           37.3737341440       15.2124633309        9.1562620580  LPSA28    1               0.0000000000
     30088       973  ECLIPA    H78S           35.7062258956       15.8918888154        9.3169442960  LPSA28    1               0.0000000000
     30089       973  ECLIPA    C79            36.3426409201       16.1265151584        7.2570767761  LPSA28    1               0.0000000000
     30090       973  ECLIPA    H79R           35.2312533766       16.3325877073        7.1763205913  LPSA28    1               0.0000000000
     30091       973  ECLIPA    H79S           36.5400963263       15.1576813681        6.7882549413  LPSA28    1               0.0000000000
     30092       973  ECLIPA    C710           37.2290917216       17.0149943287        6.3785096220  LPSA28    1               0.0000000000
     30093       973  ECLIPA    H710R          37.1667730438       18.0254139925        6.8460783027  LPSA28    1               0.0000000000
     30094       973  ECLIPA    H710S          38.1921060472       16.6826377949        6.4843026416  LPSA28    1               0.0000000000
     30095       973  ECLIPA    C711           36.7712421100       17.1180468646        4.9384125046  LPSA28    1               0.0000000000
     30096       973  ECLIPA    H711R          36.8499895839       16.0942849933        4.5670708729  LPSA28    1               0.0000000000
     30097       973  ECLIPA    H711S          35.7271536847       17.5224539665        4.9306188492  LPSA28    1               0.0000000000
     30098       973  ECLIPA    C712           37.6841826634       18.0917383242        4.2148670498  LPSA28    1               0.0000000000
     30099       973  ECLIPA    H712R          38.6981128931       17.6884784735        4.3130666899  LPSA28    1               0.0000000000
     30100       973  ECLIPA    H712S          37.6724781928       18.9917584173        4.8522839389  LPSA28    1               0.0000000000
     30101       973  ECLIPA    C713           37.1795752648       18.3886377863        2.7357390519  LPSA28    1               0.0000000000
     30102       973  ECLIPA    H713R          36.1693277866       18.8636158609        2.8800411466  LPSA28    1               0.0000000000
     30103       973  ECLIPA    H713S          37.9506475637       19.1106055903        2.2750064041  LPSA28    1               0.0000000000
     30104       973  ECLIPA    C714           37.2202914182       17.1038595404        1.8879763961  LPSA28    1               0.0000000000
     30105       973  ECLIPA    H714R          38.2493679943       16.7385692270        1.7626189762  LPSA28    1               0.0000000000
     30106       973  ECLIPA    H714S          36.4725624990       16.3680038390        2.2081901572  LPSA28    1               0.0000000000
     30107       973  ECLIPA    H714T          36.9333141152       17.4823222286        0.9249202435  LPSA28    1               0.0000000000
     30108       973  ECLIPA    C51            32.9749725160       18.4594932056       14.2380633031  LPSA28    1               0.0000000000
     30109       973  ECLIPA    O51            33.7256953959       19.4526431297       14.1304636378  LPSA28    1               0.0000000000
     30110       973  ECLIPA    C52            32.6447779667       17.5279237376       13.0157035712  LPSA28    1               0.0000000000
     30111       973  ECLIPA    H52R           33.3194613511       16.6925675522       12.8950255930  LPSA28    1               0.0000000000
     30112       973  ECLIPA    H52S           31.6550214811       17.1867005005       13.2222025935  LPSA28    1               0.0000000000
     30113       973  ECLIPA    C53            32.5170181608       18.4620495027       11.7526064304  LPSA28    1               0.0000000000
     30114       973  ECLIPA    H53R           32.2418259486       19.4800073919       12.0082431084  LPSA28    1               0.0000000000
     30115       973  ECLIPA    O53            31.6486661240       17.7671143402       10.8431816314  LPSA28    1               0.0000000000
     30116       973  ECLIPA    C61            30.5024800681       18.3368539079       10.5090573566  LPSA28    1               0.0000000000
     30117       973  ECLIPA    O61            30.1182012390       19.4062207625       10.8659713306  LPSA28    1               0.0000000000
     30118       973  ECLIPA    C62            29.7275273742       17.3969551653        9.5765835255  LPSA28    1               0.0000000000
     30119       973  ECLIPA    H62R           29.2486971090       16.6249772198       10.2152837125  LPSA28    1               0.0000000000
     30120       973  ECLIPA    H62S           30.4947604679       16.7922602492        9.0470049452  LPSA28    1               0.0000000000
     30121       973  ECLIPA    C63            28.7275183664       18.1715305288        8.6803029234  LPSA28    1               0.0000000000
     30122       973  ECLIPA    H63R           29.2670669220       19.0449989118        8.2798705976  LPSA28    1               0.0000000000
     30123       973  ECLIPA    H63S           27.8306063078       18.5759377329        9.3252199642  LPSA28    1               0.0000000000
     30124       973  ECLIPA    C64            28.1293354295       17.4619381709        7.5279067597  LPSA28    1               0.0000000000
     30125       973  ECLIPA    H64R           27.3456347154       18.0815646538        6.9620099216  LPSA28    1               0.0000000000
     30126       973  ECLIPA    H64S           27.6450413443       16.5135741840        7.9657393466  LPSA28    1               0.0000000000
     30127       973  ECLIPA    C65            29.2594038156       17.0014922220        6.5414948800  LPSA28    1               0.0000000000
     30128       973  ECLIPA    H65R           29.8473270715       16.3564272320        7.2423230371  LPSA28    1               0.0000000000
     30129       973  ECLIPA    H65S           29.8224743184       17.8911693240        6.1828980290  LPSA28    1               0.0000000000
     30130       973  ECLIPA    C66            28.8120711585       16.2219366000        5.2222643966  LPSA28    1               0.0000000000
     30131       973  ECLIPA    H66R           28.2973005740       15.3175636681        5.5395647249  LPSA28    1               0.0000000000
     30132       973  ECLIPA    H66S           29.8351962546       15.9734190928        4.8113963288  LPSA28    1               0.0000000000
     30133       973  ECLIPA    C67            28.0274628833       16.9634366254        4.1696839457  LPSA28    1               0.0000000000
     30134       973  ECLIPA    H67R           27.1598014794       17.4855386230        4.5058181646  LPSA28    1               0.0000000000
     30135       973  ECLIPA    H67S           27.7237611011       16.2543012076        3.3478820057  LPSA28    1               0.0000000000
     30136       973  ECLIPA    C68            28.7868964215       18.0832567851        3.5077075145  LPSA28    1               0.0000000000
     30137       973  ECLIPA    H68R           29.7593710327       17.8518684650        3.0112508411  LPSA28    1               0.0000000000
     30138       973  ECLIPA    H68S           28.8773501714       18.7947019628        4.3087918325  LPSA28    1               0.0000000000
     30139       973  ECLIPA    C69            28.0063838696       18.5910643777        2.2963532923  LPSA28    1               0.0000000000
     30140       973  ECLIPA    H69R           26.9083528790       18.4511875448        2.3203210098  LPSA28    1               0.0000000000
     30141       973  ECLIPA    H69S           28.2817033873       17.9396413450        1.4693744207  LPSA28    1               0.0000000000
     30142       973  ECLIPA    C610           28.2941652139       20.0036809476        1.9396251084  LPSA28    1               0.0000000000
     30143       973  ECLIPA    H610R          29.3920946765       20.2166352154        2.0603347121  LPSA28    1               0.0000000000
     30144       973  ECLIPA    H610S          27.7973074524       20.6979928353        2.6933643884  LPSA28    1               0.0000000000
     30145       973  ECLIPA    C611           27.7400452579       20.4178174154        0.5312153135  LPSA28    1               0.0000000000
     30146       973  ECLIPA    H611R          26.6470554243       20.2442752288        0.5735373188  LPSA28    1               0.0000000000
     30147       973  ECLIPA    H611S          27.7258990668       21.4838929702        0.3609598123  LPSA28    1               0.0000000000
     30148       973  ECLIPA    C612           28.4950256405       19.7061594185       -0.5788949292  LPSA28    1               0.0000000000
     30149       973  ECLIPA    H612R          29.5459713808       20.1101851278       -0.6060949542  LPSA28    1               0.0000000000
     30150       973  ECLIPA    H612S          28.6134390932       18.6483726410       -0.3132441764  LPSA28    1               0.0000000000
     30151       973  ECLIPA    H612T          28.0309850266       19.8584905004       -1.5574606966  LPSA28    1               0.0000000000
     30152       973  ECLIPA    C54            33.9451739530       18.4800643792       11.1776054589  LPSA28    1               0.0000000000
     30153       973  ECLIPA    H54R           34.2237147595       17.4234233773       10.8869876633  LPSA28    1               0.0000000000
     30154       973  ECLIPA    H54S           34.6715528711       18.7604625544       11.9574517429  LPSA28    1               0.0000000000
     30155       973  ECLIPA    C55            34.2542337558       19.3858476904        9.9916770240  LPSA28    1               0.0000000000
     30156       973  ECLIPA    H55R           35.3384863834       19.5341541556        9.7856946516  LPSA28    1               0.0000000000
     30157       973  ECLIPA    H55S           33.8269353488       20.4210813044       10.2436295858  LPSA28    1               0.0000000000
     30158       973  ECLIPA    C56            33.7291206833       18.7128483273        8.7515486822  LPSA28    1               0.0000000000
     30159       973  ECLIPA    H56R           32.6097736447       18.5606427218        8.8382497819  LPSA28    1               0.0000000000
     30160       973  ECLIPA    H56S           34.1482114996       17.7930126467        8.4741334449  LPSA28    1               0.0000000000
     30161       973  ECLIPA    C57            33.6964450185       19.5843564975        7.4395707935  LPSA28    1               0.0000000000
     30162       973  ECLIPA    H57R           34.6708528443       20.0037116814        7.1827428724  LPSA28    1               0.0000000000
     30163       973  ECLIPA    H57S           33.0343010158       20.4724144671        7.5196553379  LPSA28    1               0.0000000000
     30164       973  ECLIPA    C58            33.0929404522       18.7530014964        6.2350750625  LPSA28    1               0.0000000000
     30165       973  ECLIPA    H58R           33.5167697831       17.7110109809        6.2095761879  LPSA28    1               0.0000000000
     30166       973  ECLIPA    H58S           32.0320094419       18.5155688331        6.5224540661  LPSA28    1               0.0000000000
     30167       973  ECLIPA    C59            33.3578034466       19.4413241619        4.8667186835  LPSA28    1               0.0000000000
     30168       973  ECLIPA    H59R           34.4325943301       19.5904142779        4.6589989540  LPSA28    1               0.0000000000
     30169       973  ECLIPA    H59S           32.8385443224       20.3957703254        5.0825555512  LPSA28    1               0.0000000000
     30170       973  ECLIPA    C510           32.9042695715       18.5781558260        3.6752379292  LPSA28    1               0.0000000000
     30171       973  ECLIPA    H510R          31.8769540559       18.0893786801        3.7937959224  LPSA28    1               0.0000000000
     30172       973  ECLIPA    H510S          33.6583250316       17.6936579711        3.4613250382  LPSA28    1               0.0000000000
     30173       973  ECLIPA    C511           32.8666944072       19.2783685590        2.3004848829  LPSA28    1               0.0000000000
     30174       973  ECLIPA    H511R          31.9184384729       19.8485167672        2.2679211996  LPSA28    1               0.0000000000
     30175       973  ECLIPA    H511S          33.6806875794       20.0530082905        2.1940961976  LPSA28    1               0.0000000000
     30176       973  ECLIPA    C512           32.8617756173       18.3662055133        1.0189424135  LPSA28    1               0.0000000000
     30177       973  ECLIPA    H512R          33.0600657792       18.9850511787        0.0815295424  LPSA28    1               0.0000000000
     30178       973  ECLIPA    H512S          33.6406455352       17.5993608511        1.1129704346  LPSA28    1               0.0000000000
     30179       973  ECLIPA    C513           31.4443408701       17.7346099548        0.6457389972  LPSA28    1               0.0000000000
     30180       973  ECLIPA    H513R          30.6599179856       18.5408409705        0.5010832175  LPSA28    1               0.0000000000
     30181       973  ECLIPA    H513S          31.1005715359       17.1438914454        1.4088770719  LPSA28    1               0.0000000000
     30182       973  ECLIPA    C514           31.5219450199       16.9861265049       -0.6567184026  LPSA28    1               0.0000000000
     30183       973  ECLIPA    H514R          32.3158844950       16.2401785367       -0.6273993866  LPSA28    1               0.0000000000
     30184       973  ECLIPA    H514S          30.5875012617       16.4224395469       -0.7024724270  LPSA28    1               0.0000000000
     30185       973  ECLIPA    H514T          31.6845474241       17.7019635486       -1.5427815912  LPSA28    1               0.0000000000
     30186       973  ECLIPA    C33            27.9691386599       17.1543311007       14.4880792826  LPSA28    1               0.0000000000
     30187       973  ECLIPA    H33R           27.2821255997       16.3342439096       14.8828993596  LPSA28    1               0.0000000000
     30188       973  ECLIPA    O33            28.9635718386       17.3809394494       15.4699768821  LPSA28    1               0.0000000000
     30189       973  ECLIPA    HO33           28.5530675099       17.4022441571       16.2926205744  LPSA28    1               0.0000000000
     30190       973  ECLIPA    C34            28.6664949967       16.5826388008       13.2255459338  LPSA28    1               0.0000000000
     30191       973  ECLIPA    H34R           29.3192860516       17.3374465579       12.8010908313  LPSA28    1               0.0000000000
     30192       973  ECLIPA    H34S           27.8957087942       16.4156476838       12.3772221142  LPSA28    1               0.0000000000
     30193       973  ECLIPA    C35            29.4929846247       15.2991983832       13.4256256262  LPSA28    1               0.0000000000
     30194       973  ECLIPA    H35R           28.8090184625       14.4980666101       13.6963698038  LPSA28    1               0.0000000000
     30195       973  ECLIPA    H35S           30.1814825593       15.4516776206       14.2668166019  LPSA28    1               0.0000000000
     30196       973  ECLIPA    C36            30.2130306377       14.7289560597       12.1865608177  LPSA28    1               0.0000000000
     30197       973  ECLIPA    H36R           30.4421321151       15.7197907583       11.7430812241  LPSA28    1               0.0000000000
     30198       973  ECLIPA    H36S           29.5709008162       14.1150134529       11.4785220412  LPSA28    1               0.0000000000
     30199       973  ECLIPA    C37            31.5605023858       14.1199766519       12.5255831563  LPSA28    1               0.0000000000
     30200       973  ECLIPA    H37R           31.3139424216       12.9737316910       12.6765215637  LPSA28    1               0.0000000000
     30201       973  ECLIPA    H37S           31.9356341855       14.4478527082       13.5128993321  LPSA28    1               0.0000000000
     30202       973  ECLIPA    C38            32.6596108750       14.2230232559       11.4317274953  LPSA28    1               0.0000000000
     30203       973  ECLIPA    H38R           33.1600139602       15.2053286857       11.4067421357  LPSA28    1               0.0000000000
     30204       973  ECLIPA    H38S           33.4718809983       13.5327357601       11.7230999881  LPSA28    1               0.0000000000
     30205       973  ECLIPA    C39            32.0872462120       13.9750192263       10.0213367345  LPSA28    1               0.0000000000
     30206       973  ECLIPA    H39R           31.2296941841       14.6684222126        9.8128797222  LPSA28    1               0.0000000000
     30207       973  ECLIPA    H39S           31.8347169076       12.8827035818        9.9697980947  LPSA28    1               0.0000000000
     30208       973  ECLIPA    C310           33.0718786193       14.1079681541        8.8401719124  LPSA28    1               0.0000000000
     30209       973  ECLIPA    H310R          33.8353052471       13.2725954045        9.0626900142  LPSA28    1               0.0000000000
     30210       973  ECLIPA    H310S          33.5964192067       15.1063740892        8.8945759064  LPSA28    1               0.0000000000
     30211       973  ECLIPA    C311           32.3681700901       14.2287109943        7.5676235846  LPSA28    1               0.0000000000
     30212       973  ECLIPA    H311R          31.4728416352       13.5565541583        7.5507520616  LPSA28    1               0.0000000000
     30213       973  ECLIPA    H311S          32.0008450235       15.2634002900        7.2851462164  LPSA28    1               0.0000000000
     30214       973  ECLIPA    C312           33.2400907844       13.9300116587        6.3280121142  LPSA28    1               0.0000000000
     30215       973  ECLIPA    H312R          34.2894913289       14.2856095866        6.4861373960  LPSA28    1               0.0000000000
     30216       973  ECLIPA    H312S          33.2492312385       12.8206709801        6.1820758986  LPSA28    1               0.0000000000
     30217       973  ECLIPA    C313           32.7089084147       14.5385712581        4.9895779706  LPSA28    1               0.0000000000
     30218       973  ECLIPA    H313R          31.8688124149       13.9505470760        4.7825120466  LPSA28    1               0.0000000000
     30219       973  ECLIPA    H313S          32.3716437996       15.5995698116        5.1572698764  LPSA28    1               0.0000000000
     30220       973  ECLIPA    C314           33.6262476312       14.5099547877        3.8116661598  LPSA28    1               0.0000000000
     30221       973  ECLIPA    H314R          33.9300223049       13.4473556470        3.6067793993  LPSA28    1               0.0000000000
     30222       973  ECLIPA    H314S          33.2309461333       14.9340664918        2.8849361441  LPSA28    1               0.0000000000
     30223       973  ECLIPA    H314T          34.6026234164       15.0633036887        4.0446347774  LPSA28    1               0.0000000000
     30224       973  ECLIPA    C11            30.3913513107       22.4408194051       11.2900808200  LPSA28    1               0.0000000000
     30225       973  ECLIPA    O11            31.5744104598       22.1614993791       11.1394597694  LPSA28    1               0.0000000000
     30226       973  ECLIPA    C12            29.8029486746       23.4753262827       10.2853014675  LPSA28    1               0.0000000000
     30227       973  ECLIPA    H12R           30.1975361401       24.5041239253       10.4852637814  LPSA28    1               0.0000000000
     30228       973  ECLIPA    H12S           28.7063831357       23.4454816836       10.5222272274  LPSA28    1               0.0000000000
     30229       973  ECLIPA    C13            30.0065218047       23.1524865401        8.8110583416  LPSA28    1               0.0000000000
     30230       973  ECLIPA    H13R           31.0769031657       22.7834850694        8.5839874118  LPSA28    1               0.0000000000
     30231       973  ECLIPA    O13            29.8397702838       24.4239272089        8.1311342176  LPSA28    1               0.0000000000
     30232       973  ECLIPA    HO13           30.2893822228       24.4077186096        7.3064966676  LPSA28    1               0.0000000000
     30233       973  ECLIPA    C14            29.0242325004       22.0600958534        8.4581579993  LPSA28    1               0.0000000000
     30234       973  ECLIPA    H14R           28.0040398036       22.2048495372        8.9706443184  LPSA28    1               0.0000000000
     30235       973  ECLIPA    H14S           29.4994899212       21.0929962914        8.7243868424  LPSA28    1               0.0000000000
     30236       973  ECLIPA    C15            28.7148010237       21.9583410074        6.9526486677  LPSA28    1               0.0000000000
     30237       973  ECLIPA    H15R           28.4281192108       22.9155441547        6.5500123177  LPSA28    1               0.0000000000
     30238       973  ECLIPA    H15S           27.9120233243       21.2229887712        6.8782608049  LPSA28    1               0.0000000000
     30239       973  ECLIPA    C16            29.9660100550       21.5000902219        6.1622847334  LPSA28    1               0.0000000000
     30240       973  ECLIPA    H16R           30.1382817517       20.3676975137        6.2733383262  LPSA28    1               0.0000000000
     30241       973  ECLIPA    H16S           30.8523791734       21.8508997928        6.7182496574  LPSA28    1               0.0000000000
     30242       973  ECLIPA    C17            29.9077639484       21.8628387611        4.6801229578  LPSA28    1               0.0000000000
     30243       973  ECLIPA    H17R           28.8425510299       21.5735548890        4.4246758429  LPSA28    1               0.0000000000
     30244       973  ECLIPA    H17S           30.5519579318       21.2903651051        4.0046542873  LPSA28    1               0.0000000000
     30245       973  ECLIPA    C18            30.1562808822       23.3286950278        4.4504458171  LPSA28    1               0.0000000000
     30246       973  ECLIPA    H18R           29.4392887822       23.7752674695        5.0865821920  LPSA28    1               0.0000000000
     30247       973  ECLIPA    H18S           31.2121300380       23.5549958443        4.7749867078  LPSA28    1               0.0000000000
     30248       973  ECLIPA    C19            29.9593040198       23.7295751329        3.0097966450  LPSA28    1               0.0000000000
     30249       973  ECLIPA    H19R           30.0268474622       24.8049983662        2.9245509529  LPSA28    1               0.0000000000
     30250       973  ECLIPA    H19S           28.9482877905       23.3716903991        2.6238151240  LPSA28    1               0.0000000000
     30251       973  ECLIPA    C110           31.0837635152       23.1694443873        2.1045801788  LPSA28    1               0.0000000000
     30252       973  ECLIPA    H110R          32.1032163966       23.3641212409        2.4416701971  LPSA28    1               0.0000000000
     30253       973  ECLIPA    H110S          30.8425616797       22.0849937786        2.1583327743  LPSA28    1               0.0000000000
     30254       973  ECLIPA    C111           30.8744880235       23.6649571017        0.7563571155  LPSA28    1               0.0000000000
     30255       973  ECLIPA    H111R          29.8066606470       23.6505104774        0.3999767799  LPSA28    1               0.0000000000
     30256       973  ECLIPA    H111S          31.1122549707       24.6960912919        0.7977177860  LPSA28    1               0.0000000000
     30257       973  ECLIPA    C112           31.7924834187       23.0199249236       -0.2937360943  LPSA28    1               0.0000000000
     30258       973  ECLIPA    H112R          32.7781900619       23.2314705220        0.1973446929  LPSA28    1               0.0000000000
     30259       973  ECLIPA    H112S          31.7742863842       21.9298026089       -0.2177998937  LPSA28    1               0.0000000000
     30260       973  ECLIPA    C113           31.4370572222       23.3743124568       -1.7468031795  LPSA28    1               0.0000000000
     30261       973  ECLIPA    H113R          30.4463168219       22.9202882704       -1.9802017524  LPSA28    1               0.0000000000
     30262       973  ECLIPA    H113S          31.2579243030       24.4489584762       -1.8531093719  LPSA28    1               0.0000000000
     30263       973  ECLIPA    C114           32.4464496440       23.1065185077       -2.8344928043  LPSA28    1               0.0000000000
     30264       973  ECLIPA    H114R          33.4750288874       23.4529289067       -2.7829422503  LPSA28    1               0.0000000000
     30265       973  ECLIPA    H114S          32.5366198250       21.9957810242       -2.9951089580  LPSA28    1               0.0000000000
     30266       973  ECLIPA    H114T          32.1607987316       23.6766791693       -3.7399523103  LPSA28    1               0.0000000000
     30267       974  AKDO      C1             33.3553552736       17.1103974293       22.4410509549  LPSA28    2               0.0000000000
     30268       974  AKDO      O11            34.4163520976       16.3983425406       22.4913720772  LPSA28    2               0.0000000000
     30269       974  AKDO      O12            32.1840716399       16.8051017514       22.0800765534  LPSA28    2               0.0000000000
     30270       974  AKDO      C2             33.5321051162       18.5639397037       22.8913181237  LPSA28    2               0.0000000000
     30271       974  AKDO      C6             35.1318232197       20.0509263975       23.8039205188  LPSA28    2               0.0000000000
     30272       974  AKDO      H6             35.0617395125       20.6708926273       22.9487387861  LPSA28    2               0.0000000000
     30273       974  AKDO      O6             34.8088895823       18.6522578621       23.4267274814  LPSA28    2               0.0000000000
     30274       974  AKDO      C3             32.5895126080       18.9634620099       23.9587385105  LPSA28    2               0.0000000000
     30275       974  AKDO      H31            32.5576867370       18.3211439283       24.7868435866  LPSA28    2               0.0000000000
     30276       974  AKDO      H32            31.5291640745       19.0308748634       23.4151264596  LPSA28    2               0.0000000000
     30277       974  AKDO      C4             32.8663597894       20.4027292675       24.3842593775  LPSA28    2               0.0000000000
     30278       974  AKDO      H4             32.8663304369       21.0900589413       23.5563617270  LPSA28    2               0.0000000000
     30279       974  AKDO      O4             31.8924659421       20.8083896731       25.3355834555  LPSA28    2               0.0000000000
     30280       974  AKDO      C5             34.2101767342       20.5900585204       24.9292437177  LPSA28    2               0.0000000000
     30281       974  AKDO      H5             34.4547169818       21.6819650681       25.0107888161  LPSA28    2               0.0000000000
     30282       974  AKDO      O5             34.2960056114       19.8298882981       26.2083878813  LPSA28    2               0.0000000000
     30283       974  AKDO      C7             36.6690138233       20.2344888811       24.1981149098  LPSA28    2               0.0000000000
     30284       974  AKDO      H7             36.8573029812       19.6461105381       25.0939202098  LPSA28    2               0.0000000000
     30285       974  AKDO      O7             37.0243085450       21.6343635448       24.3482682347  LPSA28    2               0.0000000000
     30286       974  AKDO      HO7            37.0983525272       21.9659876541       23.4945166536  LPSA28    2               0.0000000000
     30287       974  AKDO      C8             37.4905281698       19.6756841061       22.9864433882  LPSA28    2               0.0000000000
     30288       974  AKDO      H81            37.1806554445       18.6055715761       22.9153150275  LPSA28    2               0.0000000000
     30289       974  AKDO      H82            37.2066914305       20.3208177120       22.0745354517  LPSA28    2               0.0000000000
     30290       974  AKDO      O8             38.9313206509       19.7488272635       23.3537996748  LPSA28    2               0.0000000000
     30291       974  AKDO      HO8            39.3951815101       18.9874749386       22.9179804014  LPSA28    2               0.0000000000
     30292       975  AKDO      C1             30.7662334532       22.2243422809       23.8027969005  LPSA28    3               1.0000000000
     30293       975  AKDO      O11            30.4889209737       21.7825885793       22.6471489042  LPSA28    3               1.0000000000
     30294       975  AKDO      O12            31.1483879620       23.3895006776       24.0656860145  LPSA28    3               1.0000000000
     30295       975  AKDO      C2             30.6145992871       21.3185946213       25.0166033796  LPSA28    3               1.0000000000
     30296       975  AKDO      C6             29.6201091352       19.2632329301       25.7688829792  LPSA28    3               1.0000000000
     30297       975  AKDO      H6             30.6416069946       18.8074887195       25.9810553331  LPSA28    3               1.0000000000
     30298       975  AKDO      O6             29.7201209936       20.1931700780       24.7076657818  LPSA28    3               1.0000000000
     30299       975  AKDO      C3             30.1169817362       22.0011226085       26.3187707743  LPSA28    3               1.0000000000
     30300       975  AKDO      H31            29.0487134573       22.4398428824       26.1504935106  LPSA28    3               1.0000000000
     30301       975  AKDO      H32            30.7665355316       22.8438393148       26.5929217108  LPSA28    3               1.0000000000
     30302       975  AKDO      C4             30.0606840585       20.9560838385       27.4036122013  LPSA28    3               1.0000000000
     30303       975  AKDO      H4             31.0259283566       20.4405053863       27.4051754129  LPSA28    3               1.0000000000
     30304       975  AKDO      O4             29.8244253229       21.4263216378       28.7388570077  LPSA28    3               1.0000000000
     30305       975  AKDO      HO4            30.4947421315       21.1993411987       29.3717785514  LPSA28    3               1.0000000000
     30306       975  AKDO      C5             29.1563816705       19.9327432710       27.0369167275  LPSA28    3               1.0000000000
     30307       975  AKDO      H5             29.0569366826       19.1997041347       27.9236884022  LPSA28    3               1.0000000000
     30308       975  AKDO      O5             27.8327118005       20.4679093207       26.8495261943  LPSA28    3               1.0000000000
     30309       975  AKDO      HO5            27.8468626437       21.1289831487       26.1887877298  LPSA28    3               1.0000000000
     30310       975  AKDO      C7             28.6741560235       18.1753703815       25.3258859863  LPSA28    3               1.0000000000
     30311       975  AKDO      H7             27.6385202824       18.5815005380       25.1324849511  LPSA28    3               1.0000000000
     30312       975  AKDO      O7             28.6212840738       17.1606828092       26.3661029982  LPSA28    3               1.0000000000
     30313       975  AKDO      HO7            27.8861896616       16.5437624259       26.1647669547  LPSA28    3               1.0000000000
     30314       975  AKDO      C8             29.2797381648       17.5222664895       24.1539635864  LPSA28    3               1.0000000000
     30315       975  AKDO      H81            29.4215446421       18.2475384555       23.3419478721  LPSA28    3               1.0000000000
     30316       975  AKDO      H82            30.2484366123       17.0170021287       24.2853144505  LPSA28    3               1.0000000000
     30317       975  AKDO      O8             28.4089107714       16.5324895240       23.6541307456  LPSA28    3               1.0000000000
     30318       975  AKDO      HO8            27.7736297787       17.1511902264       23.2473452835  LPSA28    3               1.0000000000
     30319       976  AHEP      C1             35.0620375887       20.3571379488       27.2793229502  LPSA28    4               2.0000000000
     30320       976  AHEP      H1             36.0543960922       19.9971562032       26.8517192453  LPSA28    4               2.0000000000
     30321       976  AHEP      C5             34.0391465146       22.4258267590       28.0185271385  LPSA28    4               2.0000000000
     30322       976  AHEP      H5             33.0908154035       21.9412599783       27.5619054335  LPSA28    4               2.0000000000
     30323       976  AHEP      O5             35.1452256688       21.7796830045       27.3942805697  LPSA28    4               2.0000000000
     30324       976  AHEP      C2             35.0097301978       19.8094595400       28.6827861277  LPSA28    4               2.0000000000
     30325       976  AHEP      H2             34.8981047087       18.7212707908       28.7442425996  LPSA28    4               2.0000000000
     30326       976  AHEP      O2             36.1858149352       20.1149094637       29.3407203943  LPSA28    4               2.0000000000
     30327       976  AHEP      HO2            36.4595886912       19.3762083336       29.8507927467  LPSA28    4               2.0000000000
     30328       976  AHEP      C3             33.8484558695       20.4296321703       29.4857672188  LPSA28    4               2.0000000000
     30329       976  AHEP      H3             32.8406026928       20.0769778310       29.2269906369  LPSA28    4               2.0000000000
     30330       976  AHEP      O3             33.9364761027       20.0559349044       30.7882097304  LPSA28    4               2.0000000000
     30331       976  AHEP      C4             33.9695827089       21.9315869538       29.4546205599  LPSA28    4               2.0000000000
     30332       976  AHEP      H4             34.8616325550       22.3570058751       29.9788637739  LPSA28    4               2.0000000000
     30333       976  AHEP      O4             32.8185187614       22.4916176607       30.0145912217  LPSA28    4               2.0000000000
     30334       976  AHEP      P4             32.8164672816       23.2413127247       31.4978499249  LPSA28    4               2.0000000000
     30335       976  AHEP      OP42           31.5157949221       23.0005552914       32.1560374192  LPSA28    4               2.0000000000
     30336       976  AHEP      OP43           32.9851942830       24.6600735033       31.0397938518  LPSA28    4               2.0000000000
     30337       976  AHEP      OP44           34.0724867952       22.7952056047       32.3098937101  LPSA28    4               2.0000000000
     30338       976  AHEP      C6             34.0750177485       23.9809447395       27.7982482844  LPSA28    4               2.0000000000
     30339       976  AHEP      H6             33.0438398168       24.3520675210       28.0833143566  LPSA28    4               2.0000000000
     30340       976  AHEP      O6             35.0361017861       24.5188248727       28.7103505027  LPSA28    4               2.0000000000
     30341       976  AHEP      HO6            34.6735158281       25.2918479334       29.2203787365  LPSA28    4               2.0000000000
     30342       976  AHEP      C7             34.3506265488       24.4054405622       26.3054198206  LPSA28    4               2.0000000000
     30343       976  AHEP      H71            34.2015025305       25.5265668853       26.1576126064  LPSA28    4               2.0000000000
     30344       976  AHEP      H72            33.7527353973       23.7587455380       25.6323487339  LPSA28    4               2.0000000000
     30345       976  AHEP      O7             35.7196850708       24.1901884978       25.9755159574  LPSA28    4               2.0000000000
     30346       976  AHEP      HO7            36.2273549787       24.9393952996       26.3256794122  LPSA28    4               2.0000000000
     30347       977  AHEP      C1             32.8752654143       19.3165123696       31.4342177374  LPSA28    5               3.0000000000
     30348       977  AHEP      H1             31.8773560948       19.5517551555       30.9794447437  LPSA28    5               3.0000000000
     30349       977  AHEP      C5             34.2786265161       17.4526102990       31.9165413065  LPSA28    5               3.0000000000
     30350       977  AHEP      H5             35.1283671489       18.1493435962       31.6031509785  LPSA28    5               3.0000000000
     30351       977  AHEP      O5             33.0798364178       17.8979379202       31.3013865768  LPSA28    5               3.0000000000
     30352       977  AHEP      C2             32.7486244617       19.5831352680       32.9718957084  LPSA28    5               3.0000000000
     30353       977  AHEP      H2             32.6550802809       20.7103529960       33.0921707216  LPSA28    5               3.0000000000
     30354       977  AHEP      O2             31.5717673915       18.9740406646       33.4691025827  LPSA28    5               3.0000000000
     30355       977  AHEP      HO2            30.9075714234       19.6341333049       33.6403503244  LPSA28    5               3.0000000000
     30356       977  AHEP      C3             34.0382433650       19.1516011600       33.7004304811  LPSA28    5               3.0000000000
     30357       977  AHEP      H3             34.8987482580       19.7244861092       33.3375632548  LPSA28    5               3.0000000000
     30358       977  AHEP      O3             34.0439795540       19.3203440689       35.1462238331  LPSA28    5               3.0000000000
     30359       977  AHEP      C4             34.2015448661       17.6913774553       33.4524658705  LPSA28    5               3.0000000000
     30360       977  AHEP      H4             33.3284969791       17.0981899390       33.8188816395  LPSA28    5               3.0000000000
     30361       977  AHEP      O4             35.4462634259       17.2618909348       34.0881196202  LPSA28    5               3.0000000000
     30362       977  AHEP      P4             35.4270637084       16.2041987492       35.2810123301  LPSA28    5               3.0000000000
     30363       977  AHEP      OP42           36.8375952079       16.1700433055       35.8202965042  LPSA28    5               3.0000000000
     30364       977  AHEP      OP43           35.0279028488       14.8629476914       34.6107506294  LPSA28    5               3.0000000000
     30365       977  AHEP      OP44           34.3576084845       16.6523135309       36.2417033353  LPSA28    5               3.0000000000
     30366       977  AHEP      C6             34.6533295071       16.0084962861       31.5493607386  LPSA28    5               3.0000000000
     30367       977  AHEP      H6             35.6395695264       15.7249505750       31.9533288164  LPSA28    5               3.0000000000
     30368       977  AHEP      O6             33.6699494689       15.1052110659       32.0428602265  LPSA28    5               3.0000000000
     30369       977  AHEP      HO6            32.8155071282       15.0665769476       31.5367188277  LPSA28    5               3.0000000000
     30370       977  AHEP      C7             34.9020284325       15.9059738676       30.0822725317  LPSA28    5               3.0000000000
     30371       977  AHEP      H71            35.6920933872       15.1409652934       29.9169108581  LPSA28    5               3.0000000000
     30372       977  AHEP      H72            35.2597885806       16.8441012774       29.6179339851  LPSA28    5               3.0000000000
     30373       977  AHEP      O7             33.7000781328       15.3634721490       29.4957736452  LPSA28    5               3.0000000000
     30374       978  AHEP      C1             32.9400719629       16.2996915993       28.7926622005  LPSA28    6               4.0000000000
     30375       978  AHEP      H1             33.2867289527       17.3621198125       29.0422981953  LPSA28    6               4.0000000000
     30376       978  AHEP      C5             32.6464409989       14.8443607369       26.9237617191  LPSA28    6               4.0000000000
     30377       978  AHEP      H5             33.2041517140       14.0794692852       27.4818042043  LPSA28    6               4.0000000000
     30378       978  AHEP      O5             33.0514016778       16.1532830162       27.3547530115  LPSA28    6               4.0000000000
     30379       978  AHEP      C2             31.5083584487       16.1946997587       29.2397872647  LPSA28    6               4.0000000000
     30380       978  AHEP      H2             31.4932504377       16.4035791433       30.3523091474  LPSA28    6               4.0000000000
     30381       978  AHEP      O2             30.7066716940       17.2272246029       28.7267108980  LPSA28    6               4.0000000000
     30382       978  AHEP      HO2            30.5332895932       17.7753142106       29.4669064354  LPSA28    6               4.0000000000
     30383       978  AHEP      C3             30.9911637405       14.7881083642       28.8468391403  LPSA28    6               4.0000000000
     30384       978  AHEP      H3             31.5707528882       14.0626976795       29.4311808254  LPSA28    6               4.0000000000
     30385       978  AHEP      O3             29.5480088995       14.5480974360       29.2225362108  LPSA28    6               4.0000000000
     30386       978  AHEP      HO3            29.3897199908       14.0628198007       29.9865592523  LPSA28    6               4.0000000000
     30387       978  AHEP      C4             31.1681820221       14.6653402971       27.2761740859  LPSA28    6               4.0000000000
     30388       978  AHEP      H4             30.4621281289       15.3270186299       26.7944950683  LPSA28    6               4.0000000000
     30389       978  AHEP      O4             30.7455111329       13.3809509204       26.7938835778  LPSA28    6               4.0000000000
     30390       978  AHEP      HO4            31.4857482806       12.7594208368       27.1589530594  LPSA28    6               4.0000000000
     30391       978  AHEP      C6             32.9849086862       14.5603223772       25.4906533340  LPSA28    6               4.0000000000
     30392       978  AHEP      H6             32.7198596767       13.5189602340       25.3442628137  LPSA28    6               4.0000000000
     30393       978  AHEP      O6             32.0855234582       15.2710722929       24.6375675438  LPSA28    6               4.0000000000
     30394       978  AHEP      HO6            32.5631973967       15.8070682894       23.9977784313  LPSA28    6               4.0000000000
     30395       978  AHEP      C7             34.4476578243       14.6892772378       25.1799756221  LPSA28    6               4.0000000000
     30396       978  AHEP      H71            34.6048444003       14.2919014423       24.1408078076  LPSA28    6               4.0000000000
     30397       978  AHEP      H72            34.9718168183       14.0647032057       25.9252229174  LPSA28    6               4.0000000000
     30398       978  AHEP      O7             34.9334466497       15.9971421499       25.2517430265  LPSA28    6               4.0000000000
     30399       978  AHEP      HO7            35.1351462038       16.1256858200       26.2011285002  LPSA28    6               4.0000000000
     30400       979  AGLC      C1             34.4674614466       20.5780861007       35.6520976122  LPSA28    7               4.0000000000
     30401       979  AGLC      H1             35.4897266119       20.8315040493       35.2047739589  LPSA28    7               4.0000000000
     30402       979  AGLC      C5             32.3259900854       21.4606078788       36.0987679218  LPSA28    7               4.0000000000
     30403       979  AGLC      H5             31.8438876541       20.5089218731       35.8327124756  LPSA28    7               4.0000000000
     30404       979  AGLC      O5             33.5389622695       21.6013856766       35.4366254460  LPSA28    7               4.0000000000
     30405       979  AGLC      C2             34.6756423054       20.5294848876       37.1582745954  LPSA28    7               4.0000000000
     30406       979  AGLC      H2             34.9450881020       21.5963905793       37.4887389927  LPSA28    7               4.0000000000
     30407       979  AGLC      O2             35.8739520047       19.8072128993       37.5024056006  LPSA28    7               4.0000000000
     30408       979  AGLC      HO2            35.5915898413       18.9063042542       37.6430208865  LPSA28    7               4.0000000000
     30409       979  AGLC      C3             33.5038689890       20.3427799860       37.9903802326  LPSA28    7               4.0000000000
     30410       979  AGLC      H3             33.1078012467       19.3774125269       37.6727250444  LPSA28    7               4.0000000000
     30411       979  AGLC      O3             33.7186862625       20.1671268144       39.4204481292  LPSA28    7               4.0000000000
     30412       979  AGLC      C4             32.6067773235       21.4785078860       37.5928595998  LPSA28    7               4.0000000000
     30413       979  AGLC      H4             33.0451744321       22.4797789059       37.9560286200  LPSA28    7               4.0000000000
     30414       979  AGLC      O4             31.3407457669       21.1900539655       38.2243117391  LPSA28    7               4.0000000000
     30415       979  AGLC      HO4            30.9354730444       21.9352618881       38.6132003238  LPSA28    7               4.0000000000
     30416       979  AGLC      C6             31.2956113177       22.4649939048       35.5245160098  LPSA28    7               4.0000000000
     30417       979  AGLC      H61            31.3021206326       22.3238628512       34.4135318240  LPSA28    7               4.0000000000
     30418       979  AGLC      H62            30.2432260498       22.3880512759       35.8722646349  LPSA28    7               4.0000000000
     30419       979  AGLC      O6             31.8483810348       23.8063172459       35.6892983147  LPSA28    7               4.0000000000
     30420       979  AGLC      HO6            31.3821810957       24.0650004991       36.4386090630  LPSA28    7               4.0000000000
     30421       980  AGLC      C1             33.3989265248       18.9224958203       39.9328324507  LPSA28    8               5.0000000000
     30422       980  AGLC      H1             32.3950822487       18.6183707325       39.5884769495  LPSA28    8               5.0000000000
     30423       980  AGLC      C5             35.6857498525       17.9980453091       40.2153373402  LPSA28    8               5.0000000000
     30424       980  AGLC      H5             36.0866294666       18.9474015522       39.8400606936  LPSA28    8               5.0000000000
     30425       980  AGLC      O5             34.3664081263       17.8629293011       39.6195505863  LPSA28    8               5.0000000000
     30426       980  AGLC      C2             33.3015203133       18.9680357625       41.4170311384  LPSA28    8               5.0000000000
     30427       980  AGLC      H2             32.8759733421       17.9665068359       41.6529594578  LPSA28    8               5.0000000000
     30428       980  AGLC      O2             32.2988417747       19.8294236963       41.9438754185  LPSA28    8               5.0000000000
     30429       980  AGLC      C3             34.5919979177       19.1555778930       42.1297388169  LPSA28    8               5.0000000000
     30430       980  AGLC      H3             34.9028511315       20.1372260268       41.6567950186  LPSA28    8               5.0000000000
     30431       980  AGLC      O3             34.3641568265       19.2957530037       43.5370978028  LPSA28    8               5.0000000000
     30432       980  AGLC      C4             35.4570682750       18.0441521785       41.7603093222  LPSA28    8               5.0000000000
     30433       980  AGLC      H4             35.0151213483       17.1058176037       42.0401368658  LPSA28    8               5.0000000000
     30434       980  AGLC      O4             36.7114729596       18.1496556655       42.3914819843  LPSA28    8               5.0000000000
     30435       980  AGLC      HO4            36.9665925074       19.0395847984       42.3800652601  LPSA28    8               5.0000000000
     30436       980  AGLC      C6             36.7605117598       16.9940704960       39.7357334439  LPSA28    8               5.0000000000
     30437       980  AGLC      H61            36.7787849496       16.8415839698       38.6468043611  LPSA28    8               5.0000000000
     30438       980  AGLC      H62            37.7659685086       17.2339779448       40.0276014644  LPSA28    8               5.0000000000
     30439       980  AGLC      O6             36.6471247162       15.7227219377       40.3040784562  LPSA28    8               5.0000000000
     30440       980  AGLC      HO6            37.0067109569       15.6867408724       41.2121845210  LPSA28    8               5.0000000000
     30441       981  AGAL      C1             30.9935729391       19.7441886613       41.4573847493  LPSA28    9               6.0000000000
     30442       981  AGAL      H1             31.0009950369       19.6966843206       40.3420235153  LPSA28    9               6.0000000000
     30443       981  AGAL      C5             29.9563831567       18.6125487508       43.2125447641  LPSA28    9               6.0000000000
     30444       981  AGAL      H5             30.9617337987       18.8434333347       43.7424973645  LPSA28    9               6.0000000000
     30445       981  AGAL      O5             30.1886208803       18.5881343804       41.8451689838  LPSA28    9               6.0000000000
     30446       981  AGAL      C2             30.2668171714       21.0063830460       41.8393925249  LPSA28    9               6.0000000000
     30447       981  AGAL      H2             29.2746999901       20.9868908859       41.4115621152  LPSA28    9               6.0000000000
     30448       981  AGAL      O2             30.7953758657       22.1613257635       41.1608705954  LPSA28    9               6.0000000000
     30449       981  AGAL      C3             29.9942848791       21.0698428701       43.3264191845  LPSA28    9               6.0000000000
     30450       981  AGAL      H3             30.9926751494       21.1420239984       43.9424563891  LPSA28    9               6.0000000000
     30451       981  AGAL      O3             29.4079812168       22.2639936629       43.7491515633  LPSA28    9               6.0000000000
     30452       981  AGAL      HO3            29.7520882289       22.9501045150       43.1585960960  LPSA28    9               6.0000000000
     30453       981  AGAL      C4             29.1946265175       19.8722951286       43.6505755014  LPSA28    9               6.0000000000
     30454       981  AGAL      H4             29.0149413893       19.7493229498       44.7734818408  LPSA28    9               6.0000000000
     30455       981  AGAL      O4             27.9374828539       19.8203553823       43.0499075873  LPSA28    9               6.0000000000
     30456       981  AGAL      HO4            27.3612242505       19.3372248821       43.6622427513  LPSA28    9               6.0000000000
     30457       981  AGAL      C6             29.5645610810       17.2716243806       43.8349081587  LPSA28    9               6.0000000000
     30458       981  AGAL      H61            30.3062650764       16.4542553007       43.6417203355  LPSA28    9               6.0000000000
     30459       981  AGAL      H62            29.4888123687       17.2782085962       44.9292747136  LPSA28    9               6.0000000000
     30460       981  AGAL      O6             28.3018230346       16.8594662670       43.4062227539  LPSA28    9               6.0000000000
     30461       981  AGAL      HO6            28.4432618389       16.2106231582       42.6923548993  LPSA28    9               6.0000000000
     30462       982  AGAL      C1             31.1653249994       23.4292950091       41.7517281777  LPSA28    10              7.0000000000
     30463       982  AGAL      H1             30.2026223249       23.9500633889       41.8429972083  LPSA28    10              7.0000000000
     30464       982  AGAL      C5             33.1209494126       22.9284375868       43.0613392294  LPSA28    10              7.0000000000
     30465       982  AGAL      H5             33.0086366609       21.8402227663       42.6233508762  LPSA28    10              7.0000000000
     30466       982  AGAL      O5             31.8171908911       23.5408107616       43.0470213554  LPSA28    10              7.0000000000
     30467       982  AGAL      C2             32.0663080898       24.1365918048       40.7227968417  LPSA28    10              7.0000000000
     30468       982  AGAL      H2             32.0679356062       25.2497467379       41.0433947026  LPSA28    10              7.0000000000
     30469       982  AGAL      O2             31.4299947355       24.4195354679       39.5532095562  LPSA28    10              7.0000000000
     30470       982  AGAL      HO2            31.5013187054       25.3415199006       39.3379401176  LPSA28    10              7.0000000000
     30471       982  AGAL      C3             33.4370187076       23.5610308835       40.6928251787  LPSA28    10              7.0000000000
     30472       982  AGAL      H3             33.2617803565       22.5109557044       40.4679648945  LPSA28    10              7.0000000000
     30473       982  AGAL      O3             34.3107457507       24.1441061497       39.7732034444  LPSA28    10              7.0000000000
     30474       982  AGAL      HO3            34.4114798419       23.5169085914       39.0151094934  LPSA28    10              7.0000000000
     30475       982  AGAL      C4             34.0389269804       23.6648022323       42.0524071915  LPSA28    10              7.0000000000
     30476       982  AGAL      H4             35.0189643869       23.1529801223       42.1099272557  LPSA28    10              7.0000000000
     30477       982  AGAL      O4             34.2357165274       24.9756415893       42.4965010455  LPSA28    10              7.0000000000
     30478       982  AGAL      HO4            33.3642828260       25.3217383224       42.5675127347  LPSA28    10              7.0000000000
     30479       982  AGAL      C6             33.7668255640       22.7354855952       44.3959537205  LPSA28    10              7.0000000000
     30480       982  AGAL      H61            33.1089635136       22.2414631860       45.1044438806  LPSA28    10              7.0000000000
     30481       982  AGAL      H62            34.6655210758       21.9603533411       44.2564473849  LPSA28    10              7.0000000000
     30482       982  AGAL      O6             34.3165556191       23.8621323532       45.1112340130  LPSA28    10              7.0000000000
     30483       982  AGAL      HO6            33.7924967699       23.9837673424       45.9237589285  LPSA28    10              7.0000000000
     30484       983  BGLC      C1             34.4228193729       18.2607003098       44.5018065681  LPSA28    11              6.0000000000
     30485       983  BGLC      H1             35.4857169260       18.0902420330       44.5883763758  LPSA28    11              6.0000000000
     30486       983  BGLC      C5             33.6337570339       15.9655849054       45.1248117688  LPSA28    11              6.0000000000
     30487       983  BGLC      H5             34.6831159640       15.5868768707       45.3871201921  LPSA28    11              6.0000000000
     30488       983  BGLC      O5             33.6285085616       17.0801890921       44.0830650888  LPSA28    11              6.0000000000
     30489       983  BGLC      C2             33.8380906066       18.7619259226       45.7977571702  LPSA28    11              6.0000000000
     30490       983  BGLC      H2             32.7891557616       19.1462707041       45.7293388291  LPSA28    11              6.0000000000
     30491       983  BGLC      O2             34.5778874839       19.9387690783       46.0886391483  LPSA28    11              6.0000000000
     30492       983  BGLC      HO2            33.9782797916       20.6343665777       46.2788110113  LPSA28    11              6.0000000000
     30493       983  BGLC      C3             33.8008019779       17.7576136974       46.8736276645  LPSA28    11              6.0000000000
     30494       983  BGLC      H3             34.9011391780       17.5254148751       47.1984917368  LPSA28    11              6.0000000000
     30495       983  BGLC      O3             33.1844830272       18.3605410975       48.0056213318  LPSA28    11              6.0000000000
     30496       983  BGLC      C4             33.0692540574       16.5858198645       46.4390836423  LPSA28    11              6.0000000000
     30497       983  BGLC      H4             32.0126632113       16.9477090242       46.2001611147  LPSA28    11              6.0000000000
     30498       983  BGLC      O4             32.9293228969       15.6294263273       47.4766894645  LPSA28    11              6.0000000000
     30499       983  BGLC      HO4            32.3069563063       15.9801498508       48.1247908570  LPSA28    11              6.0000000000
     30500       983  BGLC      C6             32.9577048686       14.7185839687       44.5291127165  LPSA28    11              6.0000000000
     30501       983  BGLC      H61            32.6134202998       13.9876682600       45.2481190913  LPSA28    11              6.0000000000
     30502       983  BGLC      H62            32.1144238229       15.0838975101       43.8913252379  LPSA28    11              6.0000000000
     30503       983  BGLC      O6             33.7658793156       13.9919542352       43.5637942269  LPSA28    11              6.0000000000
     30504       983  BGLC      HO6            33.9453936205       13.1955982134       44.0054369298  LPSA28    11              6.0000000000
     30505       984  BGLCNA    C1             33.7786224412       18.3429756646       49.3238540420  LPSA28    12              7.0000000000
     30506       984  BGLCNA    H1             34.4841859208       19.2387242038       49.3874222992  LPSA28    12              7.0000000000
     30507       984  BGLCNA    C5             35.1922930030       17.1863004933       50.8763077070  LPSA28    12              7.0000000000
     30508       984  BGLCNA    H5             35.9231405609       18.1082388961       50.9814236466  LPSA28    12              7.0000000000
     30509       984  BGLCNA    O5             34.5281411052       17.1357955419       49.5875345322  LPSA28    12              7.0000000000
     30510       984  BGLCNA    C2             32.6765548679       18.4519664802       50.3245054808  LPSA28    12              7.0000000000
     30511       984  BGLCNA    H2             32.1381716518       17.4111551077       50.3375086743  LPSA28    12              7.0000000000
     30512       984  BGLCNA    N              31.8303575828       19.6259655929       50.0347611965  LPSA28    12              7.0000000000
     30513       984  BGLCNA    HN             32.3872721941       20.3881795008       49.9972643287  LPSA28    12              7.0000000000
     30514       984  BGLCNA    C              30.5455770847       19.5064040673       49.8903426450  LPSA28    12              7.0000000000
     30515       984  BGLCNA    O              30.0085318486       18.4251835438       50.0855928044  LPSA28    12              7.0000000000
     30516       984  BGLCNA    CT             29.7819756733       20.7546967704       49.5677689528  LPSA28    12              7.0000000000
     30517       984  BGLCNA    HT1            29.1120605682       21.0595259288       50.3918503408  LPSA28    12              7.0000000000
     30518       984  BGLCNA    HT2            29.0022137330       20.5341871894       48.7104760971  LPSA28    12              7.0000000000
     30519       984  BGLCNA    HT3            30.5343213782       21.5104845566       49.2316245990  LPSA28    12              7.0000000000
     30520       984  BGLCNA    C3             33.2207442700       18.5352791690       51.6995695120  LPSA28    12              7.0000000000
     30521       984  BGLCNA    H3             33.8448393666       19.5307382364       51.8605307917  LPSA28    12              7.0000000000
     30522       984  BGLCNA    O3             32.2046042123       18.6936254717       52.7272334264  LPSA28    12              7.0000000000
     30523       984  BGLCNA    C4             34.0511778595       17.3189068101       51.9591692987  LPSA28    12              7.0000000000
     30524       984  BGLCNA    H4             33.4691029281       16.3226113888       51.9037868612  LPSA28    12              7.0000000000
     30525       984  BGLCNA    O4             34.6123745100       17.3331270991       53.2294962294  LPSA28    12              7.0000000000
     30526       984  BGLCNA    HO4            35.3865018844       17.9664704939       53.2834945119  LPSA28    12              7.0000000000
     30527       984  BGLCNA    C6             36.1069441233       15.9469860025       50.9528560558  LPSA28    12              7.0000000000
     30528       984  BGLCNA    H61            36.5604984774       15.8770528165       51.9144325068  LPSA28    12              7.0000000000
     30529       984  BGLCNA    H62            35.4129344785       15.1230137944       50.8287962869  LPSA28    12              7.0000000000
     30530       984  BGLCNA    O6             36.9897351938       15.9195554999       49.8597561973  LPSA28    12              7.0000000000
     30531       984  BGLCNA    HO6            37.7412088589       16.3925545394       50.1903398796  LPSA28    12              7.0000000000
     30532       985  AGAL      C1             32.5218259567       19.6229159872       53.8132743488  LPSA28    13              8.0000000000
     30533       985  AGAL      H1             33.5431120968       19.4017066177       54.1959401301  LPSA28    13              8.0000000000
     30534       985  AGAL      C5             30.8196865844       21.2487464295       53.2950732168  LPSA28    13              8.0000000000
     30535       985  AGAL      H5             30.4945295306       20.5116059116       52.5641412600  LPSA28    13              8.0000000000
     30536       985  AGAL      O5             32.2254229179       21.0286477444       53.4918445955  LPSA28    13              8.0000000000
     30537       985  AGAL      C2             31.6834998635       19.3930129039       55.1010141246  LPSA28    13              8.0000000000
     30538       985  AGAL      H2             31.8635443273       20.2411215552       55.7917211299  LPSA28    13              8.0000000000
     30539       985  AGAL      O2             32.0352179433       18.2000632482       55.7701983428  LPSA28    13              8.0000000000
     30540       985  AGAL      C3             30.1696758548       19.6439065808       54.8979691660  LPSA28    13              8.0000000000
     30541       985  AGAL      H3             29.8385590563       19.0561088336       54.0477453328  LPSA28    13              8.0000000000
     30542       985  AGAL      O3             29.3750639181       19.1544637199       55.9888739531  LPSA28    13              8.0000000000
     30543       985  AGAL      HO3            28.5690491322       18.7497705770       55.6848713412  LPSA28    13              8.0000000000
     30544       985  AGAL      C4             29.9385682756       21.0018153090       54.5514025965  LPSA28    13              8.0000000000
     30545       985  AGAL      H4             28.8503953338       21.1616599103       54.1954731349  LPSA28    13              8.0000000000
     30546       985  AGAL      O4             30.2648574801       21.9171946682       55.5743212917  LPSA28    13              8.0000000000
     30547       985  AGAL      HO4            31.0952428951       21.7671389841       56.0499681296  LPSA28    13              8.0000000000
     30548       985  AGAL      C6             30.4572577775       22.5065990658       52.5301443486  LPSA28    13              8.0000000000
     30549       985  AGAL      H61            31.0767523416       22.5786519428       51.6253596531  LPSA28    13              8.0000000000
     30550       985  AGAL      H62            29.3505587003       22.5077274046       52.3684678279  LPSA28    13              8.0000000000
     30551       985  AGAL      O6             30.7127079604       23.6642930526       53.2985910507  LPSA28    13              8.0000000000
     30552       985  AGAL      HO6            29.9857688078       23.7813569231       53.9299633642  LPSA28    13              8.0000000000
     30553       986  ARHM      C1             32.6793296637       18.2505634552       57.0117786358  LPSA28    14              9.0000000000
     30554       986  ARHM      H1             33.2381693596       19.2092687942       56.9981767125  LPSA28    14              9.0000000000
     30555       986  ARHM      C5             33.0129099127       15.9538141066       57.1930138837  LPSA28    14              9.0000000000
     30556       986  ARHM      H5             32.4388599284       15.8473983300       56.1976867078  LPSA28    14              9.0000000000
     30557       986  ARHM      O5             33.6134145538       17.1947475347       57.1718909996  LPSA28    14              9.0000000000
     30558       986  ARHM      C2             31.6269311274       18.2045590809       58.1413490634  LPSA28    14              9.0000000000
     30559       986  ARHM      H2             30.9360084015       18.9985288779       57.8875987320  LPSA28    14              9.0000000000
     30560       986  ARHM      O2             32.1326529326       18.3534226890       59.4330148990  LPSA28    14              9.0000000000
     30561       986  ARHM      C3             30.9337571768       16.8731970508       58.1095432995  LPSA28    14              9.0000000000
     30562       986  ARHM      H3             30.6124629363       16.6783116839       57.0440121713  LPSA28    14              9.0000000000
     30563       986  ARHM      O3             29.7584502877       16.8047939380       58.8567888868  LPSA28    14              9.0000000000
     30564       986  ARHM      HO3            30.0607188773       16.7680788159       59.8104957846  LPSA28    14              9.0000000000
     30565       986  ARHM      C4             31.9757950779       15.8415821250       58.3490442956  LPSA28    14              9.0000000000
     30566       986  ARHM      H4             32.5665485091       15.9364657923       59.2902338481  LPSA28    14              9.0000000000
     30567       986  ARHM      O4             31.3395821122       14.5374272096       58.4446785014  LPSA28    14              9.0000000000
     30568       986  ARHM      HO4            31.3693036531       14.1058894679       59.2969967688  LPSA28    14              9.0000000000
     30569       986  ARHM      C6             34.0868712460       14.8542215712       57.2492155848  LPSA28    14              9.0000000000
     30570       986  ARHM      H61            34.9710853891       15.0117577092       56.5358243550  LPSA28    14              9.0000000000
     30571       986  ARHM      H62            34.3763281750       14.7777469444       58.3170764683  LPSA28    14              9.0000000000
     30572       986  ARHM      H63            33.8340543677       13.8365836394       56.9421594120  LPSA28    14              9.0000000000
     30573       987  ARHM      C1             32.9450154914       19.3786063160       59.7267990175  LPSA28    15             10.0000000000
     30574       987  ARHM      H1             32.7713533709       20.2396731481       59.0458905905  LPSA28    15             10.0000000000
     30575       987  ARHM      C5             34.8460336176       18.0720861331       60.6468530148  LPSA28    15             10.0000000000
     30576       987  ARHM      H5             34.4179308687       17.0398990147       60.4457705401  LPSA28    15             10.0000000000
     30577       987  ARHM      O5             34.3534417970       19.0400920357       59.6688136410  LPSA28    15             10.0000000000
     30578       987  ARHM      C2             32.6495831651       19.8743759336       61.1407671534  LPSA28    15             10.0000000000
     30579       987  ARHM      H2             31.5068632009       20.0322045301       61.2133420761  LPSA28    15             10.0000000000
     30580       987  ARHM      O2             33.3923150409       21.1160924072       61.3234079317  LPSA28    15             10.0000000000
     30581       987  ARHM      C3             33.0528492347       18.8153242362       62.1677656617  LPSA28    15             10.0000000000
     30582       987  ARHM      H3             32.5317629331       17.8654165028       61.8628392879  LPSA28    15             10.0000000000
     30583       987  ARHM      O3             32.4179263770       19.2226820875       63.4092175029  LPSA28    15             10.0000000000
     30584       987  ARHM      C4             34.4812648259       18.5819957590       62.0487117432  LPSA28    15             10.0000000000
     30585       987  ARHM      H4             35.0250811522       19.6050647044       62.1496903561  LPSA28    15             10.0000000000
     30586       987  ARHM      O4             35.0885181002       17.6657277603       62.9635513464  LPSA28    15             10.0000000000
     30587       987  ARHM      HO4            36.0210467348       17.8208048503       62.9565205260  LPSA28    15             10.0000000000
     30588       987  ARHM      C6             36.3308633659       17.8737036225       60.4460959132  LPSA28    15             10.0000000000
     30589       987  ARHM      H61            36.7879083079       17.0808851595       61.0956562646  LPSA28    15             10.0000000000
     30590       987  ARHM      H62            36.5480177036       17.7940402663       59.3910198679  LPSA28    15             10.0000000000
     30591       987  ARHM      H63            36.9334650661       18.7315103144       60.8578185328  LPSA28    15             10.0000000000
     30592       988  BMANNA    C1             33.2257698779       21.8688125027       62.5145562334  LPSA28    16             11.0000000000
     30593       988  BMANNA    H1             33.7662980355       21.2763813174       63.3432051365  LPSA28    16             11.0000000000
     30594       988  BMANNA    C5             31.8366483039       22.7681321437       64.1851548173  LPSA28    16             11.0000000000
     30595       988  BMANNA    H5             32.3838909020       22.2447119821       64.9800677769  LPSA28    16             11.0000000000
     30596       988  BMANNA    O5             31.8749305805       22.0644984891       62.9158851071  LPSA28    16             11.0000000000
     30597       988  BMANNA    C2             33.9321398152       23.2241959890       62.2781089586  LPSA28    16             11.0000000000
     30598       988  BMANNA    H2             34.9797409983       22.9444752656       61.9912908466  LPSA28    16             11.0000000000
     30599       988  BMANNA    N              33.4155876163       24.1047611395       61.2264456342  LPSA28    16             11.0000000000
     30600       988  BMANNA    HN             32.7271946139       24.7010092947       61.5688724990  LPSA28    16             11.0000000000
     30601       988  BMANNA    C              33.7864596274       24.0753620276       59.9704010620  LPSA28    16             11.0000000000
     30602       988  BMANNA    O              34.7043091633       23.3143262375       59.5582221915  LPSA28    16             11.0000000000
     30603       988  BMANNA    CT             33.0544362149       25.0115322334       59.1331689300  LPSA28    16             11.0000000000
     30604       988  BMANNA    HT1            33.5920655517       25.8977773980       58.8344492748  LPSA28    16             11.0000000000
     30605       988  BMANNA    HT2            32.0898969996       25.3565466490       59.5043001239  LPSA28    16             11.0000000000
     30606       988  BMANNA    HT3            32.8090260263       24.5487708146       58.1231520073  LPSA28    16             11.0000000000
     30607       988  BMANNA    C3             33.9215249912       23.9280689952       63.6119771117  LPSA28    16             11.0000000000
     30608       988  BMANNA    H3             34.4398903987       23.3014516745       64.3839812837  LPSA28    16             11.0000000000
     30609       988  BMANNA    O3             34.6228266990       25.1380965518       63.6122488842  LPSA28    16             11.0000000000
     30610       988  BMANNA    HO3            35.2805266369       25.1459728741       64.2950500102  LPSA28    16             11.0000000000
     30611       988  BMANNA    C4             32.4877713740       24.1624221504       64.1045846713  LPSA28    16             11.0000000000
     30612       988  BMANNA    H4             31.9104356016       24.8046231495       63.4124605202  LPSA28    16             11.0000000000
     30613       988  BMANNA    O4             32.3298510504       24.8070204376       65.3816866120  LPSA28    16             11.0000000000
     30614       988  BMANNA    HO4            31.4761572242       25.2343199806       65.4353184152  LPSA28    16             11.0000000000
     30615       988  BMANNA    C6             30.4127955754       22.8915590410       64.7427751243  LPSA28    16             11.0000000000
     30616       988  BMANNA    H61            30.5003232370       22.9062979862       65.8875394407  LPSA28    16             11.0000000000
     30617       988  BMANNA    H62            29.9466926942       23.8312907694       64.4389269682  LPSA28    16             11.0000000000
     30618       988  BMANNA    O6             29.5341856127       21.8126178725       64.3660927576  LPSA28    16             11.0000000000
     30619       988  BMANNA    HO6            28.8151761828       22.2974050770       63.9036969990  LPSA28    16             11.0000000000
     30620       989  BGLCNA    C1             31.9365433222       18.2220724336       64.1715778089  LPSA28    17             11.0000000000
     30621       989  BGLCNA    H1             32.5243489726       17.2521953278       63.9082176002  LPSA28    17             11.0000000000
     30622       989  BGLCNA    C5             29.9787900799       16.8111323936       64.5563394407  LPSA28    17             11.0000000000
     30623       989  BGLCNA    H5             30.5196621281       15.8293143944       64.2825289487  LPSA28    17             11.0000000000
     30624       989  BGLCNA    O5             30.5787462702       17.8628128396       63.7849982893  LPSA28    17             11.0000000000
     30625       989  BGLCNA    C2             32.0143020076       18.6540832846       65.5899343931  LPSA28    17             11.0000000000
     30626       989  BGLCNA    H2             31.4065650446       19.5921029447       65.8249043900  LPSA28    17             11.0000000000
     30627       989  BGLCNA    N              33.3191072429       19.0901361030       65.8849826081  LPSA28    17             11.0000000000
     30628       989  BGLCNA    HN             34.0993528545       18.6360841332       65.4150135415  LPSA28    17             11.0000000000
     30629       989  BGLCNA    C              33.7454519721       19.9377382601       66.8043620798  LPSA28    17             11.0000000000
     30630       989  BGLCNA    O              32.9706937674       20.6115075813       67.4729873017  LPSA28    17             11.0000000000
     30631       989  BGLCNA    CT             35.2141997350       20.0325801341       66.9728872304  LPSA28    17             11.0000000000
     30632       989  BGLCNA    HT1            35.7629231976       20.8949446053       66.5529393721  LPSA28    17             11.0000000000
     30633       989  BGLCNA    HT2            35.6426488659       19.0476189111       66.7043805047  LPSA28    17             11.0000000000
     30634       989  BGLCNA    HT3            35.4835093051       20.0821084754       68.1408097225  LPSA28    17             11.0000000000
     30635       989  BGLCNA    C3             31.4918169108       17.4941580980       66.4076579941  LPSA28    17             11.0000000000
     30636       989  BGLCNA    H3             32.1599317453       16.6430399437       66.0441361901  LPSA28    17             11.0000000000
     30637       989  BGLCNA    O3             31.8050363555       17.7722704099       67.8205355914  LPSA28    17             11.0000000000
     30638       989  BGLCNA    C4             30.0308124723       17.2600647212       66.0496966154  LPSA28    17             11.0000000000
     30639       989  BGLCNA    H4             29.4220694702       18.2290608646       66.1123142204  LPSA28    17             11.0000000000
     30640       989  BGLCNA    O4             29.4024398747       16.3396386116       66.9186044206  LPSA28    17             11.0000000000
     30641       989  BGLCNA    HO4            28.4978653831       16.1291162694       66.7204061560  LPSA28    17             11.0000000000
     30642       989  BGLCNA    C6             28.5127182114       16.6216191849       64.1200051697  LPSA28    17             11.0000000000
     30643       989  BGLCNA    H61            28.2588866474       15.5795085765       64.1272946536  LPSA28    17             11.0000000000
     30644       989  BGLCNA    H62            27.8017568860       17.1580799146       64.8212395067  LPSA28    17             11.0000000000
     30645       989  BGLCNA    O6             28.2683678310       17.1068039713       62.7926115083  LPSA28    17             11.0000000000
     30646       989  BGLCNA    HO6            28.8332426913       16.6418343668       62.1856770532  LPSA28    17             11.0000000000
     30647       990  AGAL      C1             32.1569772224       16.6142902403       68.6198653987  LPSA28    18             12.0000000000
     30648       990  AGAL      H1             31.2031664982       16.0379801409       68.8082567594  LPSA28    18             12.0000000000
     30649       990  AGAL      C5             34.4263051568       16.4001249547       67.8636918791  LPSA28    18             12.0000000000
     30650       990  AGAL      H5             34.2924770255       17.3847628717       67.4068928888  LPSA28    18             12.0000000000
     30651       990  AGAL      O5             33.0969250330       15.7764805485       67.9834320655  LPSA28    18             12.0000000000
     30652       990  AGAL      C2             32.7985457214       17.0238678898       70.0000206359  LPSA28    18             12.0000000000
     30653       990  AGAL      H2             33.0008755949       16.0001319090       70.3908489884  LPSA28    18             12.0000000000
     30654       990  AGAL      O2             31.8382563468       17.5816571916       70.8342757016  LPSA28    18             12.0000000000
     30655       990  AGAL      C3             34.1241485962       17.6892428095       69.8682924558  LPSA28    18             12.0000000000
     30656       990  AGAL      H3             34.0207578578       18.5552660575       69.0958348126  LPSA28    18             12.0000000000
     30657       990  AGAL      O3             34.5834755439       18.2175041217       71.0758896640  LPSA28    18             12.0000000000
     30658       990  AGAL      HO3            34.9142536101       19.1109991691       70.9682873819  LPSA28    18             12.0000000000
     30659       990  AGAL      C4             35.0475049333       16.7803650315       69.1634745928  LPSA28    18             12.0000000000
     30660       990  AGAL      H4             36.0456238954       17.2051408616       68.9039691178  LPSA28    18             12.0000000000
     30661       990  AGAL      O4             35.3277640283       15.6087023015       69.9734134928  LPSA28    18             12.0000000000
     30662       990  AGAL      HO4            35.9666344611       15.8704219251       70.7236544006  LPSA28    18             12.0000000000
     30663       990  AGAL      C6             35.1476548345       15.6932097445       66.8042742825  LPSA28    18             12.0000000000
     30664       990  AGAL      H61            34.5722748690       15.8329885729       65.8877991861  LPSA28    18             12.0000000000
     30665       990  AGAL      H62            36.1126731377       16.2481188463       66.6499463921  LPSA28    18             12.0000000000
     30666       990  AGAL      O6             35.3207910776       14.3812059048       66.9803033045  LPSA28    18             12.0000000000
     30667       990  AGAL      HO6            34.8217618970       13.9568728974       67.6707071977  LPSA28    18             12.0000000000
     30668       991  ARHM      C1             31.9898301572       17.0627053107       72.1803514454  LPSA28    19             13.0000000000
     30669       991  ARHM      H1             32.9718147699       16.6568366504       72.3185909119  LPSA28    19             13.0000000000
     30670       991  ARHM      C5             29.8132154651       16.1243169538       72.2512180912  LPSA28    19             13.0000000000
     30671       991  ARHM      H5             29.6775205446       16.5242394854       71.2133247196  LPSA28    19             13.0000000000
     30672       991  ARHM      O5             31.2112495771       15.8809318913       72.4162684983  LPSA28    19             13.0000000000
     30673       991  ARHM      C2             31.6241254709       18.1599592657       73.1100514097  LPSA28    19             13.0000000000
     30674       991  ARHM      H2             32.1039448558       19.0896283623       72.9420985559  LPSA28    19             13.0000000000
     30675       991  ARHM      O2             31.8936372825       17.7738022118       74.4131644751  LPSA28    19             13.0000000000
     30676       991  ARHM      C3             30.0873027160       18.3984991706       72.9859276785  LPSA28    19             13.0000000000
     30677       991  ARHM      H3             29.8886791153       18.6495542363       71.9471750908  LPSA28    19             13.0000000000
     30678       991  ARHM      O3             29.6819385174       19.4657914664       73.7644258584  LPSA28    19             13.0000000000
     30679       991  ARHM      HO3            30.0414037154       19.3187530911       74.6464134549  LPSA28    19             13.0000000000
     30680       991  ARHM      C4             29.2933353504       17.1882182302       73.2443334127  LPSA28    19             13.0000000000
     30681       991  ARHM      H4             29.5366107617       16.8842995089       74.2703943704  LPSA28    19             13.0000000000
     30682       991  ARHM      O4             27.9121700407       17.3522918843       73.1708570575  LPSA28    19             13.0000000000
     30683       991  ARHM      HO4            27.7181492473       17.5759857207       72.2126258713  LPSA28    19             13.0000000000
     30684       991  ARHM      C6             29.0066905593       14.8142494286       72.3031700958  LPSA28    19             13.0000000000
     30685       991  ARHM      H61            29.4871614256       14.2515202807       71.5186681997  LPSA28    19             13.0000000000
     30686       991  ARHM      H62            29.0645588525       14.2408340794       73.2001761489  LPSA28    19             13.0000000000
     30687       991  ARHM      H63            27.9429817778       14.9488520091       72.0875448643  LPSA28    19             13.0000000000
     30688       992  ARHM      C1             33.2525550692       17.8289288446       74.6981797177  LPSA28    20             14.0000000000
     30689       992  ARHM      H1             33.8495486795       18.3702524950       73.8936196974  LPSA28    20             14.0000000000
     30690       992  ARHM      C5             33.4643954538       15.8253849053       75.9960310464  LPSA28    20             14.0000000000
     30691       992  ARHM      H5             32.3648111983       15.7271842619       75.8071112250  LPSA28    20             14.0000000000
     30692       992  ARHM      O5             33.9313691724       16.5846435192       74.8741575474  LPSA28    20             14.0000000000
     30693       992  ARHM      C2             33.4792479811       18.6822723112       75.9438944127  LPSA28    20             14.0000000000
     30694       992  ARHM      H2             32.8510391136       19.6556842420       75.7904987900  LPSA28    20             14.0000000000
     30695       992  ARHM      O2             34.8695101018       18.9730554368       76.2145535291  LPSA28    20             14.0000000000
     30696       992  ARHM      C3             32.9872233692       17.8859878525       77.0746584307  LPSA28    20             14.0000000000
     30697       992  ARHM      H3             31.8596718075       17.6768176978       76.9570890266  LPSA28    20             14.0000000000
     30698       992  ARHM      O3             33.1102686827       18.7350027879       78.2431898216  LPSA28    20             14.0000000000
     30699       992  ARHM      C4             33.6955451181       16.5803202117       77.2147849866  LPSA28    20             14.0000000000
     30700       992  ARHM      H4             34.7583678466       16.6859432211       77.2882629629  LPSA28    20             14.0000000000
     30701       992  ARHM      O4             33.2494636733       15.9336201006       78.4294019453  LPSA28    20             14.0000000000
     30702       992  ARHM      HO4            33.3654067625       15.0749011601       78.0714846557  LPSA28    20             14.0000000000
     30703       992  ARHM      C6             34.0679528903       14.4833067907       75.9818768401  LPSA28    20             14.0000000000
     30704       992  ARHM      H61            35.1922683945       14.3784230315       76.0487105533  LPSA28    20             14.0000000000
     30705       992  ARHM      H62            33.6079309086       13.8580960684       76.7492574554  LPSA28    20             14.0000000000
     30706       992  ARHM      H63            33.8947445153       13.8999512651       75.0059134709  LPSA28    20             14.0000000000
     30707       993  BMANNA    C1             35.1840773599       20.0799054476       75.4501725836  LPSA28    21             15.0000000000
     30708       993  BMANNA    H1             34.3675048099       20.2991368872       74.6495731600  LPSA28    21             15.0000000000
     30709       993  BMANNA    C5             36.4948759397       20.9341500721       73.6578092950  LPSA28    21             15.0000000000
     30710       993  BMANNA    H5             35.5558126745       21.2791434129       73.0422409194  LPSA28    21             15.0000000000
     30711       993  BMANNA    O5             36.3020771902       19.7801413507       74.5460975074  LPSA28    21             15.0000000000
     30712       993  BMANNA    C2             35.4972225656       21.2489096262       76.3268603500  LPSA28    21             15.0000000000
     30713       993  BMANNA    H2             34.5556019263       21.3658581748       76.8663433126  LPSA28    21             15.0000000000
     30714       993  BMANNA    N              36.5826862236       20.9598050738       77.2602735953  LPSA28    21             15.0000000000
     30715       993  BMANNA    HN             37.3997722720       20.6160449813       76.8630196157  LPSA28    21             15.0000000000
     30716       993  BMANNA    C              36.6414559526       21.3888646525       78.6142451918  LPSA28    21             15.0000000000
     30717       993  BMANNA    O              35.8313795985       22.2156910470       79.0340579138  LPSA28    21             15.0000000000
     30718       993  BMANNA    CT             37.7724781157       20.8405227994       79.5125915666  LPSA28    21             15.0000000000
     30719       993  BMANNA    HT1            38.6982702986       21.4255834757       79.3040814335  LPSA28    21             15.0000000000
     30720       993  BMANNA    HT2            37.8259040443       19.7555780593       79.3224353366  LPSA28    21             15.0000000000
     30721       993  BMANNA    HT3            37.5131466524       20.9944471577       80.6000991146  LPSA28    21             15.0000000000
     30722       993  BMANNA    C3             35.7221151710       22.4247281176       75.4428482744  LPSA28    21             15.0000000000
     30723       993  BMANNA    H3             34.7381740218       22.5358213597       75.0091666053  LPSA28    21             15.0000000000
     30724       993  BMANNA    O3             36.0008749166       23.6072229275       76.1769203835  LPSA28    21             15.0000000000
     30725       993  BMANNA    HO3            36.7328366424       23.4246552239       76.7354970047  LPSA28    21             15.0000000000
     30726       993  BMANNA    C4             36.8547273319       22.1522240390       74.4866217523  LPSA28    21             15.0000000000
     30727       993  BMANNA    H4             37.9284252285       22.0268199089       75.0002820064  LPSA28    21             15.0000000000
     30728       993  BMANNA    O4             37.0852551583       23.2219905191       73.6152290754  LPSA28    21             15.0000000000
     30729       993  BMANNA    HO4            37.9703700633       23.6199620867       73.7703874424  LPSA28    21             15.0000000000
     30730       993  BMANNA    C6             37.4720671675       20.6650551031       72.6348027846  LPSA28    21             15.0000000000
     30731       993  BMANNA    H61            37.5179524059       21.4479081516       71.8494922130  LPSA28    21             15.0000000000
     30732       993  BMANNA    H62            38.5040115639       20.8102683645       73.0558617198  LPSA28    21             15.0000000000
     30733       993  BMANNA    O6             37.4786268888       19.3908035211       72.0654385618  LPSA28    21             15.0000000000
     30734       993  BMANNA    HO6            37.5349023176       18.7556500730       72.7784055652  LPSA28    21             15.0000000000
     30735       994  BGLCNA    C1             32.1353192915       18.7117376453       79.2248726046  LPSA28    22             15.0000000000
     30736       994  BGLCNA    H1             31.5497704443       17.7473577494       79.2753119810  LPSA28    22             15.0000000000
     30737       994  BGLCNA    C5             30.1089280534       19.6574679684       80.1145289529  LPSA28    22             15.0000000000
     30738       994  BGLCNA    H5             29.6715444780       18.5721943755       80.0727605020  LPSA28    22             15.0000000000
     30739       994  BGLCNA    O5             31.1527895402       19.6954428974       79.0803056561  LPSA28    22             15.0000000000
     30740       994  BGLCNA    C2             32.8084238169       18.8969112691       80.5602818744  LPSA28    22             15.0000000000
     30741       994  BGLCNA    H2             33.2656298920       19.9446411886       80.4633107900  LPSA28    22             15.0000000000
     30742       994  BGLCNA    N              33.8308446332       17.8822080262       80.7025670875  LPSA28    22             15.0000000000
     30743       994  BGLCNA    HN             33.5717984432       16.9746852971       80.4501896382  LPSA28    22             15.0000000000
     30744       994  BGLCNA    C              34.9764206109       18.0536287145       81.3295640408  LPSA28    22             15.0000000000
     30745       994  BGLCNA    O              35.2722004957       19.1473530111       81.8448112003  LPSA28    22             15.0000000000
     30746       994  BGLCNA    CT             35.8864017119       16.8823470637       81.4359073222  LPSA28    22             15.0000000000
     30747       994  BGLCNA    HT1            36.4815386283       16.9797811317       80.5353412834  LPSA28    22             15.0000000000
     30748       994  BGLCNA    HT2            35.2700042633       15.9683041022       81.2752873926  LPSA28    22             15.0000000000
     30749       994  BGLCNA    HT3            36.3979554628       16.7646576090       82.3679651303  LPSA28    22             15.0000000000
     30750       994  BGLCNA    C3             31.7992276951       18.8813149416       81.6855161512  LPSA28    22             15.0000000000
     30751       994  BGLCNA    H3             31.2502001205       17.9072737175       81.6419517197  LPSA28    22             15.0000000000
     30752       994  BGLCNA    O3             32.5578373248       18.9302962823       82.8729300216  LPSA28    22             15.0000000000
     30753       994  BGLCNA    C4             30.7376877503       19.9646735179       81.4704242134  LPSA28    22             15.0000000000
     30754       994  BGLCNA    H4             31.2691033652       20.8780541681       81.4144045074  LPSA28    22             15.0000000000
     30755       994  BGLCNA    O4             29.7905518416       20.0228307309       82.5140850489  LPSA28    22             15.0000000000
     30756       994  BGLCNA    HO4            29.5991642520       20.9555883381       82.7130071916  LPSA28    22             15.0000000000
     30757       994  BGLCNA    C6             29.0662078488       20.6970821440       79.7284495560  LPSA28    22             15.0000000000
     30758       994  BGLCNA    H61            28.5045942233       20.8754416050       80.6924177192  LPSA28    22             15.0000000000
     30759       994  BGLCNA    H62            29.5386112959       21.6670847743       79.4648784538  LPSA28    22             15.0000000000
     30760       994  BGLCNA    O6             28.1225158912       20.2597059846       78.8100863794  LPSA28    22             15.0000000000
     30761       994  BGLCNA    HO6            28.5746347972       19.9736274378       78.0328486455  LPSA28    22             15.0000000000
     30762       995  AGAL      C1             31.9968177913       18.5089930702       84.0628261254  LPSA28    23             16.0000000000
     30763       995  AGAL      H1             31.2932201739       19.2642528534       84.5106287163  LPSA28    23             16.0000000000
     30764       995  AGAL      C5             32.1569545851       16.1526721421       83.7583018441  LPSA28    23             16.0000000000
     30765       995  AGAL      H5             32.8097779036       16.3840941780       82.8366412438  LPSA28    23             16.0000000000
     30766       995  AGAL      O5             31.3111961093       17.2543595208       83.9976212264  LPSA28    23             16.0000000000
     30767       995  AGAL      C2             33.0570578092       18.3993901139       85.1427633740  LPSA28    23             16.0000000000
     30768       995  AGAL      H2             32.5202521202       18.0828221736       86.0076373284  LPSA28    23             16.0000000000
     30769       995  AGAL      O2             33.6425869806       19.6284459933       85.5000844886  LPSA28    23             16.0000000000
     30770       995  AGAL      C3             34.0074271961       17.2742307224       84.9194901020  LPSA28    23             16.0000000000
     30771       995  AGAL      H3             34.3948887359       17.4173478743       83.8641570193  LPSA28    23             16.0000000000
     30772       995  AGAL      O3             35.1378244158       17.2603027161       85.7108298168  LPSA28    23             16.0000000000
     30773       995  AGAL      HO3            34.7990875622       17.4203892894       86.6206525111  LPSA28    23             16.0000000000
     30774       995  AGAL      C4             33.2080620108       16.0059609610       84.8901212015  LPSA28    23             16.0000000000
     30775       995  AGAL      H4             33.8280720693       15.1123803833       84.6506069022  LPSA28    23             16.0000000000
     30776       995  AGAL      O4             32.6018149125       15.6170780532       86.1132943683  LPSA28    23             16.0000000000
     30777       995  AGAL      HO4            31.8334043019       15.2370128144       85.8278371007  LPSA28    23             16.0000000000
     30778       995  AGAL      C6             31.3667056716       14.9459519400       83.3278962909  LPSA28    23             16.0000000000
     30779       995  AGAL      H61            30.6453420584       15.2300926616       82.6074235255  LPSA28    23             16.0000000000
     30780       995  AGAL      H62            31.9679179887       14.2283817087       82.7620574208  LPSA28    23             16.0000000000
     30781       995  AGAL      O6             30.6680672221       14.4117457316       84.3845202183  LPSA28    23             16.0000000000
     30782       995  AGAL      HO6            30.1155943662       13.6736092321       84.1740981585  LPSA28    23             16.0000000000
     30783       996  ARHM      C1             33.0107300550       20.6255194307       86.2818185944  LPSA28    24             17.0000000000
     30784       996  ARHM      H1             31.9750049445       20.3590627542       86.3680542693  LPSA28    24             17.0000000000
     30785       996  ARHM      C5             34.3385675260       22.5125449621       85.6157638072  LPSA28    24             17.0000000000
     30786       996  ARHM      H5             34.9142917070       21.8479876493       85.0070975499  LPSA28    24             17.0000000000
     30787       996  ARHM      O5             33.0176764983       22.0413718598       85.8657410059  LPSA28    24             17.0000000000
     30788       996  ARHM      C2             33.7143107922       20.5000584773       87.5921581840  LPSA28    24             17.0000000000
     30789       996  ARHM      H2             33.8220059244       19.4761507687       87.8984046741  LPSA28    24             17.0000000000
     30790       996  ARHM      O2             33.1340437062       21.3408160639       88.6075763533  LPSA28    24             17.0000000000
     30791       996  ARHM      C3             35.1406156587       21.0420956855       87.4133527752  LPSA28    24             17.0000000000
     30792       996  ARHM      H3             35.6010050070       20.3901010896       86.6640279609  LPSA28    24             17.0000000000
     30793       996  ARHM      O3             36.0067509554       20.8440691868       88.5620392964  LPSA28    24             17.0000000000
     30794       996  ARHM      HO3            35.8542889372       21.6177417017       89.1463757531  LPSA28    24             17.0000000000
     30795       996  ARHM      C4             35.1365509240       22.4895947392       86.9402325015  LPSA28    24             17.0000000000
     30796       996  ARHM      H4             34.5161611767       23.1044350847       87.7071552895  LPSA28    24             17.0000000000
     30797       996  ARHM      O4             36.4136505098       23.0811862534       86.8379508285  LPSA28    24             17.0000000000
     30798       996  ARHM      HO4            36.4325932735       24.0064120603       87.0219124236  LPSA28    24             17.0000000000
     30799       996  ARHM      C6             34.3680227749       23.9343411959       84.9175891319  LPSA28    24             17.0000000000
     30800       996  ARHM      H61            35.3121452510       24.0388970804       84.3853494017  LPSA28    24             17.0000000000
     30801       996  ARHM      H62            33.5526850926       23.9367572354       84.2649634992  LPSA28    24             17.0000000000
     30802       996  ARHM      H63            34.1488715281       24.7529521431       85.6811466487  LPSA28    24             17.0000000000
     30803       997  ARHM      C1             31.9690751109       20.7369483668       89.1588742089  LPSA28    25             18.0000000000
     30804       997  ARHM      H1             31.5747473563       20.0293366398       88.4722246341  LPSA28    25             18.0000000000
     30805       997  ARHM      C5             31.1317235554       22.7384684947       90.1670531641  LPSA28    25             18.0000000000
     30806       997  ARHM      H5             31.9631273659       23.3285557290       89.8870230824  LPSA28    25             18.0000000000
     30807       997  ARHM      O5             30.8721418331       21.6690327652       89.2315309535  LPSA28    25             18.0000000000
     30808       997  ARHM      C2             32.3076446813       20.1411391282       90.4685713243  LPSA28    25             18.0000000000
     30809       997  ARHM      H2             33.2554298521       19.5170430378       90.3413143991  LPSA28    25             18.0000000000
     30810       997  ARHM      O2             31.2008152759       19.3078323773       90.9328696740  LPSA28    25             18.0000000000
     30811       997  ARHM      C3             32.5327987562       21.3317013814       91.4562257518  LPSA28    25             18.0000000000
     30812       997  ARHM      H3             33.4100557418       21.9078072047       91.0689171631  LPSA28    25             18.0000000000
     30813       997  ARHM      O3             32.8853374456       20.7457347623       92.6920647463  LPSA28    25             18.0000000000
     30814       997  ARHM      C4             31.4120428688       22.2114886806       91.5960769721  LPSA28    25             18.0000000000
     30815       997  ARHM      H4             30.4379270881       21.6367072855       91.8876801091  LPSA28    25             18.0000000000
     30816       997  ARHM      O4             31.7632425726       23.1782178811       92.5862492282  LPSA28    25             18.0000000000
     30817       997  ARHM      HO4            30.9442057664       23.3492720944       93.0149361445  LPSA28    25             18.0000000000
     30818       997  ARHM      C6             29.9886620071       23.7515151154       90.2083352735  LPSA28    25             18.0000000000
     30819       997  ARHM      H61            29.6878728303       24.0839448157       89.1912344565  LPSA28    25             18.0000000000
     30820       997  ARHM      H62            29.0477046447       23.3452137420       90.6686969550  LPSA28    25             18.0000000000
     30821       997  ARHM      H63            30.2370066592       24.6978570366       90.8233913566  LPSA28    25             18.0000000000
     30822       998  BMANNA    C1             31.1356707938       18.0450630535       90.3138108879  LPSA28    26             19.0000000000
     30823       998  BMANNA    H1             32.1191771780       17.7563771672       89.8388342826  LPSA28    26             19.0000000000
     30824       998  BMANNA    C5             30.2190233446       16.6220088950       88.6312665858  LPSA28    26             19.0000000000
     30825       998  BMANNA    H5             31.2049464043       16.5194405425       88.1771240033  LPSA28    26             19.0000000000
     30826       998  BMANNA    O5             30.1696624391       17.9212455026       89.2346891933  LPSA28    26             19.0000000000
     30827       998  BMANNA    C2             30.8287731951       17.0765170180       91.3475147821  LPSA28    26             19.0000000000
     30828       998  BMANNA    H2             31.6685748593       17.1956510541       92.1081287357  LPSA28    26             19.0000000000
     30829       998  BMANNA    N              29.5075083013       17.4114833857       91.9238920796  LPSA28    26             19.0000000000
     30830       998  BMANNA    HN             28.7765542435       17.4634957060       91.3050515894  LPSA28    26             19.0000000000
     30831       998  BMANNA    C              29.2543441149       17.5411954988       93.1798471680  LPSA28    26             19.0000000000
     30832       998  BMANNA    O              30.1883408341       17.5762803505       94.0003587425  LPSA28    26             19.0000000000
     30833       998  BMANNA    CT             27.8116392006       17.6291789038       93.6758917343  LPSA28    26             19.0000000000
     30834       998  BMANNA    HT1            27.2279241806       17.9476531792       92.8666282051  LPSA28    26             19.0000000000
     30835       998  BMANNA    HT2            27.5300690527       18.1209563515       94.6620984389  LPSA28    26             19.0000000000
     30836       998  BMANNA    HT3            27.5121621396       16.5883687597       93.8484898219  LPSA28    26             19.0000000000
     30837       998  BMANNA    C3             30.9200401853       15.6871762197       90.7100883268  LPSA28    26             19.0000000000
     30838       998  BMANNA    H3             31.9662500958       15.5509111562       90.3384445889  LPSA28    26             19.0000000000
     30839       998  BMANNA    O3             30.7343899007       14.7034975646       91.7636866611  LPSA28    26             19.0000000000
     30840       998  BMANNA    HO3            31.5627881514       14.7437226246       92.2265744207  LPSA28    26             19.0000000000
     30841       998  BMANNA    C4             29.9697304479       15.6030603008       89.6481622736  LPSA28    26             19.0000000000
     30842       998  BMANNA    H4             28.8790422031       15.7426137119       89.9013799111  LPSA28    26             19.0000000000
     30843       998  BMANNA    O4             29.9878441047       14.3185650084       89.0416847738  LPSA28    26             19.0000000000
     30844       998  BMANNA    HO4            29.4355268441       13.7341491076       89.5591157304  LPSA28    26             19.0000000000
     30845       998  BMANNA    C6             29.2829098091       16.7326461155       87.3900617492  LPSA28    26             19.0000000000
     30846       998  BMANNA    H61            29.3400189016       17.7299796043       86.9191763972  LPSA28    26             19.0000000000
     30847       998  BMANNA    H62            29.5181903051       16.0124394903       86.6504270337  LPSA28    26             19.0000000000
     30848       998  BMANNA    O6             27.9198636988       16.5079887161       87.7329108337  LPSA28    26             19.0000000000
     30849       998  BMANNA    HO6            27.8354333284       15.6854694573       88.1688153196  LPSA28    26             19.0000000000
     30850       999  BGLCNA    C1             33.9164324915       21.1577679573       93.4616184899  LPSA28    27             19.0000000000
     30851       999  BGLCNA    H1             34.0034348963       22.2395779251       93.4392217979  LPSA28    27             19.0000000000
     30852       999  BGLCNA    C5             36.2375459340       21.1739940509       93.9656603721  LPSA28    27             19.0000000000
     30853       999  BGLCNA    H5             36.1647610103       22.2917605905       93.9564344452  LPSA28    27             19.0000000000
     30854       999  BGLCNA    O5             35.2266615845       20.7091402616       93.0607755266  LPSA28    27             19.0000000000
     30855       999  BGLCNA    C2             33.5863755274       20.6891172937       94.8806799918  LPSA28    27             19.0000000000
     30856       999  BGLCNA    H2             33.6315915283       19.5862683559       94.8757458582  LPSA28    27             19.0000000000
     30857       999  BGLCNA    N              32.2473301719       21.1082386304       95.2501113516  LPSA28    27             19.0000000000
     30858       999  BGLCNA    HN             32.0218340102       22.1242577111       95.0827132934  LPSA28    27             19.0000000000
     30859       999  BGLCNA    C              31.4918113163       20.1746384569       95.9523160909  LPSA28    27             19.0000000000
     30860       999  BGLCNA    O              31.9386426266       19.1341806653       96.5238801166  LPSA28    27             19.0000000000
     30861       999  BGLCNA    CT             29.9732142359       20.5240372435       96.0293745529  LPSA28    27             19.0000000000
     30862       999  BGLCNA    HT1            29.7343241306       21.3974562128       95.3635606282  LPSA28    27             19.0000000000
     30863       999  BGLCNA    HT2            29.5963003072       20.6726711529       97.0167906789  LPSA28    27             19.0000000000
     30864       999  BGLCNA    HT3            29.4025419736       19.5683057513       95.7039804309  LPSA28    27             19.0000000000
     30865       999  BGLCNA    C3             34.6364992549       21.1768205233       95.7540348103  LPSA28    27             19.0000000000
     30866       999  BGLCNA    H3             34.7132696093       22.2925200363       95.7401190096  LPSA28    27             19.0000000000
     30867       999  BGLCNA    O3             34.2044563379       20.7105755267       97.0775356047  LPSA28    27             19.0000000000
     30868       999  BGLCNA    C4             36.0350858913       20.6719175919       95.3486864533  LPSA28    27             19.0000000000
     30869       999  BGLCNA    H4             36.0284957729       19.5583022242       95.3090014479  LPSA28    27             19.0000000000
     30870       999  BGLCNA    O4             37.0112056331       21.1199362444       96.2156872787  LPSA28    27             19.0000000000
     30871       999  BGLCNA    HO4            37.0712476876       22.0327024233       96.0162444362  LPSA28    27             19.0000000000
     30872       999  BGLCNA    C6             37.6035658586       20.8193960790       93.2852949846  LPSA28    27             19.0000000000
     30873       999  BGLCNA    H61            38.3558741601       21.3720190867       93.8557506920  LPSA28    27             19.0000000000
     30874       999  BGLCNA    H62            37.8486336399       19.7473849692       93.4725180191  LPSA28    27             19.0000000000
     30875       999  BGLCNA    O6             37.6013324592       21.1546330460       91.9076175409  LPSA28    27             19.0000000000
     30876       999  BGLCNA    HO6            38.4670779280       20.8884552986       91.5273290588  LPSA28    27             19.0000000000
     30877      1000  AGAL      C1             34.7910749270       21.3006119230       98.2622020222  LPSA28    28             20.0000000000
     30878      1000  AGAL      H1             35.8026906980       20.9980367022       98.3007149491  LPSA28    28             20.0000000000
     30879      1000  AGAL      C5             33.4849195574       23.3411827854       98.1710438288  LPSA28    28             20.0000000000
     30880      1000  AGAL      H5             32.7171108347       22.7626775040       97.4646141937  LPSA28    28             20.0000000000
     30881      1000  AGAL      O5             34.8330043638       22.7182807394       98.1147365872  LPSA28    28             20.0000000000
     30882      1000  AGAL      C2             34.1245274088       21.0173711517       99.6197190629  LPSA28    28             20.0000000000
     30883      1000  AGAL      H2             34.7655743033       21.5783329181      100.2965066153  LPSA28    28             20.0000000000
     30884      1000  AGAL      O2             34.1486193948       19.6744084387      100.0788731798  LPSA28    28             20.0000000000
     30885      1000  AGAL      C3             32.7631194113       21.6268429946       99.7396972452  LPSA28    28             20.0000000000
     30886      1000  AGAL      H3             32.1469971438       21.2570547187       98.8607737785  LPSA28    28             20.0000000000
     30887      1000  AGAL      O3             31.9652565067       21.3380802182      100.9043404272  LPSA28    28             20.0000000000
     30888      1000  AGAL      HO3            31.1838560839       20.8629326686      100.5606486229  LPSA28    28             20.0000000000
     30889      1000  AGAL      C4             32.8670711825       23.0814440795       99.5102226768  LPSA28    28             20.0000000000
     30890      1000  AGAL      H4             31.8804810797       23.4784520366       99.4798298294  LPSA28    28             20.0000000000
     30891      1000  AGAL      O4             33.6119610977       23.7524445667      100.4757933835  LPSA28    28             20.0000000000
     30892      1000  AGAL      HO4            32.9924281033       24.1590991805      101.0376442747  LPSA28    28             20.0000000000
     30893      1000  AGAL      C6             33.4200540184       24.7745160754       97.6362902244  LPSA28    28             20.0000000000
     30894      1000  AGAL      H61            33.6849274403       24.7725932478       96.5809275898  LPSA28    28             20.0000000000
     30895      1000  AGAL      H62            32.4216209284       25.3328392787       97.7651048223  LPSA28    28             20.0000000000
     30896      1000  AGAL      O6             34.3331670458       25.5859538210       98.3456070822  LPSA28    28             20.0000000000
     30897      1000  AGAL      HO6            35.2006688386       25.5393657628       97.9416813930  LPSA28    28             20.0000000000
     30898      1001  ARHM      C1             34.5068851400       19.6642868741      101.4808913342  LPSA28    29             21.0000000000
     30899      1001  ARHM      H1             34.1870887027       20.6270006924      101.9964955809  LPSA28    29             21.0000000000
     30900      1001  ARHM      C5             36.3815495489       18.2900082478      101.1486206043  LPSA28    29             21.0000000000
     30901      1001  ARHM      H5             36.0428822402       18.2712610212      100.0935446791  LPSA28    29             21.0000000000
     30902      1001  ARHM      O5             35.8797029489       19.4818661522      101.6833506475  LPSA28    29             21.0000000000
     30903      1001  ARHM      C2             33.7299955498       18.6153014803      102.1437305515  LPSA28    29             21.0000000000
     30904      1001  ARHM      H2             32.6880316186       18.6832480461      101.9067628034  LPSA28    29             21.0000000000
     30905      1001  ARHM      O2             33.8659454001       18.6609044478      103.5748524404  LPSA28    29             21.0000000000
     30906      1001  ARHM      C3             34.2239301037       17.2931308596      101.6289418068  LPSA28    29             21.0000000000
     30907      1001  ARHM      H3             33.9715012816       17.2127814556      100.4952263366  LPSA28    29             21.0000000000
     30908      1001  ARHM      O3             33.4412283365       16.2797859865      102.1995749427  LPSA28    29             21.0000000000
     30909      1001  ARHM      HO3            33.9628000988       15.5506762528      102.2092645043  LPSA28    29             21.0000000000
     30910      1001  ARHM      C4             35.6604876670       17.0798006079      101.8247918557  LPSA28    29             21.0000000000
     30911      1001  ARHM      H4             35.9350406366       17.0411722000      102.9338171738  LPSA28    29             21.0000000000
     30912      1001  ARHM      O4             36.2223806376       15.8371633265      101.3452167393  LPSA28    29             21.0000000000
     30913      1001  ARHM      HO4            35.8945772694       15.5630142981      100.4362974805  LPSA28    29             21.0000000000
     30914      1001  ARHM      C6             37.9162258529       18.3827772166      101.2162231226  LPSA28    29             21.0000000000
     30915      1001  ARHM      H61            38.1252685631       19.4211003758      100.7685423143  LPSA28    29             21.0000000000
     30916      1001  ARHM      H62            38.2294522357       18.3897183043      102.3013153741  LPSA28    29             21.0000000000
     30917      1001  ARHM      H63            38.3447222265       17.5794249158      100.6072571094  LPSA28    29             21.0000000000
     30918      1002  ARHM      C1             32.9266423718       19.2806964096      104.3945976075  LPSA28    30             22.0000000000
     30919      1002  ARHM      H1             31.9339279673       18.8146850744      104.2094096401  LPSA28    30             22.0000000000
     30920      1002  ARHM      C5             34.1074766559       21.4055748717      104.5143062533  LPSA28    30             22.0000000000
     30921      1002  ARHM      H5             34.8581992942       20.8082800206      103.8668162917  LPSA28    30             22.0000000000
     30922      1002  ARHM      O5             32.8668900874       20.7102789621      104.2052433351  LPSA28    30             22.0000000000
     30923      1002  ARHM      C2             33.2851385558       19.0238867130      105.8471183130  LPSA28    30             22.0000000000
     30924      1002  ARHM      H2             33.3573084623       18.0012202530      106.0289718167  LPSA28    30             22.0000000000
     30925      1002  ARHM      O2             32.2981552418       19.6649910266      106.5813641610  LPSA28    30             22.0000000000
     30926      1002  ARHM      C3             34.5178495545       19.7095497082      106.2079894766  LPSA28    30             22.0000000000
     30927      1002  ARHM      H3             35.2739430281       19.4261972266      105.5270001340  LPSA28    30             22.0000000000
     30928      1002  ARHM      O3             35.0070921897       19.3755973443      107.5373891676  LPSA28    30             22.0000000000
     30929      1002  ARHM      C4             34.4369709171       21.2212090306      105.9708288384  LPSA28    30             22.0000000000
     30930      1002  ARHM      H4             33.6383826498       21.7014016987      106.5400372406  LPSA28    30             22.0000000000
     30931      1002  ARHM      O4             35.5450911071       21.9347085802      106.2997755749  LPSA28    30             22.0000000000
     30932      1002  ARHM      HO4            36.2991004945       21.9567549244      105.6964454668  LPSA28    30             22.0000000000
     30933      1002  ARHM      C6             34.0132869027       22.8474016076      104.0930490251  LPSA28    30             22.0000000000
     30934      1002  ARHM      H61            35.0404529953       23.2911987231      104.2143179997  LPSA28    30             22.0000000000
     30935      1002  ARHM      H62            33.8644237587       22.8886081998      103.0019050467  LPSA28    30             22.0000000000
     30936      1002  ARHM      H63            33.2186811081       23.4386867691      104.6493652223  LPSA28    30             22.0000000000
     30937      1003  BMANNA    C1             31.1895029085       18.8751484399      106.9502319096  LPSA28    31             23.0000000000
     30938      1003  BMANNA    H1             31.5609811025       17.8460676665      107.1550799008  LPSA28    31             23.0000000000
     30939      1003  BMANNA    C5             29.0770982074       17.9232213033      106.2136717625  LPSA28    31             23.0000000000
     30940      1003  BMANNA    H5             29.5342308824       16.9806825226      106.5467054000  LPSA28    31             23.0000000000
     30941      1003  BMANNA    O5             30.1948510697       18.7949648958      105.8742289322  LPSA28    31             23.0000000000
     30942      1003  BMANNA    C2             30.5357062037       19.4534357216      108.0830629221  LPSA28    31             23.0000000000
     30943      1003  BMANNA    H2             31.2765793908       19.3940341903      108.9031915743  LPSA28    31             23.0000000000
     30944      1003  BMANNA    N              30.2743233170       20.8273294976      107.8252935315  LPSA28    31             23.0000000000
     30945      1003  BMANNA    HN             30.1762055012       21.1102559573      106.8111160773  LPSA28    31             23.0000000000
     30946      1003  BMANNA    C              30.2024921457       21.7513680785      108.7868858964  LPSA28    31             23.0000000000
     30947      1003  BMANNA    O              30.4332541835       21.4890134135      109.9536662434  LPSA28    31             23.0000000000
     30948      1003  BMANNA    CT             29.8288102173       23.1678349706      108.3237946568  LPSA28    31             23.0000000000
     30949      1003  BMANNA    HT1            29.0842452443       23.0816437573      107.5739831696  LPSA28    31             23.0000000000
     30950      1003  BMANNA    HT2            30.7375355839       23.6397745599      107.9347099034  LPSA28    31             23.0000000000
     30951      1003  BMANNA    HT3            29.5444210040       23.8038096049      109.1768357935  LPSA28    31             23.0000000000
     30952      1003  BMANNA    C3             29.3861863932       18.5900993561      108.4884560283  LPSA28    31             23.0000000000
     30953      1003  BMANNA    H3             29.7159169075       17.5047186654      108.6988550870  LPSA28    31             23.0000000000
     30954      1003  BMANNA    O3             28.8324542084       18.9960999596      109.7404994872  LPSA28    31             23.0000000000
     30955      1003  BMANNA    HO3            29.5762205758       19.5020113005      110.0111610137  LPSA28    31             23.0000000000
     30956      1003  BMANNA    C4             28.3693001209       18.5452054338      107.4199857710  LPSA28    31             23.0000000000
     30957      1003  BMANNA    H4             27.9268493508       19.5888814056      107.0572414185  LPSA28    31             23.0000000000
     30958      1003  BMANNA    O4             27.2498832130       17.7860299675      107.8525671122  LPSA28    31             23.0000000000
     30959      1003  BMANNA    HO4            27.5090966233       16.9010770021      108.1943429300  LPSA28    31             23.0000000000
     30960      1003  BMANNA    C6             28.0917863449       17.7186041131      105.0512686782  LPSA28    31             23.0000000000
     30961      1003  BMANNA    H61            27.3721580451       16.8518416330      105.3397811046  LPSA28    31             23.0000000000
     30962      1003  BMANNA    H62            27.4690914306       18.5899167863      104.8698551944  LPSA28    31             23.0000000000
     30963      1003  BMANNA    O6             28.7704988505       17.3865284812      103.8241467834  LPSA28    31             23.0000000000
     30964      1003  BMANNA    HO6            29.1697612292       16.4706521235      103.8134147631  LPSA28    31             23.0000000000
     30965      1004  BGLCNA    C1             34.4272118974       20.0399372661      108.6103969990  LPSA28    32             23.0000000000
     30966      1004  BGLCNA    H1             33.3223468163       20.2379080701      108.4325564695  LPSA28    32             23.0000000000
     30967      1004  BGLCNA    C5             34.3378148311       22.0648096965      109.9277617404  LPSA28    32             23.0000000000
     30968      1004  BGLCNA    H5             33.2612078425       22.1688591365      109.5374749077  LPSA28    32             23.0000000000
     30969      1004  BGLCNA    O5             35.0284077979       21.2922252637      108.9423333575  LPSA28    32             23.0000000000
     30970      1004  BGLCNA    C2             34.4613243809       19.2114631348      109.8194522937  LPSA28    32             23.0000000000
     30971      1004  BGLCNA    H2             35.4866486093       19.2030840789      110.1044894257  LPSA28    32             23.0000000000
     30972      1004  BGLCNA    N              33.9944282634       17.8854495605      109.5956973249  LPSA28    32             23.0000000000
     30973      1004  BGLCNA    HN             33.2664146251       17.9074696740      108.8809076996  LPSA28    32             23.0000000000
     30974      1004  BGLCNA    C              34.4554803601       16.7127710397      110.0864625708  LPSA28    32             23.0000000000
     30975      1004  BGLCNA    O              35.3501619561       16.6587264592      110.9304085025  LPSA28    32             23.0000000000
     30976      1004  BGLCNA    CT             33.7748127036       15.4202382608      109.5841031968  LPSA28    32             23.0000000000
     30977      1004  BGLCNA    HT1            33.2406055126       15.8371078652      108.6281101354  LPSA28    32             23.0000000000
     30978      1004  BGLCNA    HT2            33.0003794397       15.0215799952      110.1898124037  LPSA28    32             23.0000000000
     30979      1004  BGLCNA    HT3            34.5087573701       14.6228810212      109.3122359934  LPSA28    32             23.0000000000
     30980      1004  BGLCNA    C3             33.6770315045       19.9057555035      110.8930231790  LPSA28    32             23.0000000000
     30981      1004  BGLCNA    H3             32.7420188669       20.1205498406      110.4606187373  LPSA28    32             23.0000000000
     30982      1004  BGLCNA    O3             33.4418937615       19.1093078641      112.0657798240  LPSA28    32             23.0000000000
     30983      1004  BGLCNA    C4             34.3649199805       21.2144053843      111.1707572500  LPSA28    32             23.0000000000
     30984      1004  BGLCNA    H4             35.4015606938       20.9728757438      111.5318289610  LPSA28    32             23.0000000000
     30985      1004  BGLCNA    O4             33.7351453878       21.9207226972      112.2070236435  LPSA28    32             23.0000000000
     30986      1004  BGLCNA    HO4            34.1086112613       21.7086366428      113.0745323218  LPSA28    32             23.0000000000
     30987      1004  BGLCNA    C6             34.9503466816       23.4465695019      110.0229508171  LPSA28    32             23.0000000000
     30988      1004  BGLCNA    H61            34.3390503098       24.1311034305      110.7194343748  LPSA28    32             23.0000000000
     30989      1004  BGLCNA    H62            35.9716303135       23.3706610878      110.5717638480  LPSA28    32             23.0000000000
     30990      1004  BGLCNA    O6             35.0062191470       24.0989645276      108.7709294272  LPSA28    32             23.0000000000
     30991      1004  BGLCNA    HO6            34.2039957415       23.8694505069      108.2360311317  LPSA28    32             23.0000000000
     30992      1005  AGAL      C1             32.1415950512       19.3020430494      112.6842874521  LPSA28    33             24.0000000000
     30993      1005  AGAL      H1             31.9149451829       20.3675547366      112.5979959475  LPSA28    33             24.0000000000
     30994      1005  AGAL      C5             31.3634463700       17.1095653423      112.2149219831  LPSA28    33             24.0000000000
     30995      1005  AGAL      H5             32.4082549819       16.9837616546      111.8792915250  LPSA28    33             24.0000000000
     30996      1005  AGAL      O5             31.0914786502       18.4884014290      112.0726784748  LPSA28    33             24.0000000000
     30997      1005  AGAL      C2             32.2753022324       18.8886197273      114.1482787662  LPSA28    33             24.0000000000
     30998      1005  AGAL      H2             31.2009498486       18.9572979634      114.5751854976  LPSA28    33             24.0000000000
     30999      1005  AGAL      O2             32.9905692470       19.8890239945      114.8486222260  LPSA28    33             24.0000000000
     31000      1005  AGAL      C3             32.5362638180       17.4100521466      114.2945545625  LPSA28    33             24.0000000000
     31001      1005  AGAL      H3             33.4934803730       17.1196524345      113.7405815065  LPSA28    33             24.0000000000
     31002      1005  AGAL      O3             32.8444708695       17.0154644388      115.5672660328  LPSA28    33             24.0000000000
     31003      1005  AGAL      HO3            32.2467263181       17.2649971961      116.2400186851  LPSA28    33             24.0000000000
     31004      1005  AGAL      C4             31.4199599028       16.6045587532      113.6708488317  LPSA28    33             24.0000000000
     31005      1005  AGAL      H4             31.6525355523       15.5327577397      113.6729875792  LPSA28    33             24.0000000000
     31006      1005  AGAL      O4             30.0961341384       16.7096543655      114.2435538900  LPSA28    33             24.0000000000
     31007      1005  AGAL      HO4            30.0303565347       17.3848185093      114.9085525172  LPSA28    33             24.0000000000
     31008      1005  AGAL      C6             30.5089133527       16.2655202846      111.2992528405  LPSA28    33             24.0000000000
     31009      1005  AGAL      H61            30.7917279883       16.5931999459      110.2783408757  LPSA28    33             24.0000000000
     31010      1005  AGAL      H62            30.6591151064       15.1703431746      111.3458027743  LPSA28    33             24.0000000000
     31011      1005  AGAL      O6             29.1245843726       16.3727500319      111.4129476537  LPSA28    33             24.0000000000
     31012      1005  AGAL      HO6            28.7365126435       17.0854326573      110.8444757795  LPSA28    33             24.0000000000
     31013      1006  ARHM      C1             32.3756264935       20.3426135213      116.0109133884  LPSA28    34             25.0000000000
     31014      1006  ARHM      H1             31.9986925834       19.5173529135      116.6389743656  LPSA28    34             25.0000000000
     31015      1006  ARHM      C5             31.4827302058       22.3849289810      115.0727799907  LPSA28    34             25.0000000000
     31016      1006  ARHM      H5             31.8249381933       22.0469527820      114.0209633333  LPSA28    34             25.0000000000
     31017      1006  ARHM      O5             31.2158456382       21.1917858060      115.8926868953  LPSA28    34             25.0000000000
     31018      1006  ARHM      C2             33.4678736557       21.0532054495      116.7601555753  LPSA28    34             25.0000000000
     31019      1006  ARHM      H2             34.4339560195       20.4898069462      116.8710959342  LPSA28    34             25.0000000000
     31020      1006  ARHM      O2             33.1082477465       21.4609044317      118.1592972339  LPSA28    34             25.0000000000
     31021      1006  ARHM      C3             33.8158921672       22.3240914841      115.9988665506  LPSA28    34             25.0000000000
     31022      1006  ARHM      H3             34.1418025173       22.0975237956      114.9724172480  LPSA28    34             25.0000000000
     31023      1006  ARHM      O3             34.8513605719       23.1479078815      116.5878695042  LPSA28    34             25.0000000000
     31024      1006  ARHM      HO3            35.4426686386       23.5445354101      115.9559434517  LPSA28    34             25.0000000000
     31025      1006  ARHM      C4             32.5802299931       23.2433994989      115.7987835878  LPSA28    34             25.0000000000
     31026      1006  ARHM      H4             32.0742139121       23.4790494467      116.7495315617  LPSA28    34             25.0000000000
     31027      1006  ARHM      O4             32.8771255743       24.4171177857      115.1362621200  LPSA28    34             25.0000000000
     31028      1006  ARHM      HO4            33.3167521388       25.0536578077      115.6953140327  LPSA28    34             25.0000000000
     31029      1006  ARHM      C6             30.1810402433       23.2331233523      114.8413279703  LPSA28    34             25.0000000000
     31030      1006  ARHM      H61            29.7431375313       23.6647835020      115.7172490283  LPSA28    34             25.0000000000
     31031      1006  ARHM      H62            30.4979799005       24.1942602018      114.3996926230  LPSA28    34             25.0000000000
     31032      1006  ARHM      H63            29.4241478196       22.8038750564      114.1590834060  LPSA28    34             25.0000000000
     31033      1007  ARHM      C1             32.7171217902       20.4213250462      119.0795908573  LPSA28    35             26.0000000000
     31034      1007  ARHM      H1             33.3889031069       19.4865061671      118.8787348947  LPSA28    35             26.0000000000
     31035      1007  ARHM      C5             30.4047056233       21.1481338178      119.2408916176  LPSA28    35             26.0000000000
     31036      1007  ARHM      H5             30.6083945111       22.0437746494      118.5254732223  LPSA28    35             26.0000000000
     31037      1007  ARHM      O5             31.2935981346       20.0081231200      118.9290334222  LPSA28    35             26.0000000000
     31038      1007  ARHM      C2             32.9629604408       20.8787203997      120.5365485050  LPSA28    35             26.0000000000
     31039      1007  ARHM      H2             34.0573080915       21.0822189591      120.7134209997  LPSA28    35             26.0000000000
     31040      1007  ARHM      O2             32.6144728945       19.8719106374      121.4126203716  LPSA28    35             26.0000000000
     31041      1007  ARHM      C3             32.0895512058       22.1084663185      120.8720061906  LPSA28    35             26.0000000000
     31042      1007  ARHM      H3             32.4029251822       22.9179657631      120.1344793452  LPSA28    35             26.0000000000
     31043      1007  ARHM      O3             32.3871378187       22.6212015495      122.1540075829  LPSA28    35             26.0000000000
     31044      1007  ARHM      HO3            32.6207370221       21.8890884111      122.7288731339  LPSA28    35             26.0000000000
     31045      1007  ARHM      C4             30.6544172740       21.7019673255      120.6788917534  LPSA28    35             26.0000000000
     31046      1007  ARHM      H4             30.3299349533       20.8445119998      121.3307119103  LPSA28    35             26.0000000000
     31047      1007  ARHM      O4             29.8577290383       22.8712146809      120.9693790153  LPSA28    35             26.0000000000
     31048      1007  ARHM      HO4            30.2002754119       23.6988730269      120.5581709812  LPSA28    35             26.0000000000
     31049      1007  ARHM      C6             28.9295044906       20.7753182242      118.8642347863  LPSA28    35             26.0000000000
     31050      1007  ARHM      H61            28.8190936044       20.6299145890      117.7433556958  LPSA28    35             26.0000000000
     31051      1007  ARHM      H62            28.7808695801       19.8610415597      119.4176110492  LPSA28    35             26.0000000000
     31052      1007  ARHM      H63            28.3014032820       21.6907888177      119.0633705917  LPSA28    35             26.0000000000
     31053      1008  BMANNA    C1             33.4535407003       18.7569634913      121.4471464502  LPSA28    36             27.0000000000
     31054      1008  BMANNA    H1             34.4824003226       19.0107932635      121.0972061898  LPSA28    36             27.0000000000
     31055      1008  BMANNA    C5             34.1381392680       16.5498281956      120.7299884793  LPSA28    36             27.0000000000
     31056      1008  BMANNA    H5             35.0915383410       17.0013493694      120.4610684421  LPSA28    36             27.0000000000
     31057      1008  BMANNA    O5             33.1028211757       17.5818309777      120.6641532654  LPSA28    36             27.0000000000
     31058      1008  BMANNA    C2             33.5854542758       18.3008478861      122.8920138725  LPSA28    36             27.0000000000
     31059      1008  BMANNA    H2             33.9417631017       19.1727151748      123.4719477421  LPSA28    36             27.0000000000
     31060      1008  BMANNA    N              32.2860005150       17.9125068695      123.4395449790  LPSA28    36             27.0000000000
     31061      1008  BMANNA    HN             31.6563291461       17.3705311349      122.8746519580  LPSA28    36             27.0000000000
     31062      1008  BMANNA    C              32.0361676020       18.0031455339      124.7737151700  LPSA28    36             27.0000000000
     31063      1008  BMANNA    O              32.7574175377       18.5425476498      125.6190347561  LPSA28    36             27.0000000000
     31064      1008  BMANNA    CT             30.8064206378       17.3646680513      125.3570716528  LPSA28    36             27.0000000000
     31065      1008  BMANNA    HT1            30.6158832911       16.3982188178      124.8802869227  LPSA28    36             27.0000000000
     31066      1008  BMANNA    HT2            29.8633792170       17.9526936879      125.1731404614  LPSA28    36             27.0000000000
     31067      1008  BMANNA    HT3            30.7941803863       17.2478337889      126.4547536948  LPSA28    36             27.0000000000
     31068      1008  BMANNA    C3             34.6117059390       17.2002947082      122.9763638711  LPSA28    36             27.0000000000
     31069      1008  BMANNA    H3             35.5918132712       17.5621130848      122.6403873786  LPSA28    36             27.0000000000
     31070      1008  BMANNA    O3             34.8274592331       16.7569313750      124.3414054450  LPSA28    36             27.0000000000
     31071      1008  BMANNA    HO3            35.6894691959       16.9016508615      124.7171830083  LPSA28    36             27.0000000000
     31072      1008  BMANNA    C4             34.2529410532       16.0479585665      122.1146940524  LPSA28    36             27.0000000000
     31073      1008  BMANNA    H4             33.3475846297       15.5767607402      122.4263894750  LPSA28    36             27.0000000000
     31074      1008  BMANNA    O4             35.2159500393       15.0010383292      122.2172873890  LPSA28    36             27.0000000000
     31075      1008  BMANNA    HO4            35.1627759218       14.8807044850      123.1985163392  LPSA28    36             27.0000000000
     31076      1008  BMANNA    C6             33.8285451051       15.4984842222      119.7412642597  LPSA28    36             27.0000000000
     31077      1008  BMANNA    H61            33.8310727057       15.8970434471      118.6946701192  LPSA28    36             27.0000000000
     31078      1008  BMANNA    H62            34.7193079122       14.8637072673      119.7045442506  LPSA28    36             27.0000000000
     31079      1008  BMANNA    O6             32.6174194489       14.7366761471      120.0914698020  LPSA28    36             27.0000000000
     31080      1008  BMANNA    HO6            32.9198400056       14.0094731237      120.6476247167  LPSA28    36             27.0000000000
     31081      1009  ECLIPA    HB6S           26.6840427768      -30.3953458702       20.4612168218  LPSA29    1               0.0000000000
     31082      1009  ECLIPA    OB6            25.3501230990      -29.5508793813       21.7140249152  LPSA29    1               0.0000000000
     31083      1009  ECLIPA    CB6            25.6714913896      -30.5746762876       20.7042159014  LPSA29    1               0.0000000000
     31084      1009  ECLIPA    HB6R           25.4108578514      -31.5567942948       21.0541931349  LPSA29    1               0.0000000000
     31085      1009  ECLIPA    CB5            24.7810209440      -30.4337318164       19.3988764877  LPSA29    1               0.0000000000
     31086      1009  ECLIPA    OB5            24.9801331405      -29.0263894628       18.9716901872  LPSA29    1               0.0000000000
     31087      1009  ECLIPA    HB5            23.7465159114      -30.5350525444       19.7771798410  LPSA29    1               0.0000000000
     31088      1009  ECLIPA    CB1            24.2158760748      -28.7642930967       17.7717324898  LPSA29    1               0.0000000000
     31089      1009  ECLIPA    HB1            23.1214241067      -28.9143948024       17.9003641080  LPSA29    1               0.0000000000
     31090      1009  ECLIPA    OA6            24.4465905684      -27.4631867662       17.3217246577  LPSA29    1               0.0000000000
     31091      1009  ECLIPA    CA6            25.7230090796      -26.8381487607       17.5745106853  LPSA29    1               0.0000000000
     31092      1009  ECLIPA    HA6R           26.4778763983      -27.6368502546       17.7226451425  LPSA29    1               0.0000000000
     31093      1009  ECLIPA    HA6S           25.5814664062      -26.0981162294       18.4598965841  LPSA29    1               0.0000000000
     31094      1009  ECLIPA    CB4            25.1751358603      -31.4620737672       18.3206521937  LPSA29    1               0.0000000000
     31095      1009  ECLIPA    HB4            26.2333525415      -31.3372255948       18.0085584641  LPSA29    1               0.0000000000
     31096      1009  ECLIPA    OB4            24.7446657246      -32.7124306910       18.9017319965  LPSA29    1               0.0000000000
     31097      1009  ECLIPA    PB             25.8442374426      -33.8101140110       19.3234616795  LPSA29    1               0.0000000000
     31098      1009  ECLIPA    OPB4           25.2956715225      -34.5495741967       20.5579515876  LPSA29    1               0.0000000000
     31099      1009  ECLIPA    OPB3           27.0523265207      -32.9029793912       19.6614545037  LPSA29    1               0.0000000000
     31100      1009  ECLIPA    OPB2           26.1270991108      -34.6704687028       18.0829495795  LPSA29    1               0.0000000000
     31101      1009  ECLIPA    CB3            24.3479159110      -31.1232502844       17.0955893951  LPSA29    1               0.0000000000
     31102      1009  ECLIPA    OB3            24.6250799504      -31.9025929181       15.9186528231  LPSA29    1               0.0000000000
     31103      1009  ECLIPA    HB3            23.2418448265      -31.0530984690       17.3284540628  LPSA29    1               0.0000000000
     31104      1009  ECLIPA    C71            23.9159912505      -32.9577187346       15.6929469039  LPSA29    1               0.0000000000
     31105      1009  ECLIPA    O71            22.9272832801      -33.2978752970       16.3832172580  LPSA29    1               0.0000000000
     31106      1009  ECLIPA    C72            24.4020243970      -33.5738727477       14.3548430386  LPSA29    1               0.0000000000
     31107      1009  ECLIPA    H72R           24.3123429153      -32.8170092161       13.5774555414  LPSA29    1               0.0000000000
     31108      1009  ECLIPA    H72S           23.8007336901      -34.5564734893       14.1464415926  LPSA29    1               0.0000000000
     31109      1009  ECLIPA    CB2            24.6478602094      -29.6716170583       16.6720734084  LPSA29    1               0.0000000000
     31110      1009  ECLIPA    HB2            25.8198487467      -29.6132536046       16.5298168153  LPSA29    1               0.0000000000
     31111      1009  ECLIPA    NB2            23.9107448719      -29.2615555203       15.4577284722  LPSA29    1               0.0000000000
     31112      1009  ECLIPA    HNB2           22.9809438759      -28.9235274487       15.5965609326  LPSA29    1               0.0000000000
     31113      1009  ECLIPA    CA4            24.9819998546      -25.2443921773       15.7929312798  LPSA29    1               0.0000000000
     31114      1009  ECLIPA    HA4            24.1529088194      -25.9336646963       15.4903430209  LPSA29    1               0.0000000000
     31115      1009  ECLIPA    OA4            24.5390500984      -24.3870236652       16.8012065728  LPSA29    1               0.0000000000
     31116      1009  ECLIPA    HOA4           24.4001290898      -24.8219365015       17.5928838569  LPSA29    1               0.0000000000
     31117      1009  ECLIPA    CA5            26.0883508898      -26.0352607877       16.3547806008  LPSA29    1               0.0000000000
     31118      1009  ECLIPA    HA5            27.0859137059      -25.4750334442       16.5880746347  LPSA29    1               0.0000000000
     31119      1009  ECLIPA    OA5            26.4735342925      -27.0032715470       15.3689671688  LPSA29    1               0.0000000000
     31120      1009  ECLIPA    CA1            26.8769725142      -26.3605581381       14.1076640156  LPSA29    1               0.0000000000
     31121      1009  ECLIPA    HA1            26.8048933602      -27.2415014626       13.4118188108  LPSA29    1               0.0000000000
     31122      1009  ECLIPA    OA1            28.2057195223      -25.8773503797       14.1359876212  LPSA29    1               0.0000000000
     31123      1009  ECLIPA    OPA2           29.7595909723      -26.0392775901       15.9734101064  LPSA29    1               0.0000000000
     31124      1009  ECLIPA    OPA3           29.0151422751      -28.1930024902       14.8300177673  LPSA29    1               0.0000000000
     31125      1009  ECLIPA    OPA4           30.5155061009      -26.6446886185       13.6615320840  LPSA29    1               0.0000000000
     31126      1009  ECLIPA    PA             29.3995075518      -26.7506025945       14.6765383084  LPSA29    1               0.0000000000
     31127      1009  ECLIPA    CA3            25.3526067831      -24.4936514376       14.5219348229  LPSA29    1               0.0000000000
     31128      1009  ECLIPA    HA3            26.1748092898      -23.7044562863       14.7377032538  LPSA29    1               0.0000000000
     31129      1009  ECLIPA    OA3            24.2180534901      -23.6910279676       14.2498111976  LPSA29    1               0.0000000000
     31130      1009  ECLIPA    C31            23.2290632028      -24.2749826474       13.5006246295  LPSA29    1               0.0000000000
     31131      1009  ECLIPA    O31            23.2371413485      -24.4413472276       12.2941239937  LPSA29    1               0.0000000000
     31132      1009  ECLIPA    C32            21.9069212237      -24.2009659164       14.2780289507  LPSA29    1               0.0000000000
     31133      1009  ECLIPA    H32R           21.2097380525      -23.5521215600       13.7149713840  LPSA29    1               0.0000000000
     31134      1009  ECLIPA    H32S           22.0832461968      -23.7999457715       15.2729523512  LPSA29    1               0.0000000000
     31135      1009  ECLIPA    CA2            25.7697663467      -25.5323170037       13.4984733916  LPSA29    1               0.0000000000
     31136      1009  ECLIPA    HA2            24.9423201458      -26.2395360733       13.3982259915  LPSA29    1               0.0000000000
     31137      1009  ECLIPA    NA2            26.1858291827      -24.9532703776       12.2035087571  LPSA29    1               0.0000000000
     31138      1009  ECLIPA    HNA2           26.0095617544      -24.0058473041       12.0865030408  LPSA29    1               0.0000000000
     31139      1009  ECLIPA    C73            25.8423307494      -34.0159678464       14.3319064372  LPSA29    1               0.0000000000
     31140      1009  ECLIPA    H73R           26.1317580678      -34.5609882007       15.2227416964  LPSA29    1               0.0000000000
     31141      1009  ECLIPA    O73            26.6411938160      -32.8086384009       14.2644256719  LPSA29    1               0.0000000000
     31142      1009  ECLIPA    C81            27.8378571723      -32.6553045262       14.8555734565  LPSA29    1               0.0000000000
     31143      1009  ECLIPA    O81            28.2368424944      -33.5467177907       15.6690894779  LPSA29    1               0.0000000000
     31144      1009  ECLIPA    C82            28.5687279421      -31.3945135993       14.3536111794  LPSA29    1               0.0000000000
     31145      1009  ECLIPA    H82R           29.5228811627      -31.2602469424       14.8531840528  LPSA29    1               0.0000000000
     31146      1009  ECLIPA    H82S           27.9657617480      -30.4746445033       14.5323473422  LPSA29    1               0.0000000000
     31147      1009  ECLIPA    C83            28.7982737381      -31.4917874972       12.8301722806  LPSA29    1               0.0000000000
     31148      1009  ECLIPA    H83R           27.8575754716      -31.1857726615       12.2351841548  LPSA29    1               0.0000000000
     31149      1009  ECLIPA    H83S           28.9039793632      -32.5514669375       12.5911296392  LPSA29    1               0.0000000000
     31150      1009  ECLIPA    C84            29.9063424329      -30.5560475889       12.3050927261  LPSA29    1               0.0000000000
     31151      1009  ECLIPA    H84R           30.8781493599      -30.9861845010       12.5767117503  LPSA29    1               0.0000000000
     31152      1009  ECLIPA    H84S           29.6698535019      -29.6070388982       12.7369555497  LPSA29    1               0.0000000000
     31153      1009  ECLIPA    C85            29.8204530321      -30.3949556764       10.7695484051  LPSA29    1               0.0000000000
     31154      1009  ECLIPA    H85R           28.7529255555      -30.2637840500       10.5503608829  LPSA29    1               0.0000000000
     31155      1009  ECLIPA    H85S           30.1197046471      -31.3485414765       10.2367999955  LPSA29    1               0.0000000000
     31156      1009  ECLIPA    C86            30.5482009557      -29.1034820860       10.3034592726  LPSA29    1               0.0000000000
     31157      1009  ECLIPA    H86R           31.6314953959      -29.2791762278        9.9932223571  LPSA29    1               0.0000000000
     31158      1009  ECLIPA    H86S           30.5813502099      -28.3631123524       11.0807540114  LPSA29    1               0.0000000000
     31159      1009  ECLIPA    C87            29.7724685894      -28.3634122706        9.1601018854  LPSA29    1               0.0000000000
     31160      1009  ECLIPA    H87R           30.3230362999      -27.4982876537        8.8049419625  LPSA29    1               0.0000000000
     31161      1009  ECLIPA    H87S           28.7988897526      -27.9514923354        9.5406723883  LPSA29    1               0.0000000000
     31162      1009  ECLIPA    C88            29.4042711716      -29.2950073289        8.0318999685  LPSA29    1               0.0000000000
     31163      1009  ECLIPA    H88R           28.5439669835      -29.9712343702        8.3479828359  LPSA29    1               0.0000000000
     31164      1009  ECLIPA    H88S           30.2023715681      -30.0861528118        7.9254521495  LPSA29    1               0.0000000000
     31165      1009  ECLIPA    C89            28.9648565619      -28.5836957616        6.7101000712  LPSA29    1               0.0000000000
     31166      1009  ECLIPA    H89R           28.6891135832      -27.5197558300        6.8746682686  LPSA29    1               0.0000000000
     31167      1009  ECLIPA    H89S           28.1076020170      -29.0170520383        6.2317001698  LPSA29    1               0.0000000000
     31168      1009  ECLIPA    C810           30.1254019164      -28.6883909171        5.7047246593  LPSA29    1               0.0000000000
     31169      1009  ECLIPA    H810R          30.5964843788      -29.6402648643        6.0108430704  LPSA29    1               0.0000000000
     31170      1009  ECLIPA    H810S          30.7990521903      -27.8668800397        5.8554647029  LPSA29    1               0.0000000000
     31171      1009  ECLIPA    C811           29.7301941933      -28.7123935001        4.2179945741  LPSA29    1               0.0000000000
     31172      1009  ECLIPA    H811R          30.4717288678      -28.4692644328        3.5081125689  LPSA29    1               0.0000000000
     31173      1009  ECLIPA    H811S          28.8064672002      -28.0227963093        4.1819101877  LPSA29    1               0.0000000000
     31174      1009  ECLIPA    C812           29.0681007860      -30.0144502024        3.7413673409  LPSA29    1               0.0000000000
     31175      1009  ECLIPA    H812R          28.6826147662      -29.8196851540        2.6403157337  LPSA29    1               0.0000000000
     31176      1009  ECLIPA    H812S          28.3120290081      -30.3990176449        4.4144737196  LPSA29    1               0.0000000000
     31177      1009  ECLIPA    C813           30.0182875755      -31.2245124897        3.6785234959  LPSA29    1               0.0000000000
     31178      1009  ECLIPA    H813R          30.8125100480      -30.9627856342        2.9398073555  LPSA29    1               0.0000000000
     31179      1009  ECLIPA    H813S          30.5584061896      -31.4926126539        4.6616087352  LPSA29    1               0.0000000000
     31180      1009  ECLIPA    C814           29.3672218854      -32.4808072784        3.1377409857  LPSA29    1               0.0000000000
     31181      1009  ECLIPA    H814R          28.7167685850      -32.3531425193        2.1719074593  LPSA29    1               0.0000000000
     31182      1009  ECLIPA    H814S          28.7282162862      -32.9185356194        3.9166242729  LPSA29    1               0.0000000000
     31183      1009  ECLIPA    H814T          30.1343292238      -33.2514571151        2.8964685373  LPSA29    1               0.0000000000
     31184      1009  ECLIPA    C74            26.3362419908      -34.8579820772       13.1792855021  LPSA29    1               0.0000000000
     31185      1009  ECLIPA    H74R           25.8920944886      -35.8343151372       12.9935747315  LPSA29    1               0.0000000000
     31186      1009  ECLIPA    H74S           27.4744942660      -35.0396870798       13.3086690609  LPSA29    1               0.0000000000
     31187      1009  ECLIPA    C75            26.2919079721      -34.0422652142       11.8151371119  LPSA29    1               0.0000000000
     31188      1009  ECLIPA    H75R           27.2104922544      -34.3779077342       11.2107603889  LPSA29    1               0.0000000000
     31189      1009  ECLIPA    H75S           26.3930414680      -32.9569964004       12.0082837783  LPSA29    1               0.0000000000
     31190      1009  ECLIPA    C76            25.0388573687      -34.2685094917       10.9251453624  LPSA29    1               0.0000000000
     31191      1009  ECLIPA    H76R           24.1895073250      -33.6697237323       11.3555905686  LPSA29    1               0.0000000000
     31192      1009  ECLIPA    H76S           24.6458811483      -35.3677345111       10.9731137071  LPSA29    1               0.0000000000
     31193      1009  ECLIPA    C77            25.1532229561      -33.9221006476        9.4191603634  LPSA29    1               0.0000000000
     31194      1009  ECLIPA    H77R           25.9252481830      -34.5469227652        9.0408775908  LPSA29    1               0.0000000000
     31195      1009  ECLIPA    H77S           25.5910903813      -32.9060773352        9.2852383479  LPSA29    1               0.0000000000
     31196      1009  ECLIPA    C78            23.7382000046      -33.9773379232        8.8297405752  LPSA29    1               0.0000000000
     31197      1009  ECLIPA    H78R           23.2874619470      -34.9139040742        9.1562620580  LPSA29    1               0.0000000000
     31198      1009  ECLIPA    H78S           23.2041591684      -33.1152202791        9.3169442960  LPSA29    1               0.0000000000
     31199      1009  ECLIPA    C79            23.6842611689      -33.5943608361        7.2570767761  LPSA29    1               0.0000000000
     31200      1009  ECLIPA    H79R           23.4047716665      -32.4991285387        7.1763205913  LPSA29    1               0.0000000000
     31201      1009  ECLIPA    H79S           22.8878039614      -34.1802648105        6.7882549413  LPSA29    1               0.0000000000
     31202      1009  ECLIPA    C710           24.8627774606      -34.0259736371        6.3785096220  LPSA29    1               0.0000000000
     31203      1009  ECLIPA    H710R          25.7537056285      -33.5452673711        6.8460783027  LPSA29    1               0.0000000000
     31204      1009  ECLIPA    H710S          24.9653651328      -35.0395481170        6.4843026416  LPSA29    1               0.0000000000
     31205      1009  ECLIPA    C711           24.7641195188      -33.5671570043        4.9384125046  LPSA29    1               0.0000000000
     31206      1009  ECLIPA    H711R          23.8679778736      -34.0683752057        4.5670708729  LPSA29    1               0.0000000000
     31207      1009  ECLIPA    H711S          24.6928946576      -32.4497525282        4.9306188492  LPSA29    1               0.0000000000
     31208      1009  ECLIPA    C712           26.0310966865      -33.9870431426        4.2148670498  LPSA29    1               0.0000000000
     31209      1009  ECLIPA    H712R          26.0907033200      -35.0765935395        4.3130666899  LPSA29    1               0.0000000000
     31210      1009  ECLIPA    H712S          26.8430691685      -33.5986183095        4.8522839389  LPSA29    1               0.0000000000
     31211      1009  ECLIPA    C713           26.0887526038      -33.4044165791        2.7357390519  LPSA29    1               0.0000000000
     31212      1009  ECLIPA    H713R          26.0957855251      -32.2881035958        2.8800411466  LPSA29    1               0.0000000000
     31213      1009  ECLIPA    H713S          27.0677056619      -33.8012048226        2.2750064041  LPSA29    1               0.0000000000
     31214      1009  ECLIPA    C714           24.9397401312      -33.9806832572        1.8879763961  LPSA29    1               0.0000000000
     31215      1009  ECLIPA    H714R          25.0401670570      -35.0680424643        1.7626189762  LPSA29    1               0.0000000000
     31216      1009  ECLIPA    H714S          23.9579808463      -33.6109119002        2.2081901572  LPSA29    1               0.0000000000
     31217      1009  ECLIPA    H714T          25.1627799193      -33.5613466004        0.9249202435  LPSA29    1               0.0000000000
     31218      1009  ECLIPA    C51            24.3880967452      -29.5584479864       14.2380633031  LPSA29    1               0.0000000000
     31219      1009  ECLIPA    O51            25.6046408839      -29.8229323390       14.1304636378  LPSA29    1               0.0000000000
     31220      1009  ECLIPA    C52            23.4039701128      -29.6497983316       13.0157035712  LPSA29    1               0.0000000000
     31221      1009  ECLIPA    H52R           22.9289872704      -30.6128190609       12.8950255930  LPSA29    1               0.0000000000
     31222      1009  ECLIPA    H52S           22.6787953518      -28.8947004808       13.2222025935  LPSA29    1               0.0000000000
     31223      1009  ECLIPA    C53            24.1981813859      -29.1417215985       11.7526064304  LPSA29    1               0.0000000000
     31224      1009  ECLIPA    H53R           25.0065935382      -28.4646405030       12.0082431084  LPSA29    1               0.0000000000
     31225      1009  ECLIPA    O53            23.2029288546      -28.6452918059       10.8431816314  LPSA29    1               0.0000000000
     31226      1009  ECLIPA    C61            23.2389072489      -27.3658187875       10.5090573566  LPSA29    1               0.0000000000
     31227      1009  ECLIPA    O61            24.0481884481      -26.5681474085       10.8659713306  LPSA29    1               0.0000000000
     31228      1009  ECLIPA    C62            22.0605245548      -27.0569894650        9.5765835255  LPSA29    1               0.0000000000
     31229      1009  ECLIPA    H62R           21.1588552274      -26.9464417593       10.2152837125  LPSA29    1               0.0000000000
     31230      1009  ECLIPA    H62S           21.8337465088      -28.0071864338        9.0470049452  LPSA29    1               0.0000000000
     31231      1009  ECLIPA    C63            22.3437789104      -25.8242072541        8.6803029234  LPSA29    1               0.0000000000
     31232      1009  ECLIPA    H63R           23.3630517734      -25.9472620826        8.2798705976  LPSA29    1               0.0000000000
     31233      1009  ECLIPA    H63S           22.3343343759      -24.8403844914        9.3252199642  LPSA29    1               0.0000000000
     31234      1009  ECLIPA    C64            21.4486319643      -25.5791438232        7.5279067597  LPSA29    1               0.0000000000
     31235      1009  ECLIPA    H64R           21.6820497411      -24.6077325153        6.9620099216  LPSA29    1               0.0000000000
     31236      1009  ECLIPA    H64S           20.3845757414      -25.5376785691        7.9657393466  LPSA29    1               0.0000000000
     31237      1009  ECLIPA    C65            21.5050860743      -26.7981097631        6.5414948800  LPSA29    1               0.0000000000
     31238      1009  ECLIPA    H65R           21.1663980154      -27.6025058066        7.2423230371  LPSA29    1               0.0000000000
     31239      1009  ECLIPA    H65S           22.5489442741      -26.9357098927        6.1828980290  LPSA29    1               0.0000000000
     31240      1009  ECLIPA    C66            20.6097607700      -26.7193311283        5.2222643966  LPSA29    1               0.0000000000
     31241      1009  ECLIPA    H66R           19.5728390472      -26.6317383463        5.5395647249  LPSA29    1               0.0000000000
     31242      1009  ECLIPA    H66S           20.8136760006      -27.7522708615        4.8113963288  LPSA29    1               0.0000000000
     31243      1009  ECLIPA    C67            20.9534137216      -25.6959372246        4.1696839457  LPSA29    1               0.0000000000
     31244      1009  ECLIPA    H67R           21.0630711184      -24.6892584959        4.5058181646  LPSA29    1               0.0000000000
     31245      1009  ECLIPA    H67S           20.1822958835      -25.7179620556        3.3478820057  LPSA29    1               0.0000000000
     31246      1009  ECLIPA    C68            22.2885841006      -25.9151552624        3.5077075145  LPSA29    1               0.0000000000
     31247      1009  ECLIPA    H68R           22.4867847458      -26.8949327516        3.0112508411  LPSA29    1               0.0000000000
     31248      1009  ECLIPA    H68S           22.9722832053      -25.6986104496        4.3087918325  LPSA29    1               0.0000000000
     31249      1009  ECLIPA    C69            22.4218499395      -24.9935758513        2.2963532923  LPSA29    1               0.0000000000
     31250      1009  ECLIPA    H69R           21.8339729151      -24.0556855652        2.3203210098  LPSA29    1               0.0000000000
     31251      1009  ECLIPA    H69S           21.9461694338      -25.5169121302        1.4693744207  LPSA29    1               0.0000000000
     31252      1009  ECLIPA    C610           23.8247857894      -24.6618008121        1.9396251084  LPSA29    1               0.0000000000
     31253      1009  ECLIPA    H610R          24.4789475027      -25.5689232283        2.0603347121  LPSA29    1               0.0000000000
     31254      1009  ECLIPA    H610S          24.2463984028      -23.9193862131        2.6933643884  LPSA29    1               0.0000000000
     31255      1009  ECLIPA    C611           23.9680656966      -23.9850225562        0.5312153135  LPSA29    1               0.0000000000
     31256      1009  ECLIPA    H611R          23.3517490980      -23.0658394856        0.5735373188  LPSA29    1               0.0000000000
     31257      1009  ECLIPA    H611S          24.9297302158      -23.5246764300        0.3609598123  LPSA29    1               0.0000000000
     31258      1009  ECLIPA    C612           23.6390613770      -24.9689984910       -0.5788949292  LPSA29    1               0.0000000000
     31259      1009  ECLIPA    H612R          24.4469229938      -25.7532709762       -0.6060949542  LPSA29    1               0.0000000000
     31260      1009  ECLIPA    H612S          22.7286882807      -25.5205013811       -0.3132441764  LPSA29    1               0.0000000000
     31261      1009  ECLIPA    H612T          23.5825313482      -24.4838770570       -1.5574606966  LPSA29    1               0.0000000000
     31262      1009  ECLIPA    C54            24.8140292959      -30.4303972187       11.1776054589  LPSA29    1               0.0000000000
     31263      1009  ECLIPA    H54R           23.9719128112      -31.1267556134       10.8869876633  LPSA29    1               0.0000000000
     31264      1009  ECLIPA    H54S           25.3734393565      -30.9719781022       11.9574517429  LPSA29    1               0.0000000000
     31265      1009  ECLIPA    C55            25.7658798924      -30.3306885902        9.9916770240  LPSA29    1               0.0000000000
     31266      1009  ECLIPA    H55R           26.3556241636      -31.2525347069        9.7856946516  LPSA29    1               0.0000000000
     31267      1009  ECLIPA    H55S           26.5261223908      -29.5082994441       10.2436295858  LPSA29    1               0.0000000000
     31268      1009  ECLIPA    C56            24.9346184059      -30.1365849514        8.7515486822  LPSA29    1               0.0000000000
     31269      1009  ECLIPA    H56R           24.3266035727      -29.1845228201        8.8382497819  LPSA29    1               0.0000000000
     31270      1009  ECLIPA    H56S           24.2756692882      -30.9030840394        8.4741334449  LPSA29    1               0.0000000000
     31271      1009  ECLIPA    C57            25.7119095180      -29.7410944751        7.4395707935  LPSA29    1               0.0000000000
     31272      1009  ECLIPA    H57R           26.5015563073      -30.4494639616        7.1827428724  LPSA29    1               0.0000000000
     31273      1009  ECLIPA    H57S           26.2399897632      -28.7673322391        7.5196553379  LPSA29    1               0.0000000000
     31274      1009  ECLIPA    C58            24.7040132249      -29.5423132846        6.2350750625  LPSA29    1               0.0000000000
     31275      1009  ECLIPA    H58R           23.9361817424      -30.3643901367        6.2095761879  LPSA29    1               0.0000000000
     31276      1009  ECLIPA    H58S           24.0431650168      -28.6790470893        6.5224540661  LPSA29    1               0.0000000000
     31277      1009  ECLIPA    C59            25.4399374138      -29.4937737567        4.8667186835  LPSA29    1               0.0000000000
     31278      1009  ECLIPA    H59R           26.0264211933      -30.4067031528        4.6589989540  LPSA29    1               0.0000000000
     31279      1009  ECLIPA    H59S           26.0882524030      -28.6218304145        5.0825555512  LPSA29    1               0.0000000000
     31280      1009  ECLIPA    C510           24.4661195762      -29.4444648223        3.6752379292  LPSA29    1               0.0000000000
     31281      1009  ECLIPA    H510R          23.5912542334      -28.7172159660        3.7937959224  LPSA29    1               0.0000000000
     31282      1009  ECLIPA    H510S          23.9798522786      -30.5001542689        3.4613250382  LPSA29    1               0.0000000000
     31283      1009  ECLIPA    C511           25.0858810653      -29.1164321089        2.3004848829  LPSA29    1               0.0000000000
     31284      1009  ECLIPA    H511R          25.2053154953      -28.0164349666        2.2679211996  LPSA29    1               0.0000000000
     31285      1009  ECLIPA    H511S          26.1306576682      -29.5300665464        2.1940961976  LPSA29    1               0.0000000000
     31286      1009  ECLIPA    C512           24.2559093220      -29.4948664122        1.0189424135  LPSA29    1               0.0000000000
     31287      1009  ECLIPA    H512R          24.9008287854      -29.4150677177        0.0815295424  LPSA29    1               0.0000000000
     31288      1009  ECLIPA    H512S          23.8868440149      -30.5236909279        1.1129704346  LPSA29    1               0.0000000000
     31289      1009  ECLIPA    C513           23.0876572573      -28.4734843460        0.6457389972  LPSA29    1               0.0000000000
     31290      1009  ECLIPA    H513R          23.4901398501      -27.4230865762        0.5010832175  LPSA29    1               0.0000000000
     31291      1009  ECLIPA    H513S          22.4071990554      -28.4094347713        1.4088770719  LPSA29    1               0.0000000000
     31292      1009  ECLIPA    C514           22.4408867643      -28.8581111890       -0.6567184026  LPSA29    1               0.0000000000
     31293      1009  ECLIPA    H514R          22.0971136827      -29.8918414873       -0.6273993866  LPSA29    1               0.0000000000
     31294      1009  ECLIPA    H514S          21.5370157772      -28.2466004676       -0.7024724270  LPSA29    1               0.0000000000
     31295      1009  ECLIPA    H514T          23.1588579063      -28.7052071201       -1.5427815912  LPSA29    1               0.0000000000
     31296      1009  ECLIPA    C33            21.1021926023      -25.5628685943       14.4880792826  LPSA29    1               0.0000000000
     31297      1009  ECLIPA    H33R           20.0694689505      -25.2835626600       14.8828993596  LPSA29    1               0.0000000000
     31298      1009  ECLIPA    O33            21.7253025331      -26.3703230542       15.4699768821  LPSA29    1               0.0000000000
     31299      1009  ECLIPA    HO33           21.5723219036      -25.9887937349       16.2926205744  LPSA29    1               0.0000000000
     31300      1009  ECLIPA    C34            20.8760365655      -26.4357897781       13.2255459338  LPSA29    1               0.0000000000
     31301      1009  ECLIPA    H34R           21.8351452397      -26.7114371300       12.8010908313  LPSA29    1               0.0000000000
     31302      1009  ECLIPA    H34S           20.4009173585      -25.8062986009       12.3772221142  LPSA29    1               0.0000000000
     31303      1009  ECLIPA    C35            20.0580825343      -27.7246868314       13.4256256262  LPSA29    1               0.0000000000
     31304      1009  ECLIPA    H35R           19.0438423943      -27.4401894374       13.6963698038  LPSA29    1               0.0000000000
     31305      1009  ECLIPA    H35S           20.4854881650      -28.2855823213       14.2668166019  LPSA29    1               0.0000000000
     31306      1009  ECLIPA    C36            19.8427669874      -28.6175932002       12.1865608177  LPSA29    1               0.0000000000
     31307      1009  ECLIPA    H36R           20.8382487033      -28.4096099316       11.7430812241  LPSA29    1               0.0000000000
     31308      1009  ECLIPA    H36S           19.0159870837      -28.2924913346       11.4785220412  LPSA29    1               0.0000000000
     31309      1009  ECLIPA    C37            19.8556670276      -30.0962309584       12.5255831563  LPSA29    1               0.0000000000
     31310      1009  ECLIPA    H37R           18.7118016706      -30.3536049492       12.6765215637  LPSA29    1               0.0000000000
     31311      1009  ECLIPA    H37S           20.3107264322      -30.2990794580       13.5128993321  LPSA29    1               0.0000000000
     31312      1009  ECLIPA    C38            20.4105681155      -31.0505594430       11.4317274953  LPSA29    1               0.0000000000
     31313      1009  ECLIPA    H38R           21.5121927024      -31.0923981145       11.4067421357  LPSA29    1               0.0000000000
     31314      1009  ECLIPA    H38S           20.1250088325      -32.0775625959       11.7230999881  LPSA29    1               0.0000000000
     31315      1009  ECLIPA    C39            19.9452105436      -30.6351684988       10.0213367345  LPSA29    1               0.0000000000
     31316      1009  ECLIPA    H39R           20.2145895524      -29.5657583195        9.8128797222  LPSA29    1               0.0000000000
     31317      1009  ECLIPA    H39S           18.8477873275      -30.8644866215        9.9697980947  LPSA29    1               0.0000000000
     31318      1009  ECLIPA    C310           20.4791982588      -31.4730429017        8.8401719124  LPSA29    1               0.0000000000
     31319      1009  ECLIPA    H310R          20.0414521398      -32.5166166566        9.0626900142  LPSA29    1               0.0000000000
     31320      1009  ECLIPA    H310S          21.6055683561      -31.5300309956        8.8945759064  LPSA29    1               0.0000000000
     31321      1009  ECLIPA    C311           20.2933923611      -30.7836513613        7.5676235846  LPSA29    1               0.0000000000
     31322      1009  ECLIPA    H311R          19.3074902402      -30.2531752898        7.5507520616  LPSA29    1               0.0000000000
     31323      1009  ECLIPA    H311S          21.0783158330      -30.0159243353        7.2851462164  LPSA29    1               0.0000000000
     31324      1009  ECLIPA    C312           20.3882899522      -31.7004182005        6.3280121142  LPSA29    1               0.0000000000
     31325      1009  ECLIPA    H312R          21.1515484116      -32.5036167521        6.4861373960  LPSA29    1               0.0000000000
     31326      1009  ECLIPA    H312S          19.3852554293      -32.1743823713        6.1820758986  LPSA29    1               0.0000000000
     31327      1009  ECLIPA    C313           20.7176627317      -30.9628457851        4.9895779706  LPSA29    1               0.0000000000
     31328      1009  ECLIPA    H313R          19.8313069035      -30.4471840031        4.7825120466  LPSA29    1               0.0000000000
     31329      1009  ECLIPA    H313S          21.5390837658      -30.2113587021        5.1572698764  LPSA29    1               0.0000000000
     31330      1009  ECLIPA    C314           21.0767610995      -31.8074631557        3.8116661598  LPSA29    1               0.0000000000
     31331      1009  ECLIPA    H314R          20.2398292486      -32.5292256257        3.6067793993  LPSA29    1               0.0000000000
     31332      1009  ECLIPA    H314S          21.2957620708      -31.2706460673        2.8849361441  LPSA29    1               0.0000000000
     31333      1009  ECLIPA    H314T          21.9888507610      -32.4613722698        4.0446347774  LPSA29    1               0.0000000000
     31334      1009  ECLIPA    C11            26.9171428938      -25.5422330497       11.2900808200  LPSA29    1               0.0000000000
     31335      1009  ECLIPA    O11            27.1602363484      -26.7332637796       11.1394597694  LPSA29    1               0.0000000000
     31336      1009  ECLIPA    C12            27.6090990503      -24.5739258570       10.2853014675  LPSA29    1               0.0000000000
     31337      1009  ECLIPA    H12R           28.7085031565      -24.5002070074       10.4852637814  LPSA29    1               0.0000000000
     31338      1009  ECLIPA    H12S           27.1217057878      -23.5911774208       10.5222272274  LPSA29    1               0.0000000000
     31339      1009  ECLIPA    C13            27.4015337674      -24.8942134965        8.8110583416  LPSA29    1               0.0000000000
     31340      1009  ECLIPA    H13R           27.5159308462      -26.0206200180        8.5839874118  LPSA29    1               0.0000000000
     31341      1009  ECLIPA    O13            28.4855347732      -24.2091519932        8.1311342176  LPSA29    1               0.0000000000
     31342      1009  ECLIPA    HO13           28.6595569903      -24.6240373777        7.3064966676  LPSA29    1               0.0000000000
     31343      1009  ECLIPA    C14            25.9977110332      -24.4612107012        8.4581579993  LPSA29    1               0.0000000000
     31344      1009  ECLIPA    H14R           25.7008475273      -23.4744894506        8.9706443184  LPSA29    1               0.0000000000
     31345      1009  ECLIPA    H14S           25.3194408357      -25.2985282742        8.7243868424  LPSA29    1               0.0000000000
     31346      1009  ECLIPA    C15            25.7754651604      -24.2230749007        6.9526486677  LPSA29    1               0.0000000000
     31347      1009  ECLIPA    H15R           26.5239114667      -23.5610685158        6.5500123177  LPSA29    1               0.0000000000
     31348      1009  ECLIPA    H15S           24.7710550055      -23.8031282534        6.8782608049  LPSA29    1               0.0000000000
     31349      1009  ECLIPA    C16            25.8847628849      -25.5510703185        6.1622847334  LPSA29    1               0.0000000000
     31350      1009  ECLIPA    H16R           24.9292832509      -26.1827739293        6.2733383262  LPSA29    1               0.0000000000
     31351      1009  ECLIPA    H16S           26.5752395722      -26.2083065876        6.7182496574  LPSA29    1               0.0000000000
     31352      1009  ECLIPA    C17            26.1895545431      -25.3459333966        4.6801229578  LPSA29    1               0.0000000000
     31353      1009  ECLIPA    H17R           25.4798471806      -24.5005463965        4.4246758429  LPSA29    1               0.0000000000
     31354      1009  ECLIPA    H17S           25.9403733588      -26.1709307980        4.0046542873  LPSA29    1               0.0000000000
     31355      1009  ECLIPA    C18            27.6243303402      -24.9561723503        4.4504458171  LPSA29    1               0.0000000000
     31356      1009  ECLIPA    H18R           27.7286812745      -24.1179507211        5.0865821920  LPSA29    1               0.0000000000
     31357      1009  ECLIPA    H18S           28.2729417345      -25.8194989157        4.7749867078  LPSA29    1               0.0000000000
     31358      1009  ECLIPA    C19            27.9054963506      -24.6091126758        3.0097966450  LPSA29    1               0.0000000000
     31359      1009  ECLIPA    H19R           28.9099359709      -24.2189866753        2.9245509529  LPSA29    1               0.0000000000
     31360      1009  ECLIPA    H19S           27.1562749031      -23.8417128314        2.6238151240  LPSA29    1               0.0000000000
     31361      1009  ECLIPA    C110           27.8691190563      -25.8648325099        2.1045801788  LPSA29    1               0.0000000000
     31362      1009  ECLIPA    H110R          28.4737495112      -26.7083995005        2.4416701971  LPSA29    1               0.0000000000
     31363      1009  ECLIPA    H110S          26.7835893187      -26.1011302819        2.1583327743  LPSA29    1               0.0000000000
     31364      1009  ECLIPA    C111           28.2310139107      -25.4668862875        0.7563571155  LPSA29    1               0.0000000000
     31365      1009  ECLIPA    H111R          27.7696597398      -24.5037578744        0.3999767799  LPSA29    1               0.0000000000
     31366      1009  ECLIPA    H111S          29.2667101784      -25.2498515429        0.7977177860  LPSA29    1               0.0000000000
     31367      1009  ECLIPA    C112           28.0309100384      -26.5708520916       -0.2937360943  LPSA29    1               0.0000000000
     31368      1009  ECLIPA    H112R          28.6366854194      -27.3767089737        0.1973446929  LPSA29    1               0.0000000000
     31369      1009  ECLIPA    H112S          27.0338432289      -27.0119366305       -0.2177998937  LPSA29    1               0.0000000000
     31370      1009  ECLIPA    C113           28.2033656851      -26.0994951623       -1.7468031795  LPSA29    1               0.0000000000
     31371      1009  ECLIPA    H113R          27.3753963264      -25.3908547431       -1.9802017524  LPSA29    1               0.0000000000
     31372      1009  ECLIPA    H113S          29.1035525285      -25.4858044285       -1.8531093719  LPSA29    1               0.0000000000
     31373      1009  ECLIPA    C114           28.3840204638      -27.1280623751       -2.8344928043  LPSA29    1               0.0000000000
     31374      1009  ECLIPA    H114R          29.1301998829      -27.9162195289       -2.7829422503  LPSA29    1               0.0000000000
     31375      1009  ECLIPA    H114S          27.4137320126      -27.6761579326       -2.9951089580  LPSA29    1               0.0000000000
     31376      1009  ECLIPA    H114T          28.7816079545      -26.6294605189       -3.7399523103  LPSA29    1               0.0000000000
     31377      1010  AKDO      C1             23.3232895965      -30.4700050016       22.4410509549  LPSA29    2               0.0000000000
     31378      1010  AKDO      O11            23.1223815892      -31.7318973891       22.4913720772  LPSA29    2               0.0000000000
     31379      1010  AKDO      O12            22.5545241193      -29.5350662642       22.0800765534  LPSA29    2               0.0000000000
     31380      1010  AKDO      C2             24.7167631618      -30.0202750014       22.8913181237  LPSA29    2               0.0000000000
     31381      1010  AKDO      C6             26.7379113902      -30.8480353995       23.8039205188  LPSA29    2               0.0000000000
     31382      1010  AKDO      H6             27.2711925937      -30.5241820222       22.9487387861  LPSA29    2               0.0000000000
     31383      1010  AKDO      O6             25.3328793209      -31.1420501787       23.4267274814  LPSA29    2               0.0000000000
     31384      1010  AKDO      C3             24.6837096594      -28.9970418043       23.9587385105  LPSA29    2               0.0000000000
     31385      1010  AKDO      H31            24.0873626429      -29.2377815808       24.7868435866  LPSA29    2               0.0000000000
     31386      1010  AKDO      H32            24.2997930402      -28.0063392582       23.4151264596  LPSA29    2               0.0000000000
     31387      1010  AKDO      C4             26.1062446515      -28.6441554245       24.3842593775  LPSA29    2               0.0000000000
     31388      1010  AKDO      H4             26.7300736915      -28.3556083570       23.5563617270  LPSA29    2               0.0000000000
     31389      1010  AKDO      O4             26.0656229099      -27.5899355876       25.3355834555  LPSA29    2               0.0000000000
     31390      1010  AKDO      C5             26.8403645262      -29.7852094283       24.9292437177  LPSA29    2               0.0000000000
     31391      1010  AKDO      H5             27.9340628668      -29.5488119209       25.0107888161  LPSA29    2               0.0000000000
     31392      1010  AKDO      O5             26.1864392569      -30.1822070420       26.2083878813  LPSA29    2               0.0000000000
     31393      1010  AKDO      C7             27.5497849049      -32.1661824071       24.1981149098  LPSA29    2               0.0000000000
     31394      1010  AKDO      H7             27.0947929407      -32.5840630049       25.0939202098  LPSA29    2               0.0000000000
     31395      1010  AKDO      O7             28.9694959077      -31.9010332378       24.3482682347  LPSA29    2               0.0000000000
     31396      1010  AKDO      HO7            29.3015695047      -31.8290319369       23.4945166536  LPSA29    2               0.0000000000
     31397      1010  AKDO      C8             27.3874437951      -33.1463833875       22.9864433882  LPSA29    2               0.0000000000
     31398      1010  AKDO      H81            26.2861017505      -33.3143346707       22.9153150275  LPSA29    2               0.0000000000
     31399      1010  AKDO      H82            27.8538405507      -32.6179567320       22.0745354517  LPSA29    2               0.0000000000
     31400      1010  AKDO      O8             28.0586323170      -34.4233872494       23.3537996748  LPSA29    2               0.0000000000
     31401      1010  AKDO      HO8            27.5623206475      -35.1639944233       22.9179804014  LPSA29    2               0.0000000000
     31402      1011  AKDO      C1             26.8780259616      -25.9733581264       23.8027969005  LPSA29    3               1.0000000000
     31403      1011  AKDO      O11            26.3606693583      -25.9070958506       22.6471489042  LPSA29    3               1.0000000000
     31404      1011  AKDO      O12            28.0959762612      -25.8311145828       24.0656860145  LPSA29    3               1.0000000000
     31405      1011  AKDO      C2             25.9922902944      -26.2159360953       25.0166033796  LPSA29    3               1.0000000000
     31406      1011  AKDO      C6             23.7093241751      -26.1760858464       25.7688829792  LPSA29    3               1.0000000000
     31407      1011  AKDO      H6             23.7244710684      -27.2945362179       25.9810553331  LPSA29    3               1.0000000000
     31408      1011  AKDO      O6             24.5953454594      -25.8764998742       24.7076657818  LPSA29    3               1.0000000000
     31409      1011  AKDO      C3             26.4028885436      -25.4777784171       26.3187707743  LPSA29    3               1.0000000000
     31410      1011  AKDO      H31            26.3526573842      -24.3240239263       26.1504935106  LPSA29    3               1.0000000000
     31411      1011  AKDO      H32            27.4404271549      -25.7135859876       26.5929217108  LPSA29    3               1.0000000000
     31412      1011  AKDO      C4             25.4307474237      -25.8653569281       27.4036122013  LPSA29    3               1.0000000000
     31413      1011  AKDO      H4             25.3679733741      -26.9578664769       27.4051754129  LPSA29    3               1.0000000000
     31414      1011  AKDO      O4             25.7583752364      -25.4535295440       28.7388570077  LPSA29    3               1.0000000000
     31415      1011  AKDO      HO4            25.8337398064      -26.1572091055       29.3717785514  LPSA29    3               1.0000000000
     31416      1011  AKDO      C5             24.1223332558      -25.4741522616       27.0369167275  LPSA29    3               1.0000000000
     31417      1011  AKDO      H5             23.4152605634      -25.6916008502       27.9236884022  LPSA29    3               1.0000000000
     31418      1011  AKDO      O5             24.0524292779      -24.0481024519       26.8495261943  LPSA29    3               1.0000000000
     31419      1011  AKDO      HO5            24.6583801338      -23.7834471805       26.1887877298  LPSA29    3               1.0000000000
     31420      1011  AKDO      C7             22.3248641633      -25.7741621100       25.3258859863  LPSA29    3               1.0000000000
     31421      1011  AKDO      H7             22.2587513828      -24.6637062610       25.1324849511  LPSA29    3               1.0000000000
     31422      1011  AKDO      O7             21.3817087336      -26.1521093918       26.3661029982  LPSA29    3               1.0000000000
     31423      1011  AKDO      HO7            20.5132023564      -25.7438800115       26.1647669547  LPSA29    3               1.0000000000
     31424      1011  AKDO      C8             21.9862924236      -26.5979603867       24.1539635864  LPSA29    3               1.0000000000
     31425      1011  AKDO      H81            22.7040974808      -26.4222208025       23.3419478721  LPSA29    3               1.0000000000
     31426      1011  AKDO      H82            21.9343297062      -27.6892754798       24.2853144505  LPSA29    3               1.0000000000
     31427      1011  AKDO      O8             20.7223934047      -26.2230496498       23.6541307456  LPSA29    3               1.0000000000
     31428      1011  AKDO      HO8            21.0172730720      -25.3867372198       23.2473452835  LPSA29    3               1.0000000000
     31429      1012  AHEP      C1             26.9865444080      -30.6561573890       27.2793229502  LPSA29    4               2.0000000000
     31430      1012  AHEP      H1             27.0763764037      -31.7079617763       26.8517192453  LPSA29    4               2.0000000000
     31431      1012  AHEP      C5             28.4347703650      -28.8593766233       28.0185271385  LPSA29    4               2.0000000000
     31432      1012  AHEP      H5             27.5968817672      -28.2020490346       27.5619054335  LPSA29    4               2.0000000000
     31433      1012  AHEP      O5             28.3126095251      -30.1345195862       27.3942805697  LPSA29    4               2.0000000000
     31434      1012  AHEP      C2             26.4674977141      -30.8385806117       28.6827861277  LPSA29    4               2.0000000000
     31435      1012  AHEP      H2             25.4329673985      -31.1940549846       28.7442425996  LPSA29    4               2.0000000000
     31436      1012  AHEP      O2             27.2384185491      -31.7778122293       29.3407203943  LPSA29    4               2.0000000000
     31437      1012  AHEP      HO2            26.6828729175      -32.3363822609       29.8507927467  LPSA29    4               2.0000000000
     31438      1012  AHEP      C3             26.5429170879      -29.5242427270       29.4857672188  LPSA29    4               2.0000000000
     31439      1012  AHEP      H3             25.7997706607      -28.7575182024       29.2269906369  LPSA29    4               2.0000000000
     31440      1012  AHEP      O3             26.2406863189      -29.7609995015       30.7882097304  LPSA29    4               2.0000000000
     31441      1012  AHEP      C4             27.9569824500      -29.0037054714       29.4546205599  LPSA29    4               2.0000000000
     31442      1012  AHEP      H4             28.7175614572      -29.6347789697       29.9788637739  LPSA29    4               2.0000000000
     31443      1012  AHEP      O4             27.9821011934      -27.7238806190       30.0145912217  LPSA29    4               2.0000000000
     31444      1012  AHEP      P4             28.6616861338      -27.4073190828       31.4978499249  LPSA29    4               2.0000000000
     31445      1012  AHEP      OP42           27.8971840198      -26.3278519707       32.1560374192  LPSA29    4               2.0000000000
     31446      1012  AHEP      OP43           30.0202232048      -26.9649075384       31.0397938518  LPSA29    4               2.0000000000
     31447      1012  AHEP      OP44           28.7840251157      -28.7345830937       32.3098937101  LPSA29    4               2.0000000000
     31448      1012  AHEP      C6             29.8613005135      -28.2391424625       27.7982482844  LPSA29    4               2.0000000000
     31449      1012  AHEP      H6             29.7652852274      -27.1474277056       28.0833143566  LPSA29    4               2.0000000000
     31450      1012  AHEP      O6             30.7529312318      -28.8856656462       28.7103505027  LPSA29    4               2.0000000000
     31451      1012  AHEP      HO6            31.3023477895      -28.2320796339       29.2203787365  LPSA29    4               2.0000000000
     31452      1012  AHEP      C7             30.3622781864      -28.3111027682       26.3054198206  LPSA29    4               2.0000000000
     31453      1012  AHEP      H71            31.3172488085      -27.7051379871       26.1576126064  LPSA29    4               2.0000000000
     31454      1012  AHEP      H72            29.5243412601      -28.0399017524       25.6323487339  LPSA29    4               2.0000000000
     31455      1012  AHEP      O7             30.7415986457      -29.6440583852       25.9755159574  LPSA29    4               2.0000000000
     31456      1012  AHEP      HO7            31.6347062079      -29.7903404743       26.3256794122  LPSA29    4               2.0000000000
     31457      1013  AHEP      C1             25.1240994026      -29.1081997861       31.4342177374  LPSA29    5               3.0000000000
     31458      1013  AHEP      H1             24.9187204587      -28.1037189910       30.9794447437  LPSA29    5               3.0000000000
     31459      1013  AHEP      C5             24.0214540629      -31.1643434012       31.9165413065  LPSA29    5               3.0000000000
     31460      1013  AHEP      H5             25.0105261257      -31.6431261130       31.6031509785  LPSA29    5               3.0000000000
     31461      1013  AHEP      O5             23.9224307799      -29.8893497622       31.3013865768  LPSA29    5               3.0000000000
     31462      1013  AHEP      C2             25.3129343899      -28.8813362844       32.9718957084  LPSA29    5               3.0000000000
     31463      1013  AHEP      H2             26.2967645092      -28.3232604684       33.0921707216  LPSA29    5               3.0000000000
     31464      1013  AHEP      O2             24.2660921865      -28.0688646230       33.4691025827  LPSA29    5               3.0000000000
     31465      1013  AHEP      HO2            24.5864027970      -27.1889329832       33.6403503244  LPSA29    5               3.0000000000
     31466      1013  AHEP      C3             25.4626043000      -30.2329788112       33.7004304811  LPSA29    5               3.0000000000
     31467      1013  AHEP      H3             26.3437863415      -30.7735193236       33.3375632548  LPSA29    5               3.0000000000
     31468      1013  AHEP      O3             25.6181683877      -30.1673519282       35.1462238331  LPSA29    5               3.0000000000
     31469      1013  AHEP      C4             24.2058098417      -30.9941544400       33.4524658705  LPSA29    5               3.0000000000
     31470      1013  AHEP      H4             23.3009353980      -30.4507519340       33.8188816395  LPSA29    5               3.0000000000
     31471      1013  AHEP      O4             24.3384903842      -32.3041845305       34.0881196202  LPSA29    5               3.0000000000
     31472      1013  AHEP      P4             23.3704372520      -32.7307458060       35.2810123301  LPSA29    5               3.0000000000
     31473      1013  AHEP      OP42           23.9315356387      -34.0253246202       35.8202965042  LPSA29    5               3.0000000000
     31474      1013  AHEP      OP43           21.9855211289      -32.9314722963       34.6107506294  LPSA29    5               3.0000000000
     31475      1013  AHEP      OP44           23.3282345903      -31.5719704746       36.2417033353  LPSA29    5               3.0000000000
     31476      1013  AHEP      C6             22.8680212706      -32.1106310990       31.5493607386  LPSA29    5               3.0000000000
     31477      1013  AHEP      H6             23.0246605844      -33.1247966040       31.9533288164  LPSA29    5               3.0000000000
     31478      1013  AHEP      O6             21.6353785642      -31.5972575051       32.0428602265  LPSA29    5               3.0000000000
     31479      1013  AHEP      HO6            21.2416437384      -30.8379570405       31.5367188277  LPSA29    5               3.0000000000
     31480      1013  AHEP      C7             22.8793651645      -32.3793936669       30.0822725317  LPSA29    5               3.0000000000
     31481      1013  AHEP      H71            22.5166656881      -33.4176084043       29.9169108581  LPSA29    5               3.0000000000
     31482      1013  AHEP      H72            23.8810151980      -32.3103098717       29.6179339851  LPSA29    5               3.0000000000
     31483      1013  AHEP      O7             21.8824313062      -31.5161929254       29.4957736452  LPSA29    5               3.0000000000
     31484      1014  AHEP      C1             22.4131447703      -30.4333912555       28.7926622005  LPSA29    6               4.0000000000
     31485      1014  AHEP      H1             23.5229532281      -30.3020521382       29.0422981953  LPSA29    6               4.0000000000
     31486      1014  AHEP      C5             20.9689846313      -30.7777871831       26.9237617191  LPSA29    6               4.0000000000
     31487      1014  AHEP      H5             20.5088561032      -31.6050609663       27.4818042043  LPSA29    6               4.0000000000
     31488      1014  AHEP      O5             22.3269927602      -30.5958954394       27.3547530115  LPSA29    6               4.0000000000
     31489      1014  AHEP      C2             21.7168604914      -29.1779968648       29.2397872647  LPSA29    6               4.0000000000
     31490      1014  AHEP      H2             21.9001038965      -29.0766030593       30.3523091474  LPSA29    6               4.0000000000
     31491      1014  AHEP      O2             22.3174874043      -28.0169385036       28.7267108980  LPSA29    6               4.0000000000
     31492      1014  AHEP      HO2            22.7421696208      -27.6295000104       29.4669064354  LPSA29    6               4.0000000000
     31493      1014  AHEP      C3             20.2230924101      -29.2990201542       28.8468391403  LPSA29    6               4.0000000000
     31494      1014  AHEP      H3             19.8079817406      -30.1295786252       29.4311808254  LPSA29    6               4.0000000000
     31495      1014  AHEP      O3             19.3994579654      -28.0899182386       29.2225362108  LPSA29    6               4.0000000000
     31496      1014  AHEP      HO3            18.8925602461      -28.1499554282       29.9865592523  LPSA29    6               4.0000000000
     31497      1014  AHEP      C4             20.1859713472      -29.5112217023       27.2761740859  LPSA29    6               4.0000000000
     31498      1014  AHEP      H4             20.4901504764      -28.5926329076       26.7944950683  LPSA29    6               4.0000000000
     31499      1014  AHEP      O4             18.8427958122      -29.6667409411       26.7938835778  LPSA29    6               4.0000000000
     31500      1014  AHEP      HO4            18.5894055650      -30.5995024659       27.1589530594  LPSA29    6               4.0000000000
     31501      1014  AHEP      C6             20.8532613641      -31.2042215749       25.4906533340  LPSA29    6               4.0000000000
     31502      1014  AHEP      H6             19.7968297012      -31.4007876768       25.3442628137  LPSA29    6               4.0000000000
     31503      1014  AHEP      O6             21.1208246493      -30.0895605865       24.6375675438  LPSA29    6               4.0000000000
     31504      1014  AHEP      HO6            21.8078241758      -30.2981169344       23.9977784313  LPSA29    6               4.0000000000
     31505      1014  AHEP      C7             21.5843230364      -32.4777258853       25.1799756221  LPSA29    6               4.0000000000
     31506      1014  AHEP      H71            21.2896348729      -32.7871996787       24.1408078076  LPSA29    6               4.0000000000
     31507      1014  AHEP      H72            21.2374668667      -33.2156460504       25.9252229174  LPSA29    6               4.0000000000
     31508      1014  AHEP      O7             22.9753007035      -32.3696400820       25.2517430265  LPSA29    6               4.0000000000
     31509      1014  AHEP      HO7            23.1766382927      -32.4987499594       26.2011285002  LPSA29    6               4.0000000000
     31510      1015  AGLC      C1             26.9374984153      -30.0237545387       35.6520976122  LPSA29    7               4.0000000000
     31511      1015  AGLC      H1             27.5966245911      -30.8452162903       35.2047739589  LPSA29    7               4.0000000000
     31512      1015  AGLC      C5             26.8395764932      -27.7096336306       36.0987679218  LPSA29    7               4.0000000000
     31513      1015  AGLC      H5             25.7734250956      -27.6715520726       35.8327124756  LPSA29    7               4.0000000000
     31514      1015  AGLC      O5             27.4765201339      -28.7514698493       35.4366254460  LPSA29    7               4.0000000000
     31515      1015  AGLC      C2             26.9807745669      -30.2331071661       37.1582745954  LPSA29    7               4.0000000000
     31516      1015  AGLC      H2             28.0622359726      -30.0298093050       37.4887389927  LPSA29    7               4.0000000000
     31517      1015  AGLC      O2             26.8282330442      -31.6239177370       37.5024056006  LPSA29    7               4.0000000000
     31518      1015  AGLC      HO2            25.8920137133      -31.7458117177       37.6430208865  LPSA29    7               4.0000000000
     31519      1015  AGLC      C3             26.3194401387      -29.2479431192       37.9903802326  LPSA29    7               4.0000000000
     31520      1015  AGLC      H3             25.2769858246      -29.2936923317       37.6727250444  LPSA29    7               4.0000000000
     31521      1015  AGLC      O3             26.2501858286      -29.5166517684       39.4204481292  LPSA29    7               4.0000000000
     31522      1015  AGLC      C4             26.9736891644      -27.9569707989       37.5928595998  LPSA29    7               4.0000000000
     31523      1015  AGLC      H4             28.0664992457      -27.9345697690       37.9560286200  LPSA29    7               4.0000000000
     31524      1015  AGLC      O4             26.1804374371      -26.9289662932       38.2243117391  LPSA29    7               4.0000000000
     31525      1015  AGLC      HO4            26.6866895014      -26.2483124348       38.6132003238  LPSA29    7               4.0000000000
     31526      1015  AGLC      C6             27.3186656944      -26.3528192619       35.5245160098  LPSA29    7               4.0000000000
     31527      1015  AGLC      H61            27.1933032641      -26.4179699069       34.4135318240  LPSA29    7               4.0000000000
     31528      1015  AGLC      H62            26.8070703800      -25.4299405295       35.8722646349  LPSA29    7               4.0000000000
     31529      1015  AGLC      O6             28.7681278251      -26.2914825103       35.6892983147  LPSA29    7               4.0000000000
     31530      1015  AGLC      HO6            28.8072198484      -25.7597577483       36.4386090630  LPSA29    7               4.0000000000
     31531      1016  AGLC      C1             24.9862952349      -29.7488869259       39.9328324507  LPSA29    8               5.0000000000
     31532      1016  AGLC      H1             24.2888782520      -28.9654298743       39.5884769495  LPSA29    8               5.0000000000
     31533      1016  AGLC      C5             25.1071757663      -32.2125341362       40.2153373402  LPSA29    8               5.0000000000
     31534      1016  AGLC      H5             26.1371176925      -32.1778733545       39.8400606936  LPSA29    8               5.0000000000
     31535      1016  AGLC      O5             24.4307201883      -31.0717770292       39.6195505863  LPSA29    8               5.0000000000
     31536      1016  AGLC      C2             24.9867404622      -29.6413617747       41.4170311384  LPSA29    8               5.0000000000
     31537      1016  AGLC      H2             23.8990903998      -29.6755342424       41.6529594578  LPSA29    8               5.0000000000
     31538      1016  AGLC      O2             25.3476679634      -28.3697152975       41.9438754185  LPSA29    8               5.0000000000
     31539      1016  AGLC      C3             25.6986632922      -30.7339140078       42.1297388169  LPSA29    8               5.0000000000
     31540      1016  AGLC      H3             26.7201239343      -30.6039873519       41.6567950186  LPSA29    8               5.0000000000
     31541      1016  AGLC      O3             25.7302496240      -30.4682771727       43.5370978028  LPSA29    8               5.0000000000
     31542      1016  AGLC      C4             25.0530300840      -31.9856214825       41.7603093222  LPSA29    8               5.0000000000
     31543      1016  AGLC      H4             24.0158529311      -31.9783817533       42.0401368658  LPSA29    8               5.0000000000
     31544      1016  AGLC      O4             25.6753498087      -33.0798702015       42.3914819843  LPSA29    8               5.0000000000
     31545      1016  AGLC      HO4            26.5901681651      -32.9378588631       42.3800652601  LPSA29    8               5.0000000000
     31546      1016  AGLC      C6             24.6470905081      -33.6094593804       39.7357334439  LPSA29    8               5.0000000000
     31547      1016  AGLC      H61            24.5163596274      -33.6900539645       38.6468043611  LPSA29    8               5.0000000000
     31548      1016  AGLC      H62            25.2868984723      -34.4213366044       40.0276014644  LPSA29    8               5.0000000000
     31549      1016  AGLC      O6             23.4455793193      -34.0402199191       40.3040784562  LPSA29    8               5.0000000000
     31550      1016  AGLC      HO6            23.5638653497      -34.3816951254       41.2121845210  LPSA29    8               5.0000000000
     31551      1017  AGAL      C1             24.7223932552      -27.2207926353       41.4573847493  LPSA29    9               6.0000000000
     31552      1017  AGAL      H1             24.6823924423      -27.2474700580       40.3420235153  LPSA29    9               6.0000000000
     31553      1017  AGAL      C5             23.2599011516      -26.7544361422       43.2125447641  LPSA29    9               6.0000000000
     31554      1017  AGAL      H5             23.8914751481      -27.5700045890       43.7424973645  LPSA29    9               6.0000000000
     31555      1017  AGAL      O5             23.3352283708      -26.9754706006       41.8451689838  LPSA29    9               6.0000000000
     31556      1017  AGAL      C2             25.5629290290      -26.0313355223       41.8393925249  LPSA29    9               6.0000000000
     31557      1017  AGAL      H2             25.1287762502      -25.1390419549       41.4115621152  LPSA29    9               6.0000000000
     31558      1017  AGAL      O2             26.8330633623      -26.0262611162       41.1608705954  LPSA29    9               6.0000000000
     31559      1017  AGAL      C3             25.5061261998      -25.7573383722       43.3264191845  LPSA29    9               6.0000000000
     31560      1017  AGAL      H3             25.9907343470      -26.6332083345       43.9424563891  LPSA29    9               6.0000000000
     31561      1017  AGAL      O3             26.3438611260      -24.7239225344       43.7491515633  LPSA29    9               6.0000000000
     31562      1017  AGAL      HO3            27.1110420727      -24.7482357453       43.1585960960  LPSA29    9               6.0000000000
     31563      1017  AGAL      C4             24.0835227215      -25.5342387714       43.6505755014  LPSA29    9               6.0000000000
     31564      1017  AGAL      H4             23.8964829847      -25.4227711127       44.7734818408  LPSA29    9               6.0000000000
     31565      1017  AGAL      O4             23.5086693390      -24.4150196165       43.0499075873  LPSA29    9               6.0000000000
     31566      1017  AGAL      HO4            22.8282692564      -24.0947934687       43.6622427513  LPSA29    9               6.0000000000
     31567      1017  AGAL      C6             21.8783621420      -26.9616864026       43.8349081587  LPSA29    9               6.0000000000
     31568      1017  AGAL      H61            21.4478381915      -27.9779866326       43.6417203355  LPSA29    9               6.0000000000
     31569      1017  AGAL      H62            21.8525411344      -26.8901707059       44.9292747136  LPSA29    9               6.0000000000
     31570      1017  AGAL      O6             20.9742152357      -25.9885985051       43.4062227539  LPSA29    9               6.0000000000
     31571      1017  AGAL      HO6            20.4446772309      -26.3893375931       42.6923548993  LPSA29    9               6.0000000000
     31572      1018  AGAL      C1             28.1392044707      -25.8297826847       41.7517281777  LPSA29    10              7.0000000000
     31573      1018  AGAL      H1             28.2077559544      -24.7374014148       41.8429972083  LPSA29    10              7.0000000000
     31574      1018  AGAL      C5             28.5055236083      -27.8150119643       43.0613392294  LPSA29    10              7.0000000000
     31575      1018  AGAL      H5             27.4706811373      -28.1698735007       42.6233508762  LPSA29    10              7.0000000000
     31576      1018  AGAL      O5             28.5140533587      -26.3746250611       43.0470213554  LPSA29    10              7.0000000000
     31577      1018  AGAL      C2             29.1593743369      -26.3506403724       40.7227968417  LPSA29    10              7.0000000000
     31578      1018  AGAL      H2             30.1703908650      -25.8848484299       41.0433947026  LPSA29    10              7.0000000000
     31579      1018  AGAL      O2             29.1490773271      -25.6543316959       39.5532095562  LPSA29    10              7.0000000000
     31580      1018  AGAL      HO2            30.0158381676      -25.3320460336       39.3379401176  LPSA29    10              7.0000000000
     31581      1018  AGAL      C3             29.2123609960      -27.8363423567       40.6928251787  LPSA29    10              7.0000000000
     31582      1018  AGAL      H3             28.1857209427      -28.1180808211       40.4679648945  LPSA29    10              7.0000000000
     31583      1018  AGAL      O3             30.1083423428      -28.3846061053       39.7732034444  LPSA29    10              7.0000000000
     31584      1018  AGAL      HO3            29.5813638790      -28.7393142007       39.0151094934  LPSA29    10              7.0000000000
     31585      1018  AGAL      C4             29.5592101139      -28.3390925443       42.0524071915  LPSA29    10              7.0000000000
     31586      1018  AGAL      H4             29.5060551390      -29.4434519690       42.1099272557  LPSA29    10              7.0000000000
     31587      1018  AGAL      O4             30.8315742300      -27.9674536044       42.4965010455  LPSA29    10              7.0000000000
     31588      1018  AGAL      HO4            30.7799003866      -27.0312327659       42.5675127347  LPSA29    10              7.0000000000
     31589      1018  AGAL      C6             28.6015139780      -28.4822243165       44.3959537205  LPSA29    10              7.0000000000
     31590      1018  AGAL      H61            27.8769733820      -28.0925044905       45.1044438806  LPSA29    10              7.0000000000
     31591      1018  AGAL      H62            28.2752257980      -29.6232850764       44.2564473849  LPSA29    10              7.0000000000
     31592      1018  AGAL      O6             29.8548531396      -28.5082434797       45.1112340130  LPSA29    10              7.0000000000
     31593      1018  AGAL      HO6            29.7452685425      -27.9815329671       45.9237589285  LPSA29    10              7.0000000000
     31594      1019  BGLC      C1             24.8154290326      -30.9560052313       44.5018065681  LPSA29    11              6.0000000000
     31595      1019  BGLC      H1             25.1068884871      -31.9922767299       44.5883763758  LPSA29    11              6.0000000000
     31596      1019  BGLC      C5             22.4010875835      -31.2032489598       45.1248117688  LPSA29    11              6.0000000000
     31597      1019  BGLC      H5             22.4978501016      -32.3146494073       45.3871201921  LPSA29    11              6.0000000000
     31598      1019  BGLC      O5             23.4105331642      -30.7306078071       44.0830650888  LPSA29    11              6.0000000000
     31599      1019  BGLC      C2             25.0249050397      -30.2148880695       45.7977571702  LPSA29    11              6.0000000000
     31600      1019  BGLC      H2             24.9334366230      -29.1015063968       45.7293388291  LPSA29    11              6.0000000000
     31601      1019  BGLC      O2             26.4035883454      -30.3923467281       46.0886391483  LPSA29    11              6.0000000000
     31602      1019  BGLC      HO2            26.7832364733      -29.5561334988       46.2788110113  LPSA29    11              6.0000000000
     31603      1019  BGLC      C3             24.0977080030      -30.6026239882       46.8736276645  LPSA29    11              6.0000000000
     31604      1019  BGLC      H3             24.3488458999      -31.6987936847       47.1984917368  LPSA29    11              6.0000000000
     31605      1019  BGLC      O3             24.3862310381      -29.7901432456       48.0056213318  LPSA29    11              6.0000000000
     31606      1019  BGLC      C4             22.7270702819      -30.4305327795       46.4390836423  LPSA29    11              6.0000000000
     31607      1019  BGLC      H4             22.6120066983      -29.3196284850       46.2001611147  LPSA29    11              6.0000000000
     31608      1019  BGLC      O4             21.8002794440      -30.7049923768       47.4766894645  LPSA29    11              6.0000000000
     31609      1019  BGLC      HO4            21.8573559355      -29.9928902513       48.1247908570  LPSA29    11              6.0000000000
     31610      1019  BGLC      C6             20.9854850597      -31.1130970814       44.5291127165  LPSA29    11              6.0000000000
     31611      1019  BGLC      H61            20.1775633266      -31.1074304525       45.2481190913  LPSA29    11              6.0000000000
     31612      1019  BGLC      H62            20.9630706195      -30.1943618103       43.8913252379  LPSA29    11              6.0000000000
     31613      1019  BGLC      O6             20.6652212119      -32.1516382573       43.5637942269  LPSA29    11              6.0000000000
     31614      1019  BGLC      HO6            20.0177789467      -32.6488573362       44.0054369298  LPSA29    11              6.0000000000
     31615      1020  BGLCNA    C1             24.6196900602      -30.3367757297       49.3238540420  LPSA29    12              7.0000000000
     31616      1020  BGLCNA    H1             25.7288731685      -30.6011582205       49.3874222992  LPSA29    12              7.0000000000
     31617      1020  BGLCNA    C5             24.1632730130      -32.1054038388       50.8763077070  LPSA29    12              7.0000000000
     31618      1020  BGLCNA    H5             25.3068403391      -32.3817412088       50.9814236466  LPSA29    12              7.0000000000
     31619      1020  BGLCNA    O5             23.8386420900      -31.5237998005       49.5875345322  LPSA29    12              7.0000000000
     31620      1020  BGLCNA    C2             24.2559984624      -29.2907545275       50.3245054808  LPSA29    12              7.0000000000
     31621      1020  BGLCNA    H2             23.0853291763      -29.2390029753       50.3375086743  LPSA29    12              7.0000000000
     31622      1020  BGLCNA    N              24.9663475448      -28.0299103885       50.0347611965  LPSA29    12              7.0000000000
     31623      1020  BGLCNA    HN             25.8919322056      -28.2154284773       49.9972643287  LPSA29    12              7.0000000000
     31624      1020  BGLCNA    C              24.3185174584      -26.9139927992       49.8903426450  LPSA29    12              7.0000000000
     31625      1020  BGLCNA    O              23.1117332392      -26.8804181908       50.0855928044  LPSA29    12              7.0000000000
     31626      1020  BGLCNA    CT             25.1309689437      -25.6969289669       49.5677689528  LPSA29    12              7.0000000000
     31627      1020  BGLCNA    HT1            25.1264308672      -24.9609354413       50.3918503408  LPSA29    12              7.0000000000
     31628      1020  BGLCNA    HT2            24.6035070015      -25.0817565858       48.7104760971  LPSA29    12              7.0000000000
     31629      1020  BGLCNA    HT3            26.1327571848      -26.0625237665       49.2316245990  LPSA29    12              7.0000000000
     31630      1020  BGLCNA    C3             24.5600500223      -29.7497052420       51.6995695120  LPSA29    12              7.0000000000
     31631      1020  BGLCNA    H3             25.7255354561      -29.8982890497       51.8605307917  LPSA29    12              7.0000000000
     31632      1020  BGLCNA    O3             24.2772247681      -28.7609565155       52.7272334264  LPSA29    12              7.0000000000
     31633      1020  BGLCNA    C4             23.8046245624      -31.0140287911       51.9591692987  LPSA29    12              7.0000000000
     31634      1020  BGLCNA    H4             22.6560188359      -30.9039348423       51.9037868612  LPSA29    12              7.0000000000
     31635      1020  BGLCNA    O4             24.0531048882      -31.5174187242       53.2294962294  LPSA29    12              7.0000000000
     31636      1020  BGLCNA    HO4            24.9529021606      -31.9541817219       53.2834945119  LPSA29    12              7.0000000000
     31637      1020  BGLCNA    C6             23.4223765739      -33.4557962060       50.9528560558  LPSA29    12              7.0000000000
     31638      1020  BGLCNA    H61            23.5492916264      -33.8968118203       51.9144325068  LPSA29    12              7.0000000000
     31639      1020  BGLCNA    H62            22.3831898054      -33.1717707722       50.8287962869  LPSA29    12              7.0000000000
     31640      1020  BGLCNA    O6             23.7680490845      -34.2685587926       49.8597561973  LPSA29    12              7.0000000000
     31641      1020  BGLCNA    HO6            24.5128035835      -34.7520683547       50.1903398796  LPSA29    12              7.0000000000
     31642      1021  AGAL      C1             25.2538373585      -28.6587882933       53.8132743488  LPSA29    13              8.0000000000
     31643      1021  AGAL      H1             25.4817663486      -29.6785957950       54.1959401301  LPSA29    13              8.0000000000
     31644      1021  AGAL      C5             26.0149834560      -26.4313997578       53.2950732168  LPSA29    13              8.0000000000
     31645      1021  AGAL      H5             25.2094410547      -26.4457068332       52.5641412600  LPSA29    13              8.0000000000
     31646      1021  AGAL      O5             26.4053012223      -27.7996797408       53.4918445955  LPSA29    13              8.0000000000
     31647      1021  AGAL      C2             24.6932661086      -27.9944044132       55.1010141246  LPSA29    13              8.0000000000
     31648      1021  AGAL      H2             25.5386126478      -27.8018076269       55.7917211299  LPSA29    13              8.0000000000
     31649      1021  AGAL      O2             23.7581493644      -28.8143990249       55.7701983428  LPSA29    13              8.0000000000
     31650      1021  AGAL      C3             24.2855268444      -26.5150939458       54.8979691660  LPSA29    13              8.0000000000
     31651      1021  AGAL      H3             23.6130307712      -26.4613021497       54.0477453328  LPSA29    13              8.0000000000
     31652      1021  AGAL      O3             23.5077392764      -25.9993333976       55.9888739531  LPSA29    13              8.0000000000
     31653      1021  AGAL      HO3            22.8020865608      -25.4376478807       55.6848713412  LPSA29    13              8.0000000000
     31654      1021  AGAL      C4             25.4209941493      -25.7353242189       54.5514025965  LPSA29    13              8.0000000000
     31655      1021  AGAL      H4             25.1092915477      -24.6805673105       54.1954731349  LPSA29    13              8.0000000000
     31656      1021  AGAL      O4             26.3887867985      -25.6472253869       55.5743212917  LPSA29    13              8.0000000000
     31657      1021  AGAL      HO4            26.6011626311      -26.4638973844       56.0499681296  LPSA29    13              8.0000000000
     31658      1021  AGAL      C6             27.0045120811      -25.5744394349       52.5301443486  LPSA29    13              8.0000000000
     31659      1021  AGAL      H61            27.3299547458      -26.1064659417       51.6253596531  LPSA29    13              8.0000000000
     31660      1021  AGAL      H62            26.5409770449      -24.5694919781       52.3684678279  LPSA29    13              8.0000000000
     31661      1021  AGAL      O6             28.1625007707      -25.3203285192       53.2985910507  LPSA29    13              8.0000000000
     31662      1021  AGAL      HO6            27.9636042075      -24.6113964783       53.9299633642  LPSA29    13              8.0000000000
     31663      1022  ARHM      C1             24.0743637144      -29.3778159789       57.0117786358  LPSA29    14              9.0000000000
     31664      1022  ARHM      H1             25.1790980800      -29.4826001112       56.9981767125  LPSA29    14              9.0000000000
     31665      1022  ARHM      C5             22.1297910072      -30.6446902186       57.1930138837  LPSA29    14              9.0000000000
     31666      1022  ARHM      H5             21.7922358020      -30.1683351144       56.1976867078  LPSA29    14              9.0000000000
     31667      1022  ARHM      O5             23.5081738856      -30.6688198200       57.1718909996  LPSA29    14              9.0000000000
     31668      1022  ARHM      C2             23.5908433332      -28.4419382505       58.1413490634  LPSA29    14              9.0000000000
     31669      1022  ARHM      H2             24.0214458385      -27.4815509671       57.8875987320  LPSA29    14              9.0000000000
     31670      1022  ARHM      O2             23.9382433595      -28.8384582875       59.4330148990  LPSA29    14              9.0000000000
     31671      1022  ARHM      C3             22.0914848968      -28.3716583801       58.1095432995  LPSA29    14              9.0000000000
     31672      1022  ARHM      H3             21.7797312915      -28.1618489790       57.0440121713  LPSA29    14              9.0000000000
     31673      1022  ARHM      O3             21.5360414898      -27.3336276045       58.8567888868  LPSA29    14              9.0000000000
     31674      1022  ARHM      HO3            21.6296010335      -27.6233876988       59.8104957846  LPSA29    14              9.0000000000
     31675      1022  ARHM      C4             21.5925760715      -29.7504848110       58.3490442956  LPSA29    14              9.0000000000
     31676      1022  ARHM      H4             21.9266759901      -30.2468413071       59.2902338481  LPSA29    14              9.0000000000
     31677      1022  ARHM      O4             20.1418221584      -29.7204837341       58.4446785014  LPSA29    14              9.0000000000
     31678      1022  ARHM      HO4            19.7626215644      -29.9286065392       59.2969967688  LPSA29    14              9.0000000000
     31679      1022  ARHM      C6             21.5825841330      -32.0810262957       57.2492155848  LPSA29    14              9.0000000000
     31680      1022  ARHM      H61            22.0967353675      -32.8174370463       56.5358243550  LPSA29    14              9.0000000000
     31681      1022  ARHM      H62            21.6346787866      -32.3758479864       58.3170764683  LPSA29    14              9.0000000000
     31682      1022  ARHM      H63            20.5528199701      -32.2787359387       56.9421594120  LPSA29    14              9.0000000000
     31683      1023  ARHM      C1             25.2097367558      -29.1454419017       59.7267990175  LPSA29    15             10.0000000000
     31684      1023  ARHM      H1             25.9183690966      -28.6263707823       59.0458905905  LPSA29    15             10.0000000000
     31685      1023  ARHM      C5             24.8218897308      -31.4193019655       60.6468530148  LPSA29    15             10.0000000000
     31686      1023  ARHM      H5             23.7053405202      -31.4640241228       60.4457705401  LPSA29    15             10.0000000000
     31687      1023  ARHM      O5             25.4937060884      -30.5658707081       59.6688136410  LPSA29    15             10.0000000000
     31688      1023  ARHM      C2             25.5356987226      -28.6691892699       61.1407671534  LPSA29    15             10.0000000000
     31689      1023  ARHM      H2             25.1992691262      -27.5657700797       61.2133420761  LPSA29    15             10.0000000000
     31690      1023  ARHM      O2             26.9744950535      -28.8220799453       61.3234079317  LPSA29    15             10.0000000000
     31691      1023  ARHM      C3             24.7437501498      -29.4797640528       62.1677656617  LPSA29    15             10.0000000000
     31692      1023  ARHM      H3             23.6628485043      -29.4055530802       61.8628392879  LPSA29    15             10.0000000000
     31693      1023  ARHM      O3             24.8469589382      -28.7324920806       63.4092175029  LPSA29    15             10.0000000000
     31694      1023  ARHM      C4             25.1315802272      -30.8741818920       62.0487117432  LPSA29    15             10.0000000000
     31695      1023  ARHM      H4             26.2884266027      -30.9383124405       62.1496903561  LPSA29    15             10.0000000000
     31696      1023  ARHM      O4             24.5548542147      -31.8099653558       62.9635513464  LPSA29    15             10.0000000000
     31697      1023  ARHM      HO4            25.0870545199      -32.5912600463       62.9565205260  LPSA29    15             10.0000000000
     31698      1023  ARHM      C6             25.2651188073      -32.8502537424       60.4460959132  LPSA29    15             10.0000000000
     31699      1023  ARHM      H61            24.7373863937      -33.5978831251       61.0956562646  LPSA29    15             10.0000000000
     31700      1023  ARHM      H62            25.2839688090      -33.0807899306       59.3910198679  LPSA29    15             10.0000000000
     31701      1023  ARHM      H63            26.2966444650      -33.0371118358       60.8578185328  LPSA29    15             10.0000000000
     31702      1024  BMANNA    C1             27.5877760796      -28.3549491109       62.5145562334  LPSA29    16             11.0000000000
     31703      1024  BMANNA    H1             27.2769650223      -29.0942338227       63.3432051365  LPSA29    16             11.0000000000
     31704      1024  BMANNA    C5             27.8209143339      -26.7166325607       64.1851548173  LPSA29    16             11.0000000000
     31705      1024  BMANNA    H5             27.5755583063      -27.4330427411       64.9800677769  LPSA29    16             11.0000000000
     31706      1024  BMANNA    O5             27.1983447367      -27.0467430713       62.9158851071  LPSA29    16             11.0000000000
     31707      1024  BMANNA    C2             29.1144764021      -28.4271225726       62.2781089586  LPSA29    16             11.0000000000
     31708      1024  BMANNA    H2             29.3003449714      -29.4953757247       61.9912908466  LPSA29    16             11.0000000000
     31709      1024  BMANNA    N              29.6968710182      -27.5886491565       61.2264456342  LPSA29    16             11.0000000000
     31710      1024  BMANNA    HN             29.9490772372      -26.7135555549       61.5688724990  LPSA29    16             11.0000000000
     31711      1024  BMANNA    C              29.8258684588      -27.9376047650       59.9704010620  LPSA29    16             11.0000000000
     31712      1024  BMANNA    O              29.5204149452      -29.0901330272       59.5582221915  LPSA29    16             11.0000000000
     31713      1024  BMANNA    CT             30.3682835512      -26.8802217699       59.1331689300  LPSA29    16             11.0000000000
     31714      1024  BMANNA    HT1            31.3983473799      -26.9961713465       58.8344492748  LPSA29    16             11.0000000000
     31715      1024  BMANNA    HT2            30.2765444551      -25.8599498537       59.5043001239  LPSA29    16             11.0000000000
     31716      1024  BMANNA    HT3            29.8452513304      -26.8517333967       58.1231520073  LPSA29    16             11.0000000000
     31717      1024  BMANNA    C3             29.7488772106      -28.1220234126       63.6119771117  LPSA29    16             11.0000000000
     31718      1024  BMANNA    H3             29.3977345157      -28.8555428535       64.3839812837  LPSA29    16             11.0000000000
     31719      1024  BMANNA    O3             31.1415205699      -28.2506128638       63.6122488842  LPSA29    16             11.0000000000
     31720      1024  BMANNA    HO3            31.4247521101      -28.8442551293       64.2950500102  LPSA29    16             11.0000000000
     31721      1024  BMANNA    C4             29.3597364187      -26.7223304891       64.1045846713  LPSA29    16             11.0000000000
     31722      1024  BMANNA    H4             29.7002693409      -25.9287461859       63.4124605202  LPSA29    16             11.0000000000
     31723      1024  BMANNA    O4             29.8785032455      -26.3084141209       65.3816866120  LPSA29    16             11.0000000000
     31724      1024  BMANNA    HO4            29.9079782161      -25.3542080245       65.4353184152  LPSA29    16             11.0000000000
     31725      1024  BMANNA    C6             27.3352495861      -25.3724895087       64.7427751243  LPSA29    16             11.0000000000
     31726      1024  BMANNA    H61            27.3853685947      -25.4457453141       65.8875394407  LPSA29    16             11.0000000000
     31727      1024  BMANNA    H62            27.9925227054      -24.5549690724       64.4389269682  LPSA29    16             11.0000000000
     31728      1024  BMANNA    O6             25.9871555292      -25.0279435387       64.3660927576  LPSA29    16             11.0000000000
     31729      1024  BMANNA    HO6            26.1253445322      -24.1718495056       63.9036969990  LPSA29    16             11.0000000000
     31730      1025  BGLCNA    C1             23.7367049191      -28.7156001340       64.1715778089  LPSA29    17             11.0000000000
     31731      1025  BGLCNA    H1             23.1031581166      -29.6562358402       63.9082176002  LPSA29    17             11.0000000000
     31732      1025  BGLCNA    C5             21.6342865156      -27.5309540218       64.5563394407  LPSA29    17             11.0000000000
     31733      1025  BGLCNA    H5             20.9702004728      -28.4340037899       64.2825289487  LPSA29    17             11.0000000000
     31734      1025  BGLCNA    O5             22.8406673959      -27.6340285703       63.7849982893  LPSA29    17             11.0000000000
     31735      1025  BGLCNA    C2             24.1614519038      -28.6048310610       65.5899343931  LPSA29    17             11.0000000000
     31736      1025  BGLCNA    H2             24.7577173491      -27.6594778901       65.8249043900  LPSA29    17             11.0000000000
     31737      1025  BGLCNA    N              25.1049449193      -29.6060701393       65.8849826081  LPSA29    17             11.0000000000
     31738      1025  BGLCNA    HN             25.0203572686      -30.5048422657       65.4150135415  LPSA29    17             11.0000000000
     31739      1025  BGLCNA    C              26.0532212290      -29.6372355922       66.8043620798  LPSA29    17             11.0000000000
     31740      1025  BGLCNA    O              26.3395344939      -28.6512132353       67.4729873017  LPSA29    17             11.0000000000
     31741      1025  BGLCNA    CT             26.7558389581      -30.9305040479       66.9728872304  LPSA29    17             11.0000000000
     31742      1025  BGLCNA    HT1            27.7688849236      -31.0665473915       66.5529393721  LPSA29    17             11.0000000000
     31743      1025  BGLCNA    HT2            26.0417082535      -31.7328347811       66.7043805047  LPSA29    17             11.0000000000
     31744      1025  BGLCNA    HT3            26.9138404878      -31.1541471068       68.1408097225  LPSA29    17             11.0000000000
     31745      1025  BGLCNA    C3             22.8893448442      -28.6175095407       66.4076579941  LPSA29    17             11.0000000000
     31746      1025  BGLCNA    H3             22.3972986778      -29.5811848567       66.0441361901  LPSA29    17             11.0000000000
     31747      1025  BGLCNA    O3             23.2732482039      -28.7850538304       67.8205355914  LPSA29    17             11.0000000000
     31748      1025  BGLCNA    C4             22.0635886227      -27.3897227754       66.0496966154  LPSA29    17             11.0000000000
     31749      1025  BGLCNA    H4             22.6875469632      -26.4304534922       66.1123142204  LPSA29    17             11.0000000000
     31750      1025  BGLCNA    O4             20.9644098214      -27.2057599873       66.9186044206  LPSA29    17             11.0000000000
     31751      1025  BGLCNA    HO4            20.3936200279      -26.4731115866       66.7204061560  LPSA29    17             11.0000000000
     31752      1025  BGLCNA    C6             20.8468654580      -26.2798544822       64.1200051697  LPSA29    17             11.0000000000
     31753      1025  BGLCNA    H61            19.7944632132      -26.4869160628       64.1272946536  LPSA29    17             11.0000000000
     31754      1025  BGLCNA    H62            21.0353332808      -25.4093741547       64.8212395067  LPSA29    17             11.0000000000
     31755      1025  BGLCNA    O6             21.1846629816      -25.8544085768       62.7926115083  LPSA29    17             11.0000000000
     31756      1025  BGLCNA    HO6            20.9997599571      -26.5622865412       62.1856770532  LPSA29    17             11.0000000000
     31757      1026  AGAL      C1             22.3699643504      -29.5905715067       68.6198653987  LPSA29    18             12.0000000000
     31758      1026  AGAL      H1             21.4465065426      -28.9667815537       68.8082567594  LPSA29    18             12.0000000000
     31759      1026  AGAL      C5             23.1281773590      -31.7401828849       67.8636918791  LPSA29    18             12.0000000000
     31760      1026  AGAL      H5             23.9656876993      -31.2053948650       67.4068928888  LPSA29    18             12.0000000000
     31761      1026  AGAL      O5             22.0041046980      -30.7953842229       67.9834320655  LPSA29    18             12.0000000000
     31762      1026  AGAL      C2             23.0110207634      -30.0009501918       70.0000206359  LPSA29    18             12.0000000000
     31763      1026  AGAL      H2             22.1667788100      -30.6143246778       70.3908489884  LPSA29    18             12.0000000000
     31764      1026  AGAL      O2             23.1141865954      -28.8952190313       70.8342757016  LPSA29    18             12.0000000000
     31765      1026  AGAL      C3             24.1713837344      -30.9248032868       69.8682924558  LPSA29    18             12.0000000000
     31766      1026  AGAL      H3             24.9140124924      -30.4674320606       69.0958348126  LPSA29    18             12.0000000000
     31767      1026  AGAL      O3             24.8436615081      -31.1199541357       71.0758896640  LPSA29    18             12.0000000000
     31768      1026  AGAL      HO3            25.7934755788      -31.0451159105       70.9682873819  LPSA29    18             12.0000000000
     31769      1026  AGAL      C4             23.7340559168      -32.1443893316       69.1634745928  LPSA29    18             12.0000000000
     31770      1026  AGAL      H4             24.5385758752      -32.8720043430       68.9039691178  LPSA29    18             12.0000000000
     31771      1026  AGAL      O4             22.7882634919      -32.8905899763       69.9734134928  LPSA29    18             12.0000000000
     31772      1026  AGAL      HO4            23.2939868867      -33.3605861884       70.7236544006  LPSA29    18             12.0000000000
     31773      1026  AGAL      C6             22.7893605737      -32.6916436870       66.8042742825  LPSA29    18             12.0000000000
     31774      1026  AGAL      H61            22.6747008094      -32.1107363244       65.8877991861  LPSA29    18             12.0000000000
     31775      1026  AGAL      H62            23.6980987900      -33.3345894787       66.6499463921  LPSA29    18             12.0000000000
     31776      1026  AGAL      O6             21.6712233130      -33.3995273641       66.9803033045  LPSA29    18             12.0000000000
     31777      1026  AGAL      HO6            21.0766082273      -33.1247155665       67.6707071977  LPSA29    18             12.0000000000
     31778      1027  ARHM      C1             22.7067962002      -29.2506325097       72.1803514454  LPSA29    19             13.0000000000
     31779      1027  ARHM      H1             22.7506251846      -30.3122831910       72.3185909119  LPSA29    19             13.0000000000
     31780      1027  ARHM      C5             20.9414086209      -27.6689780211       72.2512180912  LPSA29    19             13.0000000000
     31781      1027  ARHM      H5             21.2474298335      -27.3779416656       71.2133247196  LPSA29    19             13.0000000000
     31782      1027  ARHM      O5             21.3073577992      -29.0400421574       72.4162684983  LPSA29    19             13.0000000000
     31783      1027  ARHM      C2             23.5491854509      -28.4581134187       73.1100514097  LPSA29    19             13.0000000000
     31784      1027  ARHM      H2             24.5943952762      -28.5033648539       72.9420985559  LPSA29    19             13.0000000000
     31785      1027  ARHM      O2             23.3118305314      -28.8648277276       74.4131644751  LPSA29    19             13.0000000000
     31786      1027  ARHM      C3             23.1205793414      -26.9631143321       72.9859276785  LPSA29    19             13.0000000000
     31787      1027  ARHM      H3             23.2650683279      -26.6774520953       71.9471750908  LPSA29    19             13.0000000000
     31788      1027  ARHM      O3             23.9191266007      -26.1471760668       73.7644258584  LPSA29    19             13.0000000000
     31789      1027  ARHM      HO3            23.9365628216      -26.5351599461       74.6464134549  LPSA29    19             13.0000000000
     31790      1027  ARHM      C4             21.6888077334      -26.7505250684       73.2443334127  LPSA29    19             13.0000000000
     31791      1027  ARHM      H4             21.5150815755      -27.0989052300       74.2703943704  LPSA29    19             13.0000000000
     31792      1027  ARHM      O4             21.2579541218      -25.4280641268       73.1708570575  LPSA29    19             13.0000000000
     31793      1027  ARHM      HO4            21.3795413435      -25.1580649634       72.2126258713  LPSA29    19             13.0000000000
     31794      1027  ARHM      C6             19.4137963876      -27.4868785730       72.3031700958  LPSA29    19             13.0000000000
     31795      1027  ARHM      H61            19.1047335513      -28.1591854304       71.5186681997  LPSA29    19             13.0000000000
     31796      1027  ARHM      H62            18.9176385170      -27.7801042019       73.2001761489  LPSA29    19             13.0000000000
     31797      1027  ARHM      H63            19.0894526809      -26.4649219269       72.0875448643  LPSA29    19             13.0000000000
     31798      1028  ARHM      C1             23.9322981602      -30.0750824192       74.6981797177  LPSA29    20             14.0000000000
     31799      1028  ARHM      H1             24.6742200550      -30.3897005483       73.8936196974  LPSA29    20             14.0000000000
     31800      1028  ARHM      C5             22.2027448676      -31.1083829918       75.9960310464  LPSA29    20             14.0000000000
     31801      1028  ARHM      H5             21.6520424089      -30.1515884980       75.8071112250  LPSA29    20             14.0000000000
     31802      1028  ARHM      O5             23.0878927186      -31.2135085291       74.8741575474  LPSA29    20             14.0000000000
     31803      1028  ARHM      C2             24.8019775997      -29.9226277674       75.9438944127  LPSA29    20             14.0000000000
     31804      1028  ARHM      H2             25.4217726557      -28.9438370560       75.7904987900  LPSA29    20             14.0000000000
     31805      1028  ARHM      O2             25.6494916572      -31.0624099890       76.2145535291  LPSA29    20             14.0000000000
     31806      1028  ARHM      C3             23.8727083482      -29.8103076173       77.0746584307  LPSA29    20             14.0000000000
     31807      1028  ARHM      H3             23.2095467406      -28.8747108236       76.9570890266  LPSA29    20             14.0000000000
     31808      1028  ARHM      O3             24.6949509210      -29.5655962340       78.2431898216  LPSA29    20             14.0000000000
     31809      1028  ARHM      C4             22.9849768727      -31.0012822248       77.2147849866  LPSA29    20             14.0000000000
     31810      1028  ARHM      H4             23.5269847081      -31.9215951491       77.2882629629  LPSA29    20             14.0000000000
     31811      1028  ARHM      O4             22.2107605010      -30.8678704611       78.4294019453  LPSA29    20             14.0000000000
     31812      1028  ARHM      HO4            21.4800304561      -31.3335684539       78.0714846557  LPSA29    20             14.0000000000
     31813      1028  ARHM      C6             21.2379892134      -32.2195543434       75.9818768401  LPSA29    20             14.0000000000
     31814      1028  ARHM      H61            21.6147475165      -33.2840444265       76.0487105533  LPSA29    20             14.0000000000
     31815      1028  ARHM      H62            20.4774254456      -32.0644691213       76.7492574554  LPSA29    20             14.0000000000
     31816      1028  ARHM      H63            20.6358102662      -32.3072203337       75.0059134709  LPSA29    20             14.0000000000
     31817      1029  BMANNA    C1             26.7861483835      -30.8832983120       75.4501725836  LPSA29    21             15.0000000000
     31818      1029  BMANNA    H1             26.6423568024      -30.0501253799       74.6495731600  LPSA29    21             15.0000000000
     31819      1029  BMANNA    C5             28.1117208552      -31.7144327281       73.6578092950  LPSA29    21             15.0000000000
     31820      1029  BMANNA    H5             28.0306566724      -30.7172924072       73.0422409194  LPSA29    21             15.0000000000
     31821      1029  BMANNA    O5             26.9833762213      -32.0238610302       74.5460975074  LPSA29    21             15.0000000000
     31822      1029  BMANNA    C2             27.9786211919      -30.6768054774       76.3268603500  LPSA29    21             15.0000000000
     31823      1029  BMANNA    H2             27.6895030959      -29.7730703846       76.8663433126  LPSA29    21             15.0000000000
     31824      1029  BMANNA    N              28.1718662458      -31.7833628163       77.2602735953  LPSA29    21             15.0000000000
     31825      1029  BMANNA    HN             28.2028473773      -32.6692752166       76.8630196157  LPSA29    21             15.0000000000
     31826      1029  BMANNA    C              28.5859635702      -31.6565976436       78.6142451918  LPSA29    21             15.0000000000
     31827      1029  BMANNA    O              28.9963705979      -30.5742706792       79.0340579138  LPSA29    21             15.0000000000
     31828      1029  BMANNA    CT             28.5630410456      -32.9133253305       79.5125915666  LPSA29    21             15.0000000000
     31829      1029  BMANNA    HT1            29.4826797986      -33.5080115712       79.3040814335  LPSA29    21             15.0000000000
     31830      1029  BMANNA    HT2            27.6007387370      -33.4172436628       79.3224353366  LPSA29    21             15.0000000000
     31831      1029  BMANNA    HT3            28.5938878978      -32.6133353512       80.6000991146  LPSA29    21             15.0000000000
     31832      1029  BMANNA    C3             29.1402330780      -30.3873514484       75.4428482744  LPSA29    21             15.0000000000
     31833      1029  BMANNA    H3             28.8280356439      -29.4476628533       75.0091666053  LPSA29    21             15.0000000000
     31834      1029  BMANNA    O3             30.3305164074      -30.1439863589       76.1769203835  LPSA29    21             15.0000000000
     31835      1029  BMANNA    HO3            30.4720680211      -30.8849735890       76.7354970047  LPSA29    21             15.0000000000
     31836      1029  BMANNA    C4             29.3683367583      -31.5297338234       74.4866217523  LPSA29    21             15.0000000000
     31837      1029  BMANNA    H4             29.7052223904      -32.5568956607       75.0002820064  LPSA29    21             15.0000000000
     31838      1029  BMANNA    O4             30.4360581036      -31.2899119531       73.6152290754  LPSA29    21             15.0000000000
     31839      1029  BMANNA    HO4            31.1688139752      -31.9262126652       73.7703874424  LPSA29    21             15.0000000000
     31840      1029  BMANNA    C6             28.2776776911      -32.7143192849       72.6348027846  LPSA29    21             15.0000000000
     31841      1029  BMANNA    H61            29.0074802286      -32.4273478457       71.8494922130  LPSA29    21             15.0000000000
     31842      1029  BMANNA    H62            28.8426570463      -33.5899872910       73.0558617198  LPSA29    21             15.0000000000
     31843      1029  BMANNA    O6             27.1238816916      -33.2551657658       72.0654385618  LPSA29    21             15.0000000000
     31844      1029  BMANNA    HO6            26.5710198039      -33.5728614685       72.7784055652  LPSA29    21             15.0000000000
     31845      1030  BGLCNA    C1             24.2645801928      -28.6904684613       79.2248726046  LPSA29    22             15.0000000000
     31846      1030  BGLCNA    H1             23.1434837241      -28.5638242983       79.2753119810  LPSA29    22             15.0000000000
     31847      1030  BGLCNA    C5             24.2723354642      -26.4542647251       80.1145289529  LPSA29    22             15.0000000000
     31848      1030  BGLCNA    H5             23.1037075381      -26.5128474347       80.0727605020  LPSA29    22             15.0000000000
     31849      1030  BGLCNA    O5             24.7449844782      -27.3857644880       79.0803056561  LPSA29    22             15.0000000000
     31850      1030  BGLCNA    C2             24.7151985525      -29.2236682989       80.5602818744  LPSA29    22             15.0000000000
     31851      1030  BGLCNA    H2             25.8580715884      -29.1988368048       80.4633107900  LPSA29    22             15.0000000000
     31852      1030  BGLCNA    N              24.2234046209      -30.5775906475       80.7025670875  LPSA29    22             15.0000000000
     31853      1030  BGLCNA    HN             23.2909694937      -30.7234233108       80.4501896382  LPSA29    22             15.0000000000
     31854      1030  BGLCNA    C              24.8598697726      -31.5453930466       81.3295640408  LPSA29    22             15.0000000000
     31855      1030  BGLCNA    O              25.9767268236      -31.3547391589       81.8448112003  LPSA29    22             15.0000000000
     31856      1030  BGLCNA    CT             24.1787616784      -32.8629886119       81.4359073222  LPSA29    22             15.0000000000
     31857      1030  BGLCNA    HT1            24.5170164742      -33.3622531109       80.5353412834  LPSA29    22             15.0000000000
     31858      1030  BGLCNA    HT2            23.0904032260      -32.6872153795       81.2752873926  LPSA29    22             15.0000000000
     31859      1030  BGLCNA    HT3            24.2866780968      -33.3766928988       82.3679651303  LPSA29    22             15.0000000000
     31860      1030  BGLCNA    C3             24.2774125220      -28.3142380107       81.6855161512  LPSA29    22             15.0000000000
     31861      1030  BGLCNA    H3             23.1628776746      -28.2247972044       81.6419517197  LPSA29    22             15.0000000000
     31862      1030  BGLCNA    O3             24.6403110983      -28.9822143316       82.8729300216  LPSA29    22             15.0000000000
     31863      1030  BGLCNA    C4             24.8150990873      -26.8959904947       81.4704242134  LPSA29    22             15.0000000000
     31864      1030  BGLCNA    H4             25.8671835753      -26.9949096430       81.4144045074  LPSA29    22             15.0000000000
     31865      1030  BGLCNA    O4             24.4703050383      -26.0119284184       82.5140850489  LPSA29    22             15.0000000000
     31866      1030  BGLCNA    HO4            25.2365654902      -25.4466754812       82.7130071916  LPSA29    22             15.0000000000
     31867      1030  BGLCNA    C6             24.7782182418      -25.0714611691       79.7284495560  LPSA29    22             15.0000000000
     31868      1030  BGLCNA    H61            24.7043541332      -24.4868535613       80.6924177192  LPSA29    22             15.0000000000
     31869      1030  BGLCNA    H62            25.8569230229      -25.0930508626       79.4648784538  LPSA29    22             15.0000000000
     31870      1030  BGLCNA    O6             23.9851086680      -24.3985350070       78.8100863794  LPSA29    22             15.0000000000
     31871      1030  BGLCNA    HO6            23.9152410450      -24.9289791184       78.0328486455  LPSA29    22             15.0000000000
     31872      1031  AGAL      C1             24.0224242523      -28.6498663831       84.0628261254  LPSA29    23             16.0000000000
     31873      1031  AGAL      H1             24.4125718290      -27.6942242870       84.5106287163  LPSA29    23             16.0000000000
     31874      1031  AGAL      C5             21.9509761922      -29.7843244226       83.7583018441  LPSA29    23             16.0000000000
     31875      1031  AGAL      H5             22.4350575767      -30.2797027195       82.8366412438  LPSA29    23             16.0000000000
     31876      1031  AGAL      O5             22.5958771399      -28.5542328619       83.9976212264  LPSA29    23             16.0000000000
     31877      1031  AGAL      C2             24.3680022966      -29.6581805795       85.1427633740  LPSA29    23             16.0000000000
     31878      1031  AGAL      H2             23.8553406228      -29.3038451217       86.0076373284  LPSA29    23             16.0000000000
     31879      1031  AGAL      O2             25.7293184958      -29.6737038276       85.5000844886  LPSA29    23             16.0000000000
     31880      1031  AGAL      C3             23.7457099644      -30.9930730399       84.9194901020  LPSA29    23             16.0000000000
     31881      1031  AGAL      H3             24.0382522118      -31.2846686460       83.8641570193  LPSA29    23             16.0000000000
     31882      1031  AGAL      O3             24.2075754032      -32.0249025706       85.7108298168  LPSA29    23             16.0000000000
     31883      1031  AGAL      HO3            24.2106832631      -31.6502551254       86.6206525111  LPSA29    23             16.0000000000
     31884      1031  AGAL      C4             22.2590400919      -30.7999265222       84.8901212015  LPSA29    23             16.0000000000
     31885      1031  AGAL      H4             21.7082607905      -31.7377649318       84.6506069022  LPSA29    23             16.0000000000
     31886      1031  AGAL      O4             21.6515937240      -30.4129195838       86.1132943683  LPSA29    23             16.0000000000
     31887      1031  AGAL      HO4            20.9840791521      -29.8750267054       85.8278371007  LPSA29    23             16.0000000000
     31888      1031  AGAL      C6             20.5239973138      -29.5736154480       83.3278962909  LPSA29    23             16.0000000000
     31889      1031  AGAL      H61            20.4790852375      -28.7996100750       82.6074235255  LPSA29    23             16.0000000000
     31890      1031  AGAL      H62            20.1250796381      -30.4205085789       82.7620574208  LPSA29    23             16.0000000000
     31891      1031  AGAL      O6             19.7458679648      -29.1637536755       84.3845202183  LPSA29    23             16.0000000000
     31892      1031  AGAL      HO6            18.8440012098      -28.9721600838       84.1740981585  LPSA29    23             16.0000000000
     31893      1032  ARHM      C1             26.3690581109      -28.6816696351       86.2818185944  LPSA29    24             17.0000000000
     31894      1032  ARHM      H1             25.6924475060      -27.8534644948       86.3680542693  LPSA29    24             17.0000000000
     31895      1032  ARHM      C5             28.6391664286      -29.0947385530       85.6157638072  LPSA29    24             17.0000000000
     31896      1032  ARHM      H5             28.2776657369      -29.8962446382       85.0070975499  LPSA29    24             17.0000000000
     31897      1032  ARHM      O5             27.6570448387      -28.0936419633       85.8657410059  LPSA29    24             17.0000000000
     31898      1032  ARHM      C2             26.5505280620      -29.3729257102       87.5921581840  LPSA29    24             17.0000000000
     31899      1032  ARHM      H2             25.6664054110      -29.9004789069       87.8984046741  LPSA29    24             17.0000000000
     31900      1032  ARHM      O2             27.0700465171      -28.4933327446       88.6075763533  LPSA29    24             17.0000000000
     31901      1032  ARHM      C3             27.6412176489      -30.4399524823       87.4133527752  LPSA29    24             17.0000000000
     31902      1032  ARHM      H3             27.2427051511      -31.1315037053       86.6640279609  LPSA29    24             17.0000000000
     31903      1032  ARHM      O3             27.8250604385      -31.3092088743       88.5620392964  LPSA29    24             17.0000000000
     31904      1032  ARHM      HO3            28.4632702018      -30.8460651327       89.1463757531  LPSA29    24             17.0000000000
     31905      1032  ARHM      C4             28.9533056550      -29.8286464238       86.9402325015  LPSA29    24             17.0000000000
     31906      1032  ARHM      H4             29.2509324437      -29.0074702042       87.7071552895  LPSA29    24             17.0000000000
     31907      1032  ARHM      O4             30.0263403290      -30.7394485208       86.8379508285  LPSA29    24             17.0000000000
     31908      1032  ARHM      HO4            30.8740550769      -30.3682594473       87.0219124236  LPSA29    24             17.0000000000
     31909      1032  ARHM      C6             29.9419964578      -28.5246455279       84.9175891319  LPSA29    24             17.0000000000
     31910      1032  ARHM      H61            30.4332089247      -29.3376704323       84.3853494017  LPSA29    24             17.0000000000
     31911      1032  ARHM      H62            29.6019349716      -27.7836060155       84.2649634992  LPSA29    24             17.0000000000
     31912      1032  ARHM      H63            30.5929995696      -27.9821088009       85.6811466487  LPSA29    24             17.0000000000
     31913      1033  ARHM      C1             26.0329388390      -27.6894573264       89.1588742089  LPSA29    25             18.0000000000
     31914      1033  ARHM      H1             25.2251618783      -27.6285876628       88.4722246341  LPSA29    25             18.0000000000
     31915      1033  ARHM      C5             27.4980843898      -26.0892732854       90.1670531641  LPSA29    25             18.0000000000
     31916      1033  ARHM      H5             28.3826639861      -26.5961797639       89.8870230824  LPSA29    25             18.0000000000
     31917      1033  ARHM      O5             26.4184672879      -26.3025861151       89.2315309535  LPSA29    25             18.0000000000
     31918      1033  ARHM      C2             25.6342855870      -28.2468562747       90.4685713243  LPSA29    25             18.0000000000
     31919      1033  ARHM      H2             25.4656888023      -29.3690718441       90.3413143991  LPSA29    25             18.0000000000
     31920      1033  ARHM      O2             24.4133371226      -27.5920614053       90.9328696740  LPSA29    25             18.0000000000
     31921      1033  ARHM      C3             26.8093891178      -27.9514505733       91.4562257518  LPSA29    25             18.0000000000
     31922      1033  ARHM      H3             27.7005265500      -28.5058437690       91.0689171631  LPSA29    25             18.0000000000
     31923      1033  ARHM      O3             26.4255331452      -28.5173966826       92.6920647463  LPSA29    25             18.0000000000
     31924      1033  ARHM      C4             27.1374511068      -26.5649099924       91.5960769721  LPSA29    25             18.0000000000
     31925      1033  ARHM      H4             26.2068573427      -25.9220488469       91.8876801091  LPSA29    25             18.0000000000
     31926      1033  ARHM      O4             28.1623071192      -26.4778655623       92.5862492282  LPSA29    25             18.0000000000
     31927      1033  ARHM      HO4            27.9737539981      -25.6626793540       93.0149361445  LPSA29    25             18.0000000000
     31928      1033  ARHM      C6             27.9377333518      -24.6265491319       90.2083352735  LPSA29    25             18.0000000000
     31929      1033  ARHM      H61            28.1131943858      -24.2139996682       89.1912344565  LPSA29    25             18.0000000000
     31930      1033  ARHM      H62            27.1739761022      -23.9430607066       90.6686969550  LPSA29    25             18.0000000000
     31931      1033  ARHM      H63            28.9009097757      -24.4547082916       90.8233913566  LPSA29    25             18.0000000000
     31932      1034  BMANNA    C1             23.2398634920      -28.0630070572       90.3138108879  LPSA29    26             19.0000000000
     31933      1034  BMANNA    H1             23.3906899280      -29.0768491233       89.8388342826  LPSA29    26             19.0000000000
     31934      1034  BMANNA    C5             21.5634749987      -27.8283854395       88.6312665858  LPSA29    26             19.0000000000
     31935      1034  BMANNA    H5             21.8842418291      -28.7662943834       88.1771240033  LPSA29    26             19.0000000000
     31936      1034  BMANNA    O5             22.7219815127      -27.2382033334       89.2346891933  LPSA29    26             19.0000000000
     31937      1034  BMANNA    C2             22.2319551626      -28.1910240812       91.3475147821  LPSA29    26             19.0000000000
     31938      1034  BMANNA    H2             22.6926084496      -28.9032447654       92.1081287357  LPSA29    26             19.0000000000
     31939      1034  BMANNA    N              21.9813533885      -26.8511949362       91.9238920796  LPSA29    26             19.0000000000
     31940      1034  BMANNA    HN             21.7217287185      -26.1659255390       91.3050515894  LPSA29    26             19.0000000000
     31941      1034  BMANNA    C              21.9928133072      -26.5669661413       93.1798471680  LPSA29    26             19.0000000000
     31942      1034  BMANNA    O              22.4167212576      -27.3999624606       94.0003587425  LPSA29    26             19.0000000000
     31943      1034  BMANNA    CT             21.4670653821      -25.2205903882       93.6758917343  LPSA29    26             19.0000000000
     31944      1034  BMANNA    HT1            21.5110962456      -24.5571068755       92.8666282051  LPSA29    26             19.0000000000
     31945      1034  BMANNA    HT2            21.7952228616      -24.7585952855       94.6620984389  LPSA29    26             19.0000000000
     31946      1034  BMANNA    HT3            20.3966828648      -25.3856768285       93.8484898219  LPSA29    26             19.0000000000
     31947      1034  BMANNA    C3             21.0092582589      -28.8570644696       90.7100883268  LPSA29    26             19.0000000000
     31948      1034  BMANNA    H3             21.3247475430      -29.8638364677       90.3384445889  LPSA29    26             19.0000000000
     31949      1034  BMANNA    O3             20.0385110964      -29.1014814723       91.7636866611  LPSA29    26             19.0000000000
     31950      1034  BMANNA    HO3            20.4227573799      -29.8364756973       92.2265744207  LPSA29    26             19.0000000000
     31951      1034  BMANNA    C4             20.5340005006      -28.0298437325       89.6481622736  LPSA29    26             19.0000000000
     31952      1034  BMANNA    H4             20.2028251475      -26.9813214927       89.9013799111  LPSA29    26             19.0000000000
     31953      1034  BMANNA    O4             19.3757569937      -28.5854769203       89.0416847738  LPSA29    26             19.0000000000
     31954      1034  BMANNA    HO4            18.6134770535      -28.3294972448       89.5591157304  LPSA29    26             19.0000000000
     31955      1034  BMANNA    C6             21.2709402663      -26.9322980686       87.3900617492  LPSA29    26             19.0000000000
     31956      1034  BMANNA    H61            22.2001232267      -26.5654812716       86.9191763972  LPSA29    26             19.0000000000
     31957      1034  BMANNA    H62            20.7160224925      -27.4481670045       86.6504270337  LPSA29    26             19.0000000000
     31958      1034  BMANNA    O6             20.4948684000      -25.7894603268       87.7329108337  LPSA29    26             19.0000000000
     31959      1034  BMANNA    HO6            19.7128835083      -26.0580977173       88.1688153196  LPSA29    26             19.0000000000
     31960      1035  BGLCNA    C1             27.2323298727      -29.2802907696       93.4616184899  LPSA29    27             19.0000000000
     31961      1035  BGLCNA    H1             28.2507345781      -28.9051453563       93.4392217979  LPSA29    27             19.0000000000
     31962      1035  BGLCNA    C5             28.2213911257      -31.3801928475       93.9656603721  LPSA29    27             19.0000000000
     31963      1035  BGLCNA    H5             29.2053571732      -30.8449260920       93.9564344452  LPSA29    27             19.0000000000
     31964      1035  BGLCNA    O5             27.3751366624      -30.6578151093       93.0607755266  LPSA29    27             19.0000000000
     31965      1035  BGLCNA    C2             26.6684202108      -29.1774465317       94.8806799918  LPSA29    27             19.0000000000
     31966      1035  BGLCNA    H2             25.6864212248      -29.6814289298       94.8757458582  LPSA29    27             19.0000000000
     31967      1035  BGLCNA    N              26.4867363459      -27.7861535603       95.2501113516  LPSA29    27             19.0000000000
     31968      1035  BGLCNA    HN             27.3142496912      -27.1549919687       95.0827132934  LPSA29    27             19.0000000000
     31969      1035  BGLCNA    C              25.3222281688      -27.4923190309       95.9523160909  LPSA29    27             19.0000000000
     31970      1035  BGLCNA    O              24.5654433758      -28.3346297888       96.5238801166  LPSA29    27             19.0000000000
     31971      1035  BGLCNA    CT             25.0018915518      -25.9673268812       96.0293745529  LPSA29    27             19.0000000000
     31972      1035  BGLCNA    HT1            25.6943543130      -25.3838677972       95.3635606282  LPSA29    27             19.0000000000
     31973      1035  BGLCNA    HT2            24.9785790315      -25.5628362447       97.0167906789  LPSA29    27             19.0000000000
     31974      1035  BGLCNA    HT3            23.8948893831      -25.8505548191       95.7039804309  LPSA29    27             19.0000000000
     31975      1035  BGLCNA    C3             27.5518850392      -29.9258476143       95.7540348103  LPSA29    27             19.0000000000
     31976      1035  BGLCNA    H3             28.5967538201      -29.5271894634       95.7401190096  LPSA29    27             19.0000000000
     31977      1035  BGLCNA    O3             26.9473481832      -29.7294279900       97.0775356047  LPSA29    27             19.0000000000
     31978      1035  BGLCNA    C4             27.6807045620      -31.4071906131       95.3486864533  LPSA29    27             19.0000000000
     31979      1035  BGLCNA    H4             26.6671869775      -31.8686716234       95.3090014479  LPSA29    27             19.0000000000
     31980      1035  BGLCNA    O4             28.4970858001      -32.1050818204       96.2156872787  LPSA29    27             19.0000000000
     31981      1035  BGLCNA    HO4            29.3507440622      -31.7764258948       96.0162444362  LPSA29    27             19.0000000000
     31982      1035  BGLCNA    C6             28.4729614800      -32.7688837825       93.2852949846  LPSA29    27             19.0000000000
     31983      1035  BGLCNA    H61            29.2903354749      -33.2197271274       93.8557506920  LPSA29    27             19.0000000000
     31984      1035  BGLCNA    H62            27.6028436427      -33.4413129507       93.4725180191  LPSA29    27             19.0000000000
     31985      1035  BGLCNA    O6             28.7762952549      -32.6261342355       91.9076175409  LPSA29    27             19.0000000000
     31986      1035  BGLCNA    HO6            28.8981182557      -33.5236446624       91.5273290588  LPSA29    27             19.0000000000
     31987      1036  AGAL      C1             27.7291281275      -30.0141812809       98.2622020222  LPSA29    28             20.0000000000
     31988      1036  AGAL      H1             27.8791476594      -31.0593666101       98.3007149491  LPSA29    28             20.0000000000
     31989      1036  AGAL      C5             29.0329275045      -27.9721042798       98.1710438288  LPSA29    28             20.0000000000
     31990      1036  AGAL      H5             28.1855553562      -27.5180568841       97.4646141937  LPSA29    28             20.0000000000
     31991      1036  AGAL      O5             29.0334482776      -29.4571427752       98.1147365872  LPSA29    28             20.0000000000
     31992      1036  AGAL      C2             27.1922534711      -29.5280984363       99.6197190629  LPSA29    28             20.0000000000
     31993      1036  AGAL      H2             27.9704917688      -29.8744571756      100.2965066153  LPSA29    28             20.0000000000
     31994      1036  AGAL      O2             25.9834526748      -30.1137006112      100.0788731798  LPSA29    28             20.0000000000
     31995      1036  AGAL      C3             27.1739503595      -28.0366050039       99.7396972452  LPSA29    28             20.0000000000
     31996      1036  AGAL      H3             26.5796895611      -27.6326197059       98.8607737785  LPSA29    28             20.0000000000
     31997      1036  AGAL      O3             26.5769414938      -27.4336542846      100.9043404272  LPSA29    28             20.0000000000
     31998      1036  AGAL      HO3            25.8176745842      -26.9238841651      100.5606486229  LPSA29    28             20.0000000000
     31999      1036  AGAL      C4             28.5378264819      -27.5203567983       99.5102226768  LPSA29    28             20.0000000000
     32000      1036  AGAL      H4             28.4840220062      -26.4582454917       99.4798298294  LPSA29    28             20.0000000000
     32001      1036  AGAL      O4             29.4595294687      -27.9147756665      100.4757933835  LPSA29    28             20.0000000000
     32002      1036  AGAL      HO4            29.5685601813      -27.1817672015      101.0376442747  LPSA29    28             20.0000000000
     32003      1036  AGAL      C6             30.3066358736      -27.3115599218       97.6362902244  LPSA29    28             20.0000000000
     32004      1036  AGAL      H61            30.4160765920      -27.5527742581       96.5809275898  LPSA29    28             20.0000000000
     32005      1036  AGAL      H62            30.3942747006      -26.1709842467       97.7651048223  LPSA29    28             20.0000000000
     32006      1036  AGAL      O6             31.4264190244      -27.7997118560       98.3456070822  LPSA29    28             20.0000000000
     32007      1036  AGAL      HO6            31.7482855725      -28.6066391965       97.9416813930  LPSA29    28             20.0000000000
     32008      1037  ARHM      C1             26.1246552719      -30.4431222512      101.4808913342  LPSA29    29             21.0000000000
     32009      1037  ARHM      H1             26.8642027028      -29.7487468091      101.9964955809  LPSA29    29             21.0000000000
     32010      1037  ARHM      C5             25.6642461166      -32.7215058445      101.1486206043  LPSA29    29             21.0000000000
     32011      1037  ARHM      H5             25.5050681619      -32.4219905974      100.0935446791  LPSA29    29             21.0000000000
     32012      1037  ARHM      O5             26.5353524944      -31.7657082965      101.6833506475  LPSA29    29             21.0000000000
     32013      1037  ARHM      C2             24.8464491572      -30.1783262538      102.1437305515  LPSA29    29             21.0000000000
     32014      1037  ARHM      H2             24.4707342573      -29.2040860967      101.9067628034  LPSA29    29             21.0000000000
     32015      1037  ARHM      O2             24.9449074788      -30.2825757207      103.5748524404  LPSA29    29             21.0000000000
     32016      1037  ARHM      C3             23.8537457459      -31.1816439658      101.6289418068  LPSA29    29             21.0000000000
     32017      1037  ARHM      H3             23.6748561132      -30.9862601481      100.4952263366  LPSA29    29             21.0000000000
     32018      1037  ARHM      O3             22.6054482762      -30.8966118356      102.1995749427  LPSA29    29             21.0000000000
     32019      1037  ARHM      HO3            22.1626262751      -31.6760647093      102.2092645043  LPSA29    29             21.0000000000
     32020      1037  ARHM      C4             24.2631445785      -32.5750570507      101.8247918557  LPSA29    29             21.0000000000
     32021      1037  ARHM      H4             24.3433333778      -32.8404647436      102.9338171738  LPSA29    29             21.0000000000
     32022      1037  ARHM      O4             23.3711549597      -33.6066701774      101.3452167393  LPSA29    29             21.0000000000
     32023      1037  ARHM      HO4            22.9847269023      -33.4242254065      100.4362974805  LPSA29    29             21.0000000000
     32024      1037  ARHM      C6             26.3926572422      -34.0754831973      101.2162231226  LPSA29    29             21.0000000000
     32025      1037  ARHM      H61            27.4228208623      -33.8293597457      100.7685423143  LPSA29    29             21.0000000000
     32026      1037  ARHM      H62            26.5304402460      -34.3568633483      102.3013153741  LPSA29    29             21.0000000000
     32027      1037  ARHM      H63            25.8433801617      -34.8016228191      100.6072571094  LPSA29    29             21.0000000000
     32028      1038  ARHM      C1             25.1131582547      -29.1698655467      104.3945976075  LPSA29    30             22.0000000000
     32029      1038  ARHM      H1             24.2734803666      -28.4644653075      104.2094096401  LPSA29    30             22.0000000000
     32030      1038  ARHM      C5             27.5374416038      -29.3496663499      104.5143062533  LPSA29    30             22.0000000000
     32031      1038  ARHM      H5             27.3104494874      -30.2817716003      103.8668162917  LPSA29    30             22.0000000000
     32032      1038  ARHM      O5             26.3856087315      -28.5155365819      104.2052433351  LPSA29    30             22.0000000000
     32033      1038  ARHM      C2             25.0305559156      -29.6030486348      105.8471183130  LPSA29    30             22.0000000000
     32034      1038  ARHM      H2             24.1326474331      -30.0978370147      106.0289718167  LPSA29    30             22.0000000000
     32035      1038  ARHM      O2             25.1981356746      -28.4381160928      106.5813641610  LPSA29    30             22.0000000000
     32036      1038  ARHM      C3             26.1703397327      -30.4340739049      106.2079894766  LPSA29    30             22.0000000000
     32037      1038  ARHM      H3             26.2305457955      -31.2392702782      105.5270001340  LPSA29    30             22.0000000000
     32038      1038  ARHM      O3             26.0726038046      -31.0183086401      107.5373891676  LPSA29    30             22.0000000000
     32039      1038  ARHM      C4             27.5084173767      -29.7261166465      105.9708288384  LPSA29    30             22.0000000000
     32040      1038  ARHM      H4             27.6090314241      -28.7997230840      106.5400372406  LPSA29    30             22.0000000000
     32041      1038  ARHM      O4             28.6211670063      -30.4323745486      106.2997755749  LPSA29    30             22.0000000000
     32042      1038  ARHM      HO4            28.9576875148      -31.1074820549      105.6964454668  LPSA29    30             22.0000000000
     32043      1038  ARHM      C6             28.8065494557      -28.6589411470      104.0930490251  LPSA29    30             22.0000000000
     32044      1038  ARHM      H61            29.6405268286      -29.4049356530      104.2143179997  LPSA29    30             22.0000000000
     32045      1038  ARHM      H62            28.7814615222      -28.5065311260      103.0019050467  LPSA29    30             22.0000000000
     32046      1038  ARHM      H63            29.0096661591      -27.6895288942      104.6493652223  LPSA29    30             22.0000000000
     32047      1039  BMANNA    C1             24.0158713998      -27.7634217232      106.9502319096  LPSA29    31             23.0000000000
     32048      1039  BMANNA    H1             23.2377817522      -28.5325639644      107.1550799008  LPSA29    31             23.0000000000
     32049      1039  BMANNA    C5             22.2651490440      -26.2457293541      106.2136717625  LPSA29    31             23.0000000000
     32050      1039  BMANNA    H5             21.6015627343      -27.0562864745      106.5467054000  LPSA29    31             23.0000000000
     32051      1039  BMANNA    O5             23.5255692977      -26.8943040501      105.8742289322  LPSA29    31             23.0000000000
     32052      1039  BMANNA    C2             24.2662982729      -26.9272682131      108.0830629221  LPSA29    31             23.0000000000
     32053      1039  BMANNA    H2             24.5233800234      -27.6246422840      108.9031915743  LPSA29    31             23.0000000000
     32054      1039  BMANNA    N              25.4035654264      -26.1133096496      107.8252935315  LPSA29    31             23.0000000000
     32055      1039  BMANNA    HN             25.6191711820      -25.9054908692      106.8111160773  LPSA29    31             23.0000000000
     32056      1039  BMANNA    C              26.2120984305      -25.6602297480      108.7868858964  LPSA29    31             23.0000000000
     32057      1039  BMANNA    O              26.0708443373      -25.9798050435      109.9536662434  LPSA29    31             23.0000000000
     32058      1039  BMANNA    CT             27.3408664649      -24.7264742315      108.3237946568  LPSA29    31             23.0000000000
     32059      1039  BMANNA    HT1            26.9500906007      -24.0868648599      107.5739831696  LPSA29    31             23.0000000000
     32060      1039  BMANNA    HT2            28.1506689327      -25.3531549564      107.9347099034  LPSA29    31             23.0000000000
     32061      1039  BMANNA    HT3            27.7987183467      -24.2013907958      109.1768357935  LPSA29    31             23.0000000000
     32062      1039  BMANNA    C3             23.0001738606      -26.2463317644      108.4884560283  LPSA29    31             23.0000000000
     32063      1039  BMANNA    H3             22.1534602656      -27.0012155594      108.6988550870  LPSA29    31             23.0000000000
     32064      1039  BMANNA    O3             23.1362321841      -25.5733206537      109.7404994872  LPSA29    31             23.0000000000
     32065      1039  BMANNA    HO3            23.9076235982      -26.0360192384      110.0111610137  LPSA29    31             23.0000000000
     32066      1039  BMANNA    C4             22.5325683450      -25.3422199146      107.4199857710  LPSA29    31             23.0000000000
     32067      1039  BMANNA    H4             23.2941128762      -24.5025341727      107.0572414185  LPSA29    31             23.0000000000
     32068      1039  BMANNA    O4             21.3736198372      -24.6448821497      107.8525671122  LPSA29    31             23.0000000000
     32069      1039  BMANNA    HO4            20.6792195848      -25.2516289112      108.1943429300  LPSA29    31             23.0000000000
     32070      1039  BMANNA    C6             21.6658278146      -25.4373224486      105.0512686782  LPSA29    31             23.0000000000
     32071      1039  BMANNA    H61            20.5770493464      -25.1480068182      105.3397811046  LPSA29    31             23.0000000000
     32072      1039  BMANNA    H62            22.1952690651      -24.5063945819      104.8698551944  LPSA29    31             23.0000000000
     32073      1039  BMANNA    O6             21.6493290466      -26.1927380172      103.8241467834  LPSA29    31             23.0000000000
     32074      1039  BMANNA    HO6            20.9856501464      -26.9395782056      103.8134147631  LPSA29    31             23.0000000000
     32075      1040  BGLCNA    C1             26.4321625745      -30.2131215958      108.6103969990  LPSA29    32             23.0000000000
     32076      1040  BGLCNA    H1             26.1480576160      -29.1272101541      108.4325564695  LPSA29    32             23.0000000000
     32077      1040  BGLCNA    C5             28.2324722961      -29.2820012487      109.9277617404  LPSA29    32             23.0000000000
     32078      1040  BGLCNA    H5             27.8749833466      -28.2611630908      109.5374749077  LPSA29    32             23.0000000000
     32079      1040  BGLCNA    O5             27.8211413761      -30.2331122968      108.9423333575  LPSA29    32             23.0000000000
     32080      1040  BGLCNA    C2             25.6945336012      -30.5918517710      109.8194522937  LPSA29    32             23.0000000000
     32081      1040  BGLCNA    H2             26.1173289394      -31.5259845688      110.1044894257  LPSA29    32             23.0000000000
     32082      1040  BGLCNA    N              24.2950142485      -30.7247034370      109.5956973249  LPSA29    32             23.0000000000
     32083      1040  BGLCNA    HN             24.0094020376      -30.0546926850      108.8809076996  LPSA29    32             23.0000000000
     32084      1040  BGLCNA    C              23.4241913522      -31.6354237192      110.0864625708  LPSA29    32             23.0000000000
     32085      1040  BGLCNA    O              23.7506994012      -32.4701503024      110.9304085025  LPSA29    32             23.0000000000
     32086      1040  BGLCNA    CT             21.9653252956      -31.5601955849      109.5841031968  LPSA29    32             23.0000000000
     32087      1040  BGLCNA    HT1            22.1194446637      -30.9003434724      108.6281101354  LPSA29    32             23.0000000000
     32088      1040  BGLCNA    HT2            21.2784069963      -31.0246411591      110.1898124037  LPSA29    32             23.0000000000
     32089      1040  BGLCNA    HT3            21.5497075672      -32.5610528399      109.3122359934  LPSA29    32             23.0000000000
     32090      1040  BGLCNA    C3             25.9954718397      -29.5885604944      110.8930231790  LPSA29    32             23.0000000000
     32091      1040  BGLCNA    H3             25.7979354050      -28.6497502916      110.4606187373  LPSA29    32             23.0000000000
     32092      1040  BGLCNA    O3             25.1738878998      -29.7094671946      112.0657798240  LPSA29    32             23.0000000000
     32093      1040  BGLCNA    C4             27.4719973531      -29.6635769875      111.1707572500  LPSA29    32             23.0000000000
     32094      1040  BGLCNA    H4             27.6879284361      -30.7058506095      111.5318289610  LPSA29    32             23.0000000000
     32095      1040  BGLCNA    O4             27.8487119485      -28.7954835030      112.2070236435  LPSA29    32             23.0000000000
     32096      1040  BGLCNA    HO4            27.8129859777      -29.2234798910      113.0745323218  LPSA29    32             23.0000000000
     32097      1040  BGLCNA    C6             29.7437221493      -29.2579324134      110.0229508171  LPSA29    32             23.0000000000
     32098      1040  BGLCNA    H61            30.1084220853      -28.4157543382      110.7194343748  LPSA29    32             23.0000000000
     32099      1040  BGLCNA    H62            30.1035296623      -30.2167446462      110.5717638480  LPSA29    32             23.0000000000
     32100      1040  BGLCNA    O6             30.3593093481      -29.0347880593      108.7709294272  LPSA29    32             23.0000000000
     32101      1040  BGLCNA    HO6            29.8142460511      -28.4030087621      108.2360311317  LPSA29    32             23.0000000000
     32102      1041  AGAL      C1             24.8029937458      -28.4483719903      112.6842874521  LPSA29    33             24.0000000000
     32103      1041  AGAL      H1             25.6749437976      -27.7953877445      112.5979959475  LPSA29    33             24.0000000000
     32104      1041  AGAL      C5             22.4863906259      -28.6624370539      112.2149219831  LPSA29    33             24.0000000000
     32105      1041  AGAL      H5             22.8107867503      -29.6635458181      111.8792915250  LPSA29    33             24.0000000000
     32106      1041  AGAL      O5             23.6237003750      -27.8367967391      112.0726784748  LPSA29    33             24.0000000000
     32107      1041  AGAL      C2             24.4838844107      -28.7432714407      114.1482787662  LPSA29    33             24.0000000000
     32108      1041  AGAL      H2             24.0952378940      -27.7393274036      114.5751854976  LPSA29    33             24.0000000000
     32109      1041  AGAL      O2             25.6921295012      -28.9725298132      114.8486222260  LPSA29    33             24.0000000000
     32110      1041  AGAL      C3             23.2514352722      -29.6007865490      114.2945545625  LPSA29    33             24.0000000000
     32111      1041  AGAL      H3             23.3896705041      -30.5914865775      113.7405815065  LPSA29    33             24.0000000000
     32112      1041  AGAL      O3             23.0226715379      -30.0461607732      115.5672660328  LPSA29    33             24.0000000000
     32113      1041  AGAL      HO3            22.9982398009      -29.3988832161      116.2400186851  LPSA29    33             24.0000000000
     32114      1041  AGAL      C4             22.0517539431      -28.9257171108      113.6708488317  LPSA29    33             24.0000000000
     32115      1041  AGAL      H4             21.1765829724      -29.5867198471      113.6729875792  LPSA29    33             24.0000000000
     32116      1041  AGAL      O4             21.5914394882      -27.6800565050      114.2435538900  LPSA29    33             24.0000000000
     32117      1041  AGAL      HO4            22.1766275742      -27.3369410460      114.9085525172  LPSA29    33             24.0000000000
     32118      1041  AGAL      C6             21.3616022197      -28.2411416960      111.2992528405  LPSA29    33             24.0000000000
     32119      1041  AGAL      H61            21.7777313877      -28.3602827644      110.2783408757  LPSA29    33             24.0000000000
     32120      1041  AGAL      H62            20.4306362954      -28.8371919596      111.3458027743  LPSA29    33             24.0000000000
     32121      1041  AGAL      O6             20.8778273317      -26.9396706815      111.4129476537  LPSA29    33             24.0000000000
     32122      1041  AGAL      HO6            21.3617789071      -26.2882821154      110.8444757795  LPSA29    33             24.0000000000
     32123      1042  ARHM      C1             25.8456866172      -28.2239857190      116.0109133884  LPSA29    34             25.0000000000
     32124      1042  ARHM      H1             24.9384293618      -28.2282887179      116.6389743656  LPSA29    34             25.0000000000
     32125      1042  ARHM      C5             27.3245432383      -26.5562629267      115.0727799907  LPSA29    34             25.0000000000
     32126      1042  ARHM      H5             27.1614344102      -27.0087336197      114.0209633333  LPSA29    34             25.0000000000
     32127      1042  ARHM      O5             26.1295799724      -26.8148761546      115.8926868953  LPSA29    34             25.0000000000
     32128      1042  ARHM      C2             26.9491341791      -28.9170573099      116.7601555753  LPSA29    34             25.0000000000
     32129      1042  ARHM      H2             26.8433089884      -30.0304009389      116.8710959342  LPSA29    34             25.0000000000
     32130      1042  ARHM      O2             27.1682140080      -28.4195100426      118.1592972339  LPSA29    34             25.0000000000
     32131      1042  ARHM      C3             28.2487168353      -28.6994495965      115.9988665506  LPSA29    34             25.0000000000
     32132      1042  ARHM      H3             28.1798845066      -29.0903620987      114.9724172480  LPSA29    34             25.0000000000
     32133      1042  ARHM      O3             29.4310963533      -29.2934588130      116.5878695042  LPSA29    34             25.0000000000
     32134      1042  ARHM      HO3            30.0393010167      -29.6636556709      115.9559434517  LPSA29    34             25.0000000000
     32135      1042  ARHM      C4             28.5644148102      -27.1920269541      115.7987835878  LPSA29    34             25.0000000000
     32136      1042  ARHM      H4             28.5658874787      -26.6338325404      116.7495315617  LPSA29    34             25.0000000000
     32137      1042  ARHM      O4             29.7543451808      -26.9688066234      115.1362621200  LPSA29    34             25.0000000000
     32138      1042  ARHM      HO4            30.5166303805      -27.1006246423      115.6953140327  LPSA29    34             25.0000000000
     32139      1042  ARHM      C6             27.5479798133      -25.0187628302      114.8413279703  LPSA29    34             25.0000000000
     32140      1042  ARHM      H61            27.7559492691      -24.4401109699      115.7172490283  LPSA29    34             25.0000000000
     32141      1042  ARHM      H62            28.5533786953      -24.9029704391      114.3996926230  LPSA29    34             25.0000000000
     32142      1042  ARHM      H63            26.8406601899      -24.5119697848      114.1590834060  LPSA29    34             25.0000000000
     32143      1043  ARHM      C1             26.0604771014      -28.5008965164      119.0795908573  LPSA29    35             26.0000000000
     32144      1043  ARHM      H1             25.4940006855      -29.5030347027      118.8787348947  LPSA29    35             26.0000000000
     32145      1043  ARHM      C5             25.7494677953      -26.0969845524      119.2408916176  LPSA29    35             26.0000000000
     32146      1043  ARHM      H5             26.6478812116      -25.9058955792      118.5254732223  LPSA29    35             26.0000000000
     32147      1043  ARHM      O5             25.0878898123      -27.3823128606      118.9290334222  LPSA29    35             26.0000000000
     32148      1043  ARHM      C2             26.5788187733      -28.5320262884      120.5365485050  LPSA29    35             26.0000000000
     32149      1043  ARHM      H2             27.2228946600      -29.4398669663      120.7134209997  LPSA29    35             26.0000000000
     32150      1043  ARHM      O2             25.5187229039      -28.6383569757      121.4126203716  LPSA29    35             26.0000000000
     32151      1043  ARHM      C3             27.3283425940      -27.2230829135      120.8720061906  LPSA29    35             26.0000000000
     32152      1043  ARHM      H3             28.1946139794      -27.1677070461      120.1344793452  LPSA29    35             26.0000000000
     32153      1043  ARHM      O3             27.9186346713      -27.2779506889      122.1540075829  LPSA29    35             26.0000000000
     32154      1043  ARHM      HO3            27.3522044268      -27.7972916304      122.7288731339  LPSA29    35             26.0000000000
     32155      1043  ARHM      C4             26.3569654448      -26.0911477264      120.6788917534  LPSA29    35             26.0000000000
     32156      1043  ARHM      H4             25.4425048896      -26.1565717656      121.3307119103  LPSA29    35             26.0000000000
     32157      1043  ARHM      O4             27.0837841048      -24.8772341552      120.9693790153  LPSA29    35             26.0000000000
     32158      1043  ARHM      HO4            27.9787827618      -24.8407134812      120.5581709812  LPSA29    35             26.0000000000
     32159      1043  ARHM      C6             24.7918437143      -24.9145438696      118.8642347863  LPSA29    35             26.0000000000
     32160      1043  ARHM      H61            24.6135237576      -24.8753676783      117.7433556958  LPSA29    35             26.0000000000
     32161      1043  ARHM      H62            23.8996258601      -25.1634242754      119.4176110492  LPSA29    35             26.0000000000
     32162      1043  ARHM      H63            25.3590946387      -23.9601729120      119.0633705917  LPSA29    35             26.0000000000
     32163      1044  BMANNA    C1             24.8589784441      -29.8679419338      121.4471464502  LPSA29    36             27.0000000000
     32164      1044  BMANNA    H1             25.5212465593      -30.6952161443      121.0972061898  LPSA29    36             27.0000000000
     32165      1044  BMANNA    C5             23.1430891675      -31.4157938010      120.7299884793  LPSA29    36             27.0000000000
     32166      1044  BMANNA    H5             23.9531119441      -32.0915927832      120.4610684421  LPSA29    36             27.0000000000
     32167      1044  BMANNA    O5             23.6451707976      -30.0429036629      120.6641532654  LPSA29    36             27.0000000000
     32168      1044  BMANNA    C2             24.5003673898      -30.1791343958      122.8920138725  LPSA29    36             27.0000000000
     32169      1044  BMANNA    H2             25.4412684963      -30.1365473521      123.4719477421  LPSA29    36             27.0000000000
     32170      1044  BMANNA    N              23.6024254486      -29.1627244924      123.4395449790  LPSA29    36             27.0000000000
     32171      1044  BMANNA    HN             22.8461945573      -28.8187207588      122.8746519580  LPSA29    36             27.0000000000
     32172      1044  BMANNA    C              23.5798194832      -28.8979211271      124.7737151700  LPSA29    36             27.0000000000
     32173      1044  BMANNA    O              24.3721564213      -29.3261246871      125.6190347561  LPSA29    36             27.0000000000
     32174      1044  BMANNA    CT             22.4841068885      -28.0497790391      125.3570716528  LPSA29    36             27.0000000000
     32175      1044  BMANNA    HT1            21.5269462318      -28.2825279997      124.8802869227  LPSA29    36             27.0000000000
     32176      1044  BMANNA    HT2            22.6219563142      -26.9470103387      125.1731404614  LPSA29    36             27.0000000000
     32177      1044  BMANNA    HT3            22.3729264597      -28.0877129405      126.4547536948  LPSA29    36             27.0000000000
     32178      1044  BMANNA    C3             23.9322615155      -31.5725709710      122.9763638711  LPSA29    36             27.0000000000
     32179      1044  BMANNA    H3             24.6720786271      -32.3102657329      122.6403873786  LPSA29    36             27.0000000000
     32180      1044  BMANNA    O3             23.6204182166      -31.9545058949      124.3414054450  LPSA29    36             27.0000000000
     32181      1044  BMANNA    HO3            24.1136160173      -32.6761435014      124.7171830083  LPSA29    36             27.0000000000
     32182      1044  BMANNA    C4             22.7357673491      -31.7306612504      122.1146940524  LPSA29    36             27.0000000000
     32183      1044  BMANNA    H4             21.9280523095      -31.1067269111      122.4263894750  LPSA29    36             27.0000000000
     32184      1044  BMANNA    O4             22.1897929833      -33.0441833410      122.2172873890  LPSA29    36             27.0000000000
     32185      1044  BMANNA    HO4            22.0582534155      -33.0464334377      123.1985163392  LPSA29    36             27.0000000000
     32186      1044  BMANNA    C6             22.0588989691      -31.5761194374      119.7412642597  LPSA29    36             27.0000000000
     32187      1044  BMANNA    H61            22.4217044805      -31.4111103304      118.6946701192  LPSA29    36             27.0000000000
     32188      1044  BMANNA    H62            21.8566716245      -32.6510632788      119.7045442506  LPSA29    36             27.0000000000
     32189      1044  BMANNA    O6             20.8590644373      -30.7966491078      120.0914698020  LPSA29    36             27.0000000000
     32190      1044  BMANNA    HO6            20.3259799074      -31.3763932878      120.6476247167  LPSA29    36             27.0000000000
     32191      1045  ECLIPA    HB6S           29.5888747869       32.4935596172       20.4612168218  LPSA30    1               0.0000000000
     32192      1045  ECLIPA    OB6            30.2192200817       31.0461031697       21.7140249152  LPSA30    1               0.0000000000
     32193      1045  ECLIPA    CB6            30.5276420509       32.0738743371       20.7042159014  LPSA30    1               0.0000000000
     32194      1045  ECLIPA    HB6R           31.2944353550       32.7405929060       21.0541931349  LPSA30    1               0.0000000000
     32195      1045  ECLIPA    CB5            31.1856543574       31.4575767117       19.3988764877  LPSA30    1               0.0000000000
     32196      1045  ECLIPA    OB5            30.2311988014       30.4043565264       18.9716901872  LPSA30    1               0.0000000000
     32197      1045  ECLIPA    HB5            32.0988238558       30.9610004140       19.7771798410  LPSA30    1               0.0000000000
     32198      1045  ECLIPA    CB1            30.7167604345       29.7585908815       17.7717324898  LPSA30    1               0.0000000000
     32199      1045  ECLIPA    HB1            31.7069217755       29.2687581026       17.9003641080  LPSA30    1               0.0000000000
     32200      1045  ECLIPA    OA6            29.7957532693       28.8110400056       17.3217246577  LPSA30    1               0.0000000000
     32201      1045  ECLIPA    CA6            28.3884879648       29.0098391174       17.5745106853  LPSA30    1               0.0000000000
     32202      1045  ECLIPA    HA6R           28.2117799098       30.0945155708       17.7226451425  LPSA30    1               0.0000000000
     32203      1045  ECLIPA    HA6S           28.0904298405       28.3178536910       18.4598965841  LPSA30    1               0.0000000000
     32204      1045  ECLIPA    CB4            31.4364098727       32.5299271239       18.3206521937  LPSA30    1               0.0000000000
     32205      1045  ECLIPA    HB4            30.4904119661       33.0203326408       18.0085584641  LPSA30    1               0.0000000000
     32206      1045  ECLIPA    OB4            32.4942916584       33.3233898527       18.9017319965  LPSA30    1               0.0000000000
     32207      1045  ECLIPA    PB             32.2000059816       34.8489594429       19.3234616795  LPSA30    1               0.0000000000
     32208      1045  ECLIPA    OPB4           33.0689859682       35.1532614603       20.5579515876  LPSA30    1               0.0000000000
     32209      1045  ECLIPA    OPB3           30.6910207153       34.7759121631       19.6614545037  LPSA30    1               0.0000000000
     32210      1045  ECLIPA    OPB2           32.4485971301       35.7198344970       18.0829495795  LPSA30    1               0.0000000000
     32211      1045  ECLIPA    CB3            31.9310391029       31.7853224491       17.0955893951  LPSA30    1               0.0000000000
     32212      1045  ECLIPA    OB3            32.1388918519       32.5859422592       15.9186528231  LPSA30    1               0.0000000000
     32213      1045  ECLIPA    HB3            32.8072372944       31.1066537152       17.3284540628  LPSA30    1               0.0000000000
     32214      1045  ECLIPA    C71            33.3178611542       33.0614721288       15.6929469039  LPSA30    1               0.0000000000
     32215      1045  ECLIPA    O71            34.3271289889       32.7882901832       16.3832172580  LPSA30    1               0.0000000000
     32216      1045  ECLIPA    C72            33.2612580996       33.8442045746       14.3548430386  LPSA30    1               0.0000000000
     32217      1045  ECLIPA    H72R           32.9108278290       33.1673856926       13.5774555414  LPSA30    1               0.0000000000
     32218      1045  ECLIPA    H72S           34.3103039987       34.3201850712       14.1464415926  LPSA30    1               0.0000000000
     32219      1045  ECLIPA    CB2            30.8682680068       30.7520155235       16.6720734084  LPSA30    1               0.0000000000
     32220      1045  ECLIPA    HB2            29.8653981062       31.3612899993       16.5298168153  LPSA30    1               0.0000000000
     32221      1045  ECLIPA    NB2            31.2483418013       29.9989993242       15.4577284722  LPSA30    1               0.0000000000
     32222      1045  ECLIPA    HNB2           31.8283296200       29.1974963613       15.5965609326  LPSA30    1               0.0000000000
     32223      1045  ECLIPA    CA4            28.1076313103       27.2748249220       15.7929312798  LPSA30    1               0.0000000000
     32224      1045  ECLIPA    HA4            29.1806586891       27.3801852298       15.4903430209  LPSA30    1               0.0000000000
     32225      1045  ECLIPA    OA4            27.9932298785       26.3165986625       16.8012065728  LPSA30    1               0.0000000000
     32226      1045  ECLIPA    HOA4           28.3522459822       26.5986547901       17.5928838569  LPSA30    1               0.0000000000
     32227      1045  ECLIPA    CA5            27.6355848383       28.5502299165       16.3547806008  LPSA30    1               0.0000000000
     32228      1045  ECLIPA    HA5            26.4955088981       28.6462148066       16.5880746347  LPSA30    1               0.0000000000
     32229      1045  ECLIPA    OA5            27.8598825543       29.5676293555       15.3689671688  LPSA30    1               0.0000000000
     32230      1045  ECLIPA    CA1            27.1653163739       29.2619812806       14.1076640156  LPSA30    1               0.0000000000
     32231      1045  ECLIPA    HA1            27.7192646477       29.9507467380       13.4118188108  LPSA30    1               0.0000000000
     32232      1045  ECLIPA    OA1            25.7943145684       29.6075422717       14.1359876212  LPSA30    1               0.0000000000
     32233      1045  ECLIPA    OPA2           24.5989397913       30.6134329451       15.9734101064  LPSA30    1               0.0000000000
     32234      1045  ECLIPA    OPA3           26.4235861892       31.9784971673       14.8300177673  LPSA30    1               0.0000000000
     32235      1045  ECLIPA    OPA4           24.3129120041       31.5386995552       13.6615320840  LPSA30    1               0.0000000000
     32236      1045  ECLIPA    PA             25.2961156261       31.0002005586       14.6765383084  LPSA30    1               0.0000000000
     32237      1045  ECLIPA    CA3            27.3796289746       26.8613351967       14.5219348229  LPSA30    1               0.0000000000
     32238      1045  ECLIPA    HA3            26.2562385317       26.6693980673       14.7377032538  LPSA30    1               0.0000000000
     32239      1045  ECLIPA    OA3            27.8684246183       25.5603761551       14.2498111976  LPSA30    1               0.0000000000
     32240      1045  ECLIPA    C31            29.0147176327       25.4888416787       13.5006246295  LPSA30    1               0.0000000000
     32241      1045  ECLIPA    O31            29.1013755682       25.6310838391       12.2941239937  LPSA30    1               0.0000000000
     32242      1045  ECLIPA    C32            30.0676017166       24.6857395711       14.2780289507  LPSA30    1               0.0000000000
     32243      1045  ECLIPA    H32R           30.2806438558       23.7574742965       13.7149713840  LPSA30    1               0.0000000000
     32244      1045  ECLIPA    H32S           29.6966408614       24.4527252011       15.2729523512  LPSA30    1               0.0000000000
     32245      1045  ECLIPA    CA2            27.6171015225       27.9551610735       13.4984733916  LPSA30    1               0.0000000000
     32246      1045  ECLIPA    HA2            28.6988369184       28.0762996764       13.3982259915  LPSA30    1               0.0000000000
     32247      1045  ECLIPA    NA2            26.9478076979       27.7092971783       12.2035087571  LPSA30    1               0.0000000000
     32248      1045  ECLIPA    HNA2           26.5621295297       26.8261590027       12.0865030408  LPSA30    1               0.0000000000
     32249      1045  ECLIPA    C73            32.3170857810       35.0182868109       14.3319064372  LPSA30    1               0.0000000000
     32250      1045  ECLIPA    H73R           32.3833127628       35.6318251929       15.2227416964  LPSA30    1               0.0000000000
     32251      1045  ECLIPA    O73            30.9784058294       34.4671402094       14.2644256719  LPSA30    1               0.0000000000
     32252      1045  ECLIPA    C81            29.9018246593       35.0116468204       14.8555734565  LPSA30    1               0.0000000000
     32253      1045  ECLIPA    O81            30.0717200118       35.9733861118       15.6690894779  LPSA30    1               0.0000000000
     32254      1045  ECLIPA    C82            28.5894294437       34.3780975789       14.3536111794  LPSA30    1               0.0000000000
     32255      1045  ECLIPA    H82R           27.7242863410       34.8023184121       14.8531840528  LPSA30    1               0.0000000000
     32256      1045  ECLIPA    H82S           28.5724147728       33.2783531149       14.5323473422  LPSA30    1               0.0000000000
     32257      1045  ECLIPA    C83            28.4539999797       34.5874115630       12.8301722806  LPSA30    1               0.0000000000
     32258      1045  ECLIPA    H83R           29.0609702520       33.8062935201       12.2351841548  LPSA30    1               0.0000000000
     32259      1045  ECLIPA    H83S           28.9610716281       35.5238796824       12.5911296392  LPSA30    1               0.0000000000
     32260      1045  ECLIPA    C84            27.0117573975       34.4345660770       12.3050927261  LPSA30    1               0.0000000000
     32261      1045  ECLIPA    H84R           26.4486797255       35.3358817830       12.5767117503  LPSA30    1               0.0000000000
     32262      1045  ECLIPA    H84S           26.6750384014       33.5163260065       12.7369555497  LPSA30    1               0.0000000000
     32263      1045  ECLIPA    C85            26.9924667762       34.2530296747       10.7695484051  LPSA30    1               0.0000000000
     32264      1045  ECLIPA    H85R           27.8025228764       33.5454775401       10.5503608829  LPSA30    1               0.0000000000
     32265      1045  ECLIPA    H85S           27.2798015983       35.2102736912       10.2367999955  LPSA30    1               0.0000000000
     32266      1045  ECLIPA    C86            25.6654409367       33.5923304266       10.3034592726  LPSA30    1               0.0000000000
     32267      1045  ECLIPA    H86R           24.8673145238       34.3455830434        9.9932223571  LPSA30    1               0.0000000000
     32268      1045  ECLIPA    H86S           25.2225909504       32.9980829149       11.0807540114  LPSA30    1               0.0000000000
     32269      1045  ECLIPA    C87            25.8923175653       32.5444797544        9.1601018854  LPSA30    1               0.0000000000
     32270      1045  ECLIPA    H87R           24.9511721412       32.1372811575        8.8049419625  LPSA30    1               0.0000000000
     32271      1045  ECLIPA    H87S           26.4670832242       31.6572491069        9.5406723883  LPSA30    1               0.0000000000
     32272      1045  ECLIPA    C88            26.7198000713       33.1090250522        8.0318999685  LPSA30    1               0.0000000000
     32273      1045  ECLIPA    H88R           27.8113447681       33.1860736250        8.3479828359  LPSA30    1               0.0000000000
     32274      1045  ECLIPA    H88S           26.5030659197       34.2117043916        7.9254521495  LPSA30    1               0.0000000000
     32275      1045  ECLIPA    C89            26.6844227679       32.2736821338        6.7101000712  LPSA30    1               0.0000000000
     32276      1045  ECLIPA    H89R           26.3157104228       31.2382819334        6.8746682686  LPSA30    1               0.0000000000
     32277      1045  ECLIPA    H89S           27.6371719318       32.1514035667        6.2317001698  LPSA30    1               0.0000000000
     32278      1045  ECLIPA    C810           25.7825148100       33.0115090992        5.7047246593  LPSA30    1               0.0000000000
     32279      1045  ECLIPA    H810R          25.9266547566       34.0637478428        6.0108430704  LPSA30    1               0.0000000000
     32280      1045  ECLIPA    H810S          24.7639578129       32.7094719213        5.8554647029  LPSA30    1               0.0000000000
     32281      1045  ECLIPA    C811           26.1231187063       32.8096322698        4.2179945741  LPSA30    1               0.0000000000
     32282      1045  ECLIPA    H811R          25.3728912573       33.0244442611        3.5081125689  LPSA30    1               0.0000000000
     32283      1045  ECLIPA    H811S          26.5008185273       31.7205231437        4.1819101877  LPSA30    1               0.0000000000
     32284      1045  ECLIPA    C812           27.4017365126       33.5159295453        3.7413673409  LPSA30    1               0.0000000000
     32285      1045  ECLIPA    H812R          27.6115459329       33.1384207339        2.6403157337  LPSA30    1               0.0000000000
     32286      1045  ECLIPA    H812S          28.2433561311       33.4100377665        4.4144737196  LPSA30    1               0.0000000000
     32287      1045  ECLIPA    C813           27.2941595878       35.0507040822        3.6785234959  LPSA30    1               0.0000000000
     32288      1045  ECLIPA    H813R          26.4898844440       35.2796839414        2.9398073555  LPSA30    1               0.0000000000
     32289      1045  ECLIPA    H813S          26.9974990213       35.5756786755        4.6616087352  LPSA30    1               0.0000000000
     32290      1045  ECLIPA    C814           28.5379727839       35.7253090496        3.1377409857  LPSA30    1               0.0000000000
     32291      1045  ECLIPA    H814R          29.0047599963       35.2546738564        2.1719074593  LPSA30    1               0.0000000000
     32292      1045  ECLIPA    H814S          29.3125177094       35.7291057244        3.9166242729  LPSA30    1               0.0000000000
     32293      1045  ECLIPA    H814T          28.3353935864       36.7936332083        2.8964685373  LPSA30    1               0.0000000000
     32294      1045  ECLIPA    C74            32.3806883708       35.9923971691       13.1792855021  LPSA30    1               0.0000000000
     32295      1045  ECLIPA    H74R           33.2961410024       36.5513602512       12.9935747315  LPSA30    1               0.0000000000
     32296      1045  ECLIPA    H74S           31.5404427679       36.7814613468       13.3086690609  LPSA30    1               0.0000000000
     32297      1045  ECLIPA    C75            31.9596996423       35.2923057493       11.8151371119  LPSA30    1               0.0000000000
     32298      1045  ECLIPA    H75R           31.3876580521       36.0855405217       11.2107603889  LPSA30    1               0.0000000000
     32299      1045  ECLIPA    H75S           31.2670574144       34.4507101656       12.0082837783  LPSA30    1               0.0000000000
     32300      1045  ECLIPA    C76            33.1238647547       34.7765132728       10.9251453624  LPSA30    1               0.0000000000
     32301      1045  ECLIPA    H76R           33.4909513919       33.8043058448       11.3555905686  LPSA30    1               0.0000000000
     32302      1045  ECLIPA    H76S           34.0659127885       35.4659126165       10.9731137071  LPSA30    1               0.0000000000
     32303      1045  ECLIPA    C77            32.8348328712       34.5539393631        9.4191603634  LPSA30    1               0.0000000000
     32304      1045  ECLIPA    H77R           32.5463610921       35.5043127962        9.0408775908  LPSA30    1               0.0000000000
     32305      1045  ECLIPA    H77S           31.9023090155       33.9585986944        9.2852383479  LPSA30    1               0.0000000000
     32306      1045  ECLIPA    C78            34.0371224315       33.8057141808        8.8297405752  LPSA30    1               0.0000000000
     32307      1045  ECLIPA    H78R           34.9357178289       34.3280620184        9.1562620580  LPSA30    1               0.0000000000
     32308      1045  ECLIPA    H78S           33.9954577143       32.7924469415        9.3169442960  LPSA30    1               0.0000000000
     32309      1045  ECLIPA    C79            33.8668880061       33.4584375078        7.2570767761  LPSA30    1               0.0000000000
     32310      1045  ECLIPA    H79R           33.4837191963       32.3950326788        7.1763205913  LPSA30    1               0.0000000000
     32311      1045  ECLIPA    H79S           34.8549039192       33.4965440170        6.7882549413  LPSA30    1               0.0000000000
     32312      1045  ECLIPA    C710           33.1335330768       34.4769564362        6.3785096220  LPSA30    1               0.0000000000
     32313      1045  ECLIPA    H710R          32.1263429246       34.5789344328        6.8460783027  LPSA30    1               0.0000000000
     32314      1045  ECLIPA    H710S          33.6173168299       35.3735113631        6.4843026416  LPSA30    1               0.0000000000
     32315      1045  ECLIPA    C711           32.9577628162       34.0418117390        4.9384125046  LPSA30    1               0.0000000000
     32316      1045  ECLIPA    H711R          33.9807774079       33.9538874592        4.5670708729  LPSA30    1               0.0000000000
     32317      1045  ECLIPA    H711S          32.3897607782       33.0769078947        4.9306188492  LPSA30    1               0.0000000000
     32318      1045  ECLIPA    C712           32.1446040223       35.1002579060        4.2148670498  LPSA30    1               0.0000000000
     32319      1045  ECLIPA    H712R          32.7065946341       36.0355864954        4.3130666899  LPSA30    1               0.0000000000
     32320      1045  ECLIPA    H712S          31.2545478172       35.2343217502        4.8522839389  LPSA30    1               0.0000000000
     32321      1045  ECLIPA    C713           31.7699757879       34.6503339087        2.7357390519  LPSA30    1               0.0000000000
     32322      1045  ECLIPA    H713R          31.1378076547       33.7302428317        2.8800411466  LPSA30    1               0.0000000000
     32323      1045  ECLIPA    H713S          31.1822714070       35.5280545709        2.2750064041  LPSA30    1               0.0000000000
     32324      1045  ECLIPA    C714           33.0444148436       34.4826495634        1.8879763961  LPSA30    1               0.0000000000
     32325      1045  ECLIPA    H714R          33.5713866828       35.4390680353        1.7626189762  LPSA30    1               0.0000000000
     32326      1045  ECLIPA    H714S          33.6496008739       33.6257178167        2.2081901572  LPSA30    1               0.0000000000
     32327      1045  ECLIPA    H714T          32.6245082987       34.2606845383        0.9249202435  LPSA30    1               0.0000000000
     32328      1045  ECLIPA    C51            31.0197918460       30.5125894967       14.2380633031  LPSA30    1               0.0000000000
     32329      1045  ECLIPA    O51            30.1611857761       31.4141033518       14.1304636378  LPSA30    1               0.0000000000
     32330      1045  ECLIPA    C52            31.8856659811       30.0360267032       13.0157035712  LPSA30    1               0.0000000000
     32331      1045  ECLIPA    H52R           32.8191734658       30.5666691455       12.8950255930  LPSA30    1               0.0000000000
     32332      1045  ECLIPA    H52S           32.0622611344       29.0041035713       13.2222025935  LPSA30    1               0.0000000000
     32333      1045  ECLIPA    C53            30.9431768635       30.0610821651       11.7526064304  LPSA30    1               0.0000000000
     32334      1045  ECLIPA    H53R           29.8941070241       29.9542107943       12.0082431084  LPSA30    1               0.0000000000
     32335      1045  ECLIPA    O53            31.4884658779       29.0917370095       10.8431816314  LPSA30    1               0.0000000000
     32336      1045  ECLIPA    C61            30.7407912305       28.0528297608       10.5090573566  LPSA30    1               0.0000000000
     32337      1045  ECLIPA    O61            29.6233406199       27.8466264119       10.8659713306  LPSA30    1               0.0000000000
     32338      1045  ECLIPA    C62            31.5429275529       27.1360208142        9.5765835255  LPSA30    1               0.0000000000
     32339      1045  ECLIPA    H62R           32.2272649968       26.5386008328       10.2152837125  LPSA30    1               0.0000000000
     32340      1045  ECLIPA    H62S           32.2637862792       27.7953122962        9.0470049452  LPSA30    1               0.0000000000
     32341      1045  ECLIPA    C63            30.6167657350       26.2745051170        8.6803029234  LPSA30    1               0.0000000000
     32342      1045  ECLIPA    H63R           29.8420985689       26.9482635617        8.2798705976  LPSA30    1               0.0000000000
     32343      1045  ECLIPA    H63S           30.0725752377       25.4548386420        9.3252199642  LPSA30    1               0.0000000000
     32344      1045  ECLIPA    C64            31.2202294565       25.5693982617        7.5279067597  LPSA30    1               0.0000000000
     32345      1045  ECLIPA    H64R           30.4819715894       24.8962718922        6.9620099216  LPSA30    1               0.0000000000
     32346      1045  ECLIPA    H64S           32.0777451066       24.9380489746        7.9657393466  LPSA30    1               0.0000000000
     32347      1045  ECLIPA    C65            31.8574427273       26.6100827849        6.5414948800  LPSA30    1               0.0000000000
     32348      1045  ECLIPA    H65R           32.5891291505       27.0858953258        7.2423230371  LPSA30    1               0.0000000000
     32349      1045  ECLIPA    H65S           31.0705860005       27.3096756868        6.1828980290  LPSA30    1               0.0000000000
     32350      1045  ECLIPA    C66            32.5543540067       26.0425194469        5.2222643966  LPSA30    1               0.0000000000
     32351      1045  ECLIPA    H66R           33.3635273856       25.3882124872        5.5395647249  LPSA30    1               0.0000000000
     32352      1045  ECLIPA    H66S           32.9651286048       27.0119575023        4.8113963288  LPSA30    1               0.0000000000
     32353      1045  ECLIPA    C67            31.6956814182       25.3882153746        4.1696839457  LPSA30    1               0.0000000000
     32354      1045  ECLIPA    H67R           31.0400791874       24.6164560063        4.5058181646  LPSA30    1               0.0000000000
     32355      1045  ECLIPA    H67S           32.3463382800       24.9737838826        3.3478820057  LPSA30    1               0.0000000000
     32356      1045  ECLIPA    C68            30.7134832593       26.3188190849        3.5077075145  LPSA30    1               0.0000000000
     32357      1045  ECLIPA    H68R           31.0991596092       27.2410452921        3.0112508411  LPSA30    1               0.0000000000
     32358      1045  ECLIPA    H68S           30.0260457021       26.5231857328        4.3087918325  LPSA30    1               0.0000000000
     32359      1045  ECLIPA    C69            30.0860869073       25.6307477134        2.2963532923  LPSA30    1               0.0000000000
     32360      1045  ECLIPA    H69R           30.0464706324       24.5245523710        2.3203210098  LPSA30    1               0.0000000000
     32361      1045  ECLIPA    H69S           30.7734714972       25.7970463301        1.4693744207  LPSA30    1               0.0000000000
     32362      1045  ECLIPA    C610           28.7386413266       26.1432846218        1.9396251084  LPSA30    1               0.0000000000
     32363      1045  ECLIPA    H610R          28.7061265183       27.2612029607        2.0603347121  LPSA30    1               0.0000000000
     32364      1045  ECLIPA    H610S          27.9730902941       25.7653054567        2.6933643884  LPSA30    1               0.0000000000
     32365      1045  ECLIPA    C611           28.2403100274       25.6634681404        0.5312153135  LPSA30    1               0.0000000000
     32366      1045  ECLIPA    H611R          28.2347311811       24.5568008267        0.5735373188  LPSA30    1               0.0000000000
     32367      1045  ECLIPA    H611S          27.1859910565       25.8219885206        0.3609598123  LPSA30    1               0.0000000000
     32368      1045  ECLIPA    C612           29.0647402569       26.2933627977       -0.5788949292  LPSA30    1               0.0000000000
     32369      1045  ECLIPA    H612R          28.8360698393       27.3958298326       -0.6060949542  LPSA30    1               0.0000000000
     32370      1045  ECLIPA    H612S          30.1277490372       26.2390770226       -0.3132441764  LPSA30    1               0.0000000000
     32371      1045  ECLIPA    H612T          28.8393390422       25.8600814315       -1.5574606966  LPSA30    1               0.0000000000
     32372      1045  ECLIPA    C54            31.1564604327       31.4733369656       11.1776054589  LPSA30    1               0.0000000000
     32373      1045  ECLIPA    H54R           32.2442455124       31.5772542790       10.8869876633  LPSA30    1               0.0000000000
     32374      1045  ECLIPA    H54S           30.9972771697       32.2355115900       11.9574517429  LPSA30    1               0.0000000000
     32375      1045  ECLIPA    C55            30.3126133404       31.9248715197        9.9916770240  LPSA30    1               0.0000000000
     32376      1045  ECLIPA    H55R           30.3416818423       33.0188338547        9.7856946516  LPSA30    1               0.0000000000
     32377      1045  ECLIPA    H55S           29.2218861422       31.6706929541       10.2436295858  LPSA30    1               0.0000000000
     32378      1045  ECLIPA    C56            30.8917881332       31.2977922256        8.7515486822  LPSA30    1               0.0000000000
     32379      1045  ECLIPA    H56R           30.8608894822       30.1685669989        8.8382497819  LPSA30    1               0.0000000000
     32380      1045  ECLIPA    H56S           31.8673098337       31.5625415473        8.4741334449  LPSA30    1               0.0000000000
     32381      1045  ECLIPA    C57            30.0264752868       31.4065482265        7.4395707935  LPSA30    1               0.0000000000
     32382      1045  ECLIPA    H57R           29.7702942995       32.4359658692        7.1827428724  LPSA30    1               0.0000000000
     32383      1045  ECLIPA    H57S           29.0429890962       30.8968065760        7.5196553379  LPSA30    1               0.0000000000
     32384      1045  ECLIPA    C58            30.7492364718       30.6764898940        6.2350750625  LPSA30    1               0.0000000000
     32385      1045  ECLIPA    H58R           31.8460702897       30.9261518897        6.2095761879  LPSA30    1               0.0000000000
     32386      1045  ECLIPA    H58S           30.8118931523       29.5911222058        6.5224540661  LPSA30    1               0.0000000000
     32387      1045  ECLIPA    C59            30.1128344379       31.0492269981        4.8667186835  LPSA30    1               0.0000000000
     32388      1045  ECLIPA    H59R           30.1395987991       32.1339790320        4.6589989540  LPSA30    1               0.0000000000
     32389      1045  ECLIPA    H59S           29.0869520243       30.6912286870        5.0825555512  LPSA30    1               0.0000000000
     32390      1045  ECLIPA    C510           30.8912535592       30.4620164538        3.6752379292  LPSA30    1               0.0000000000
     32391      1045  ECLIPA    H510R          31.2073819638       29.3691563992        3.7937959224  LPSA30    1               0.0000000000
     32392      1045  ECLIPA    H510S          31.8860968793       31.0630346404        3.4613250382  LPSA30    1               0.0000000000
     32393      1045  ECLIPA    C511           30.1941866838       30.5382236428        2.3004848829  LPSA30    1               0.0000000000
     32394      1045  ECLIPA    H511R          29.4781318635       29.6947049469        2.2679211996  LPSA30    1               0.0000000000
     32395      1045  ECLIPA    H511S          29.5614484771       31.4668214888        2.1940961976  LPSA30    1               0.0000000000
     32396      1045  ECLIPA    C512           31.0935363863       30.3857909392        1.0189424135  LPSA30    1               0.0000000000
     32397      1045  ECLIPA    H512R          30.5149252011       30.6815916192        0.0815295424  LPSA30    1               0.0000000000
     32398      1045  ECLIPA    H512S          31.9762912941       31.0303317508        1.1129704346  LPSA30    1               0.0000000000
     32399      1045  ECLIPA    C513           31.4874842746       28.8848448132        0.6457389972  LPSA30    1               0.0000000000
     32400      1045  ECLIPA    H513R          30.5649635056       28.2411965060        0.5010832175  LPSA30    1               0.0000000000
     32401      1045  ECLIPA    H513S          32.0148018197       28.4500323029        1.4088770719  LPSA30    1               0.0000000000
     32402      1045  ECLIPA    C514           32.2386621949       28.8403295254       -0.6567184026  LPSA30    1               0.0000000000
     32403      1045  ECLIPA    H514R          33.1032338190       29.5031222292       -0.6273993866  LPSA30    1               0.0000000000
     32404      1045  ECLIPA    H514S          32.6437391996       27.8269980179       -0.7024724270  LPSA30    1               0.0000000000
     32405      1045  ECLIPA    H514T          31.5585635532       29.1166048455       -1.5427815912  LPSA30    1               0.0000000000
     32406      1045  ECLIPA    C33            31.4978656655       25.3615443467       14.4880792826  LPSA30    1               0.0000000000
     32407      1045  ECLIPA    H33R           32.1959966649       24.5509007422       14.8828993596  LPSA30    1               0.0000000000
     32408      1045  ECLIPA    O33            31.4351320180       26.3795390324       15.4699768821  LPSA30    1               0.0000000000
     32409      1045  ECLIPA    HO33           31.3476925632       25.9778898867       16.2926205744  LPSA30    1               0.0000000000
     32410      1045  ECLIPA    C34            32.1748512277       25.9572191697       13.2255459338  LPSA30    1               0.0000000000
     32411      1045  ECLIPA    H34R           31.5356028482       26.7235300863       12.8010908313  LPSA30    1               0.0000000000
     32412      1045  ECLIPA    H34S           32.2149368961       25.1695704268       12.3772221142  LPSA30    1               0.0000000000
     32413      1045  ECLIPA    C35            33.5751002492       26.5651723659       13.4256256262  LPSA30    1               0.0000000000
     32414      1045  ECLIPA    H35R           34.2550185209       25.7606023114       13.6963698038  LPSA30    1               0.0000000000
     32415      1045  ECLIPA    H35S           33.5360218637       27.2692690947       14.2668166019  LPSA30    1               0.0000000000
     32416      1045  ECLIPA    C36            34.2543258971       27.1834725256       12.1865608177  LPSA30    1               0.0000000000
     32417      1045  ECLIPA    H36R           33.3136115045       27.5698626370       11.7430812241  LPSA30    1               0.0000000000
     32418      1045  ECLIPA    H36S           34.7562898709       26.4504729339       11.4785220412  LPSA30    1               0.0000000000
     32419      1045  ECLIPA    C37            35.0732893899       28.4146649673       12.5255831563  LPSA30    1               0.0000000000
     32420      1045  ECLIPA    H37R           36.1645419454       27.9859025782       12.6765215637  LPSA30    1               0.0000000000
     32421      1045  ECLIPA    H37S           34.8104255389       28.8379015102       13.5128993321  LPSA30    1               0.0000000000
     32422      1045  ECLIPA    C38            35.1494249924       29.5159648555       11.4317274953  LPSA30    1               0.0000000000
     32423      1045  ECLIPA    H38R           34.2610213425       30.1687022910       11.4067421357  LPSA30    1               0.0000000000
     32424      1045  ECLIPA    H38S           35.9620351704       30.2058520047       11.7230999881  LPSA30    1               0.0000000000
     32425      1045  ECLIPA    C39            35.3015588374       28.9110164285       10.0213367345  LPSA30    1               0.0000000000
     32426      1045  ECLIPA    H39R           34.4785480624       28.1769480078        9.8128797222  LPSA30    1               0.0000000000
     32427      1045  ECLIPA    H39S           36.3386268040       28.4850885595        9.9697980947  LPSA30    1               0.0000000000
     32428      1045  ECLIPA    C310           35.3296650047       29.9041863224        8.8401719124  LPSA30    1               0.0000000000
     32429      1045  ECLIPA    H310R          36.2775465909       30.5224001569        9.0626900142  LPSA30    1               0.0000000000
     32430      1045  ECLIPA    H310S          34.4292781726       30.5833481525        8.8945759064  LPSA30    1               0.0000000000
     32431      1045  ECLIPA    C311           35.0966600293       29.2292839525        7.5676235846  LPSA30    1               0.0000000000
     32432      1045  ECLIPA    H311R          35.6151063058       28.2370030887        7.5507520616  LPSA30    1               0.0000000000
     32433      1045  ECLIPA    H311S          34.0161730555       29.0342005275        7.2851462164  LPSA30    1               0.0000000000
     32434      1045  ECLIPA    C312           35.5324919853       30.0413907782        6.3280121142  LPSA30    1               0.0000000000
     32435      1045  ECLIPA    H312R          35.3513613275       31.1344978516        6.4861373960  LPSA30    1               0.0000000000
     32436      1045  ECLIPA    H312S          36.6286961948       29.8709307527        6.1820758986  LPSA30    1               0.0000000000
     32437      1045  ECLIPA    C313           34.8460101020       29.6156653740        4.9895779706  LPSA30    1               0.0000000000
     32438      1045  ECLIPA    H313R          35.2903682028       28.6915010997        4.7825120466  LPSA30    1               0.0000000000
     32439      1045  ECLIPA    H313S          33.7444239644       29.4545029319        5.1572698764  LPSA30    1               0.0000000000
     32440      1045  ECLIPA    C314           35.0226657266       30.5162890084        3.8116661598  LPSA30    1               0.0000000000
     32441      1045  ECLIPA    H314R          36.1204130315       30.6441437724        3.6067793993  LPSA30    1               0.0000000000
     32442      1045  ECLIPA    H314S          34.5401858262       30.1948124813        2.8849361441  LPSA30    1               0.0000000000
     32443      1045  ECLIPA    H314T          34.6345747535       31.5693275057        4.0446347774  LPSA30    1               0.0000000000
     32444      1045  ECLIPA    C11            26.6729150064       28.6071450392       11.2900808200  LPSA30    1               0.0000000000
     32445      1045  ECLIPA    O11            27.1399620130       29.7294265194       11.1394597694  LPSA30    1               0.0000000000
     32446      1045  ECLIPA    C12            25.5568399418       28.1938671762       10.2853014675  LPSA30    1               0.0000000000
     32447      1045  ECLIPA    H12R           24.6054367102       28.7497050558       10.4852637814  LPSA30    1               0.0000000000
     32448      1045  ECLIPA    H12S           25.4088781770       27.1069200766       10.5222272274  LPSA30    1               0.0000000000
     32449      1045  ECLIPA    C13            25.9083624120       28.3425260865        8.8110583416  LPSA30    1               0.0000000000
     32450      1045  ECLIPA    H13R           26.4456792096       29.3391047348        8.5839874118  LPSA30    1               0.0000000000
     32451      1045  ECLIPA    O13            24.6266939715       28.3836776660        8.1311342176  LPSA30    1               0.0000000000
     32452      1045  ECLIPA    HO13           24.7154316721       28.8247436869        7.3064966676  LPSA30    1               0.0000000000
     32453      1045  ECLIPA    C14            26.8274366751       27.1964404925        8.4581579993  LPSA30    1               0.0000000000
     32454      1045  ECLIPA    H14R           26.5195332689       26.2131082699        8.9706443184  LPSA30    1               0.0000000000
     32455      1045  ECLIPA    H14S           27.8586867528       27.5089696208        8.7243868424  LPSA30    1               0.0000000000
     32456      1045  ECLIPA    C15            26.8777880544       26.8746228018        6.9526486677  LPSA30    1               0.0000000000
     32457      1045  ECLIPA    H15R           25.8868136268       26.7465837027        6.5500123177  LPSA30    1               0.0000000000
     32458      1045  ECLIPA    H15S           27.4735709189       25.9634489851        6.8782608049  LPSA30    1               0.0000000000
     32459      1045  ECLIPA    C16            27.5324344088       28.0352071257        6.1622847334  LPSA30    1               0.0000000000
     32460      1045  ECLIPA    H16R           28.6777799212       28.0219995430        6.2733383262  LPSA30    1               0.0000000000
     32461      1045  ECLIPA    H16S           27.3296521933       28.9666559661        6.7182496574  LPSA30    1               0.0000000000
     32462      1045  ECLIPA    C17            27.1650413675       28.0364174277        4.6801229578  LPSA30    1               0.0000000000
     32463      1045  ECLIPA    H17R           27.2781733601       26.9384352454        4.4246758429  LPSA30    1               0.0000000000
     32464      1045  ECLIPA    H17S           27.8341968627       28.5795038833        4.0046542873  LPSA30    1               0.0000000000
     32465      1045  ECLIPA    C18            25.7587049275       28.5188208673        4.4504458171  LPSA30    1               0.0000000000
     32466      1045  ECLIPA    H18R           25.2020139318       27.8835258552        5.0865821920  LPSA30    1               0.0000000000
     32467      1045  ECLIPA    H18S           25.7062112419       29.5973726335        4.7749867078  LPSA30    1               0.0000000000
     32468      1045  ECLIPA    C19            25.3312374672       28.3892974586        3.0097966450  LPSA30    1               0.0000000000
     32469      1045  ECLIPA    H19R           24.2809105245       28.6299435901        2.9245509529  LPSA30    1               0.0000000000
     32470      1045  ECLIPA    H19S           25.5208349953       27.3336990141        2.6238151240  LPSA30    1               0.0000000000
     32471      1045  ECLIPA    C110           26.0659147496       29.4083189990        2.1045801788  LPSA30    1               0.0000000000
     32472      1045  ECLIPA    H110R          26.0387398411       30.4458375670        2.4416701971  LPSA30    1               0.0000000000
     32473      1045  ECLIPA    H110S          27.0970539698       28.9948418451        2.1583327743  LPSA30    1               0.0000000000
     32474      1045  ECLIPA    C111           25.5430716490       29.2819695877        0.7563571155  LPSA30    1               0.0000000000
     32475      1045  ECLIPA    H111R          25.3845643170       28.2258732679        0.3999767799  LPSA30    1               0.0000000000
     32476      1045  ECLIPA    H111S          24.5639906860       29.6834310520        0.7977177860  LPSA30    1               0.0000000000
     32477      1045  ECLIPA    C112           26.3281280128       30.0835109541       -0.2937360943  LPSA30    1               0.0000000000
     32478      1045  ECLIPA    H112R          26.2788468026       31.0904570743        0.1973446929  LPSA30    1               0.0000000000
     32479      1045  ECLIPA    H112S          27.4009441277       29.8891829412       -0.2177998937  LPSA30    1               0.0000000000
     32480      1045  ECLIPA    C113           25.9209051026       29.7901037179       -1.7468031795  LPSA30    1               0.0000000000
     32481      1045  ECLIPA    H113R          26.2086558919       28.7389595860       -1.9802017524  LPSA30    1               0.0000000000
     32482      1045  ECLIPA    H113S          24.8314354038       29.7871976453       -1.8531093719  LPSA30    1               0.0000000000
     32483      1045  ECLIPA    C114           26.3484803728       30.7428712912       -2.8344928043  LPSA30    1               0.0000000000
     32484      1045  ECLIPA    H114R          26.1730475252       31.8139449303       -2.7829422503  LPSA30    1               0.0000000000
     32485      1045  ECLIPA    H114S          27.4591727715       30.6521474563       -2.9951089580  LPSA30    1               0.0000000000
     32486      1045  ECLIPA    H114T          25.7396160267       30.5532299671       -3.7399523103  LPSA30    1               0.0000000000
     32487      1046  AKDO      C1             32.4126556710       30.6696908050       22.4410509549  LPSA30    2               0.0000000000
     32488      1046  AKDO      O11            33.2869879159       31.6015059962       22.4913720772  LPSA30    2               0.0000000000
     32489      1046  AKDO      O12            32.5244273530       29.4644448166       22.0800765534  LPSA30    2               0.0000000000
     32490      1046  AKDO      C2             31.0068598028       31.0792803891       22.8913181237  LPSA30    2               0.0000000000
     32491      1046  AKDO      C6             29.7982819516       32.8985019302       23.8039205188  LPSA30    2               0.0000000000
     32492      1046  AKDO      H6             29.1751447986       32.9296457993       22.9487387861  LPSA30    2               0.0000000000
     32493      1046  AKDO      O6             31.1262759759       32.3535325021       23.4267274814  LPSA30    2               0.0000000000
     32494      1046  AKDO      C3             30.4600992132       30.2137449667       23.9587385105  LPSA30    2               0.0000000000
     32495      1046  AKDO      H31            31.0888058029       30.0784178513       24.7868435866  LPSA30    2               0.0000000000
     32496      1046  AKDO      H32            30.2220208835       29.1782729902       23.4151264596  LPSA30    2               0.0000000000
     32497      1046  AKDO      C4             29.0845850247       30.7198035780       24.3842593775  LPSA30    2               0.0000000000
     32498      1046  AKDO      H4             28.4063060083       30.8309775735       23.5563617270  LPSA30    2               0.0000000000
     32499      1046  AKDO      O4             28.5267029649       29.8243722865       25.3355834555  LPSA30    2               0.0000000000
     32500      1046  AKDO      C5             29.1171397254       32.0762240222       24.9292437177  LPSA30    2               0.0000000000
     32501      1046  AKDO      H5             28.0791829176       32.4942019007       25.0107888161  LPSA30    2               0.0000000000
     32502      1046  AKDO      O5             29.8811811251       32.0379343020       26.2083878813  LPSA30    2               0.0000000000
     32503      1046  AKDO      C7             29.8658396896       34.4451389559       24.1981149098  LPSA30    2               0.0000000000
     32504      1046  AKDO      H7             30.4769295603       34.5357538078       25.0939202098  LPSA30    2               0.0000000000
     32505      1046  AKDO      O7             28.5418911222       35.0222382579       24.3482682347  LPSA30    2               0.0000000000
     32506      1046  AKDO      HO7            28.2266156467       35.1489601413       23.4945166536  LPSA30    2               0.0000000000
     32507      1046  AKDO      C8             30.5501950220       35.1654211068       22.9864433882  LPSA30    2               0.0000000000
     32508      1046  AKDO      H81            31.5560748118       34.6864975415       22.9153150275  LPSA30    2               0.0000000000
     32509      1046  AKDO      H82            29.8676389973       34.9896999156       22.0745354517  LPSA30    2               0.0000000000
     32510      1046  AKDO      O8             30.7111211004       36.5990653069       23.3537996748  LPSA30    2               0.0000000000
     32511      1046  AKDO      HO8            31.5374907644       36.9336358342       22.9179804014  LPSA30    2               0.0000000000
     32512      1047  AKDO      C1             26.9471922192       28.9420643976       23.8027969005  LPSA30    3               1.0000000000
     32513      1047  AKDO      O11            27.3382595770       28.5969341818       22.6471489042  LPSA30    3               1.0000000000
     32514      1047  AKDO      O12            25.8592132283       29.5076949070       24.0656860145  LPSA30    3               1.0000000000
     32515      1047  AKDO      C2             27.8164739988       28.6458872026       25.0166033796  LPSA30    3               1.0000000000
     32516      1047  AKDO      C6             29.6838583773       27.3319625750       25.7688829792  LPSA30    3               1.0000000000
     32517      1047  AKDO      H6             30.2988662455       28.2662676559       25.9810553331  LPSA30    3               1.0000000000
     32518      1047  AKDO      O6             28.7823538350       27.5811111875       24.7076657818  LPSA30    3               1.0000000000
     32519      1047  AKDO      C3             27.0624286906       28.2652517427       26.3187707743  LPSA30    3               1.0000000000
     32520      1047  AKDO      H31            26.4566534938       27.2820381314       26.1504935106  LPSA30    3               1.0000000000
     32521      1047  AKDO      H32            26.3359057858       29.0425908251       26.5929217108  LPSA30    3               1.0000000000
     32522      1047  AKDO      C4             28.0845909287       28.0406191132       27.4036122013  LPSA30    3               1.0000000000
     32523      1047  AKDO      H4             28.7495434816       28.9097311876       27.4051754129  LPSA30    3               1.0000000000
     32524      1047  AKDO      O4             27.5823241374       27.8835527313       28.7388570077  LPSA30    3               1.0000000000
     32525      1047  AKDO      HO4            27.9147646152       28.5083151440       29.3717785514  LPSA30    3               1.0000000000
     32526      1047  AKDO      C5             28.9481422826       26.9826645844       27.0369167275  LPSA30    3               1.0000000000
     32527      1047  AKDO      H5             29.6554346120       26.7659314726       27.9236884022  LPSA30    3               1.0000000000
     32528      1047  AKDO      O5             28.2058705766       25.7630181848       26.8495261943  LPSA30    3               1.0000000000
     32529      1047  AKDO      HO5            27.5557957031       25.8839376260       26.1887877298  LPSA30    3               1.0000000000
     32530      1047  AKDO      C7             30.6043429863       26.2224670595       25.3258859863  LPSA30    3               1.0000000000
     32531      1047  AKDO      H7             30.0360081530       25.2661833100       25.1324849511  LPSA30    3               1.0000000000
     32532      1047  AKDO      O7             31.5971081445       26.0061255405       26.3661029982  LPSA30    3               1.0000000000
     32533      1047  AKDO      HO7            32.0869699364       25.1809043707       26.1647669547  LPSA30    3               1.0000000000
     32534      1047  AKDO      C8             31.3468194291       26.7144052217       24.1539635864  LPSA30    3               1.0000000000
     32535      1047  AKDO      H81            30.6540455982       26.9716850708       23.3419478721  LPSA30    3               1.0000000000
     32536      1047  AKDO      H82            32.0021526227       27.5885946531       24.2853144505  LPSA30    3               1.0000000000
     32537      1047  AKDO      O8             32.1826652877       25.6949149121       23.6541307456  LPSA30    3               1.0000000000
     32538      1047  AKDO      HO8            31.4693338081       25.1681030873       23.2473452835  LPSA30    3               1.0000000000
     32539      1048  AHEP      C1             29.4848140588       32.8791776277       27.2793229502  LPSA30    4               2.0000000000
     32540      1048  AHEP      H1             30.0006066581       33.8002206513       26.8517192453  LPSA30    4               2.0000000000
     32541      1048  AHEP      C5             27.2778863477       32.2044557438       28.0185271385  LPSA30    4               2.0000000000
     32542      1048  AHEP      H5             27.6026387322       31.1902206872       27.5619054335  LPSA30    4               2.0000000000
     32543      1048  AHEP      O5             28.0944696853       33.1914230682       27.3942805697  LPSA30    4               2.0000000000
     32544      1048  AHEP      C2             30.0168141291       32.7389505697       28.6827861277  LPSA30    4               2.0000000000
     32545      1048  AHEP      H2             31.0726063777       32.4527378313       28.7442425996  LPSA30    4               2.0000000000
     32546      1048  AHEP      O2             29.9056670033       33.9489593638       29.3407203943  LPSA30    4               2.0000000000
     32547      1048  AHEP      HO2            30.6789297337       34.0996118740       29.8507927467  LPSA30    4               2.0000000000
     32548      1048  AHEP      C3             29.2169297337       31.6933133904       29.4857672188  LPSA30    4               2.0000000000
     32549      1048  AHEP      H3             29.4018775263       30.6416825507       29.2269906369  LPSA30    4               2.0000000000
     32550      1048  AHEP      O3             29.5999444061       31.7197135550       30.7882097304  LPSA30    4               2.0000000000
     32551      1048  AHEP      C4             27.7543599428       32.0558454435       29.4546205599  LPSA30    4               2.0000000000
     32552      1048  AHEP      H4             27.4788704215       33.0049712044       29.9788637739  LPSA30    4               2.0000000000
     32553      1048  AHEP      O4             27.0154770509       31.0105537731       30.0145912217  LPSA30    4               2.0000000000
     32554      1048  AHEP      P4             26.2753271340       31.1298223691       31.4978499249  LPSA30    4               2.0000000000
     32555      1048  AHEP      OP42           26.3024770658       29.8073339534       32.1560374192  LPSA30    4               2.0000000000
     32556      1048  AHEP      OP43           24.9025565094       31.5258675182       31.0397938518  LPSA30    4               2.0000000000
     32557      1048  AHEP      OP44           26.9187681000       32.2971185201       32.3098937101  LPSA30    4               2.0000000000
     32558      1048  AHEP      C6             25.7490602812       32.4914566793       27.7982482844  LPSA30    4               2.0000000000
     32559      1048  AHEP      H6             25.2159928373       31.5339081709       28.0833143566  LPSA30    4               2.0000000000
     32560      1048  AHEP      O6             25.3737602291       33.5269022046       28.7103505027  LPSA30    4               2.0000000000
     32561      1048  AHEP      HO6            24.5522588390       33.2941605121       29.2203787365  LPSA30    4               2.0000000000
     32562      1048  AHEP      C7             25.3747477958       32.8321135119       26.3054198206  LPSA30    4               2.0000000000
     32563      1048  AHEP      H71            24.2442652959       32.8663410212       26.1576126064  LPSA30    4               2.0000000000
     32564      1048  AHEP      H72            25.9161900491       32.1374707478       25.6323487339  LPSA30    4               2.0000000000
     32565      1048  AHEP      O7             25.8086637308       34.1483094127       25.9755159574  LPSA30    4               2.0000000000
     32566      1048  AHEP      HO7            25.1514633875       34.7705049415       26.3256794122  LPSA30    4               2.0000000000
     32567      1049  AHEP      C1             30.1579321109       30.5528530101       31.4342177374  LPSA30    5               3.0000000000
     32568      1049  AHEP      H1             29.7643369993       29.6061508043       30.9794447437  LPSA30    5               3.0000000000
     32569      1049  AHEP      C5             32.2243272861       31.6361647337       31.9165413065  LPSA30    5               3.0000000000
     32570      1049  AHEP      H5             31.6742526908       32.5874346061       31.6031509785  LPSA30    5               3.0000000000
     32571      1049  AHEP      O5             31.5909146874       30.5252178989       31.3013865768  LPSA30    5               3.0000000000
     32572      1049  AHEP      C2             29.8743326862       30.4710173995       32.9718957084  LPSA30    5               3.0000000000
     32573      1049  AHEP      H2             28.7468312875       30.5610780224       33.0921707216  LPSA30    5               3.0000000000
     32574      1049  AHEP      O2             30.2849990892       29.2111198223       33.4691025827  LPSA30    5               3.0000000000
     32575      1049  AHEP      HO2            29.5261428511       28.6624707652       33.6403503244  LPSA30    5               3.0000000000
     32576      1049  AHEP      C3             30.5088286763       31.6738280416       33.7004304811  LPSA30    5               3.0000000000
     32577      1049  AHEP      H3             30.0827123043       32.6156829525       33.3375632548  LPSA30    5               3.0000000000
     32578      1049  AHEP      O3             30.3432369725       31.7067895466       35.1462238331  LPSA30    5               3.0000000000
     32579      1049  AHEP      C4             31.9762348026       31.5987287175       33.4524658705  LPSA30    5               3.0000000000
     32580      1049  AHEP      H4             32.4203569312       30.6412113143       33.8188816395  LPSA30    5               3.0000000000
     32581      1049  AHEP      O4             32.6014457621       32.7575618463       34.0881196202  LPSA30    5               3.0000000000
     32582      1049  AHEP      P4             33.6420967832       32.5674912260       35.2810123301  LPSA30    5               3.0000000000
     32583      1049  AHEP      OP42           33.9040119094       33.9539133018       35.8202965042  LPSA30    5               3.0000000000
     32584      1049  AHEP      OP43           34.9010970012       31.9565884162       34.6107506294  LPSA30    5               3.0000000000
     32585      1049  AHEP      OP44           33.0268588134       31.5846262435       36.2417033353  LPSA30    5               3.0000000000
     32586      1049  AHEP      C6             33.7100385762       31.7722881192       31.5493607386  LPSA30    5               3.0000000000
     32587      1049  AHEP      H6             34.1494122591       32.6996598423       31.9533288164  LPSA30    5               3.0000000000
     32588      1049  AHEP      O6             34.4423223230       30.6557215055       32.0428602265  LPSA30    5               3.0000000000
     32589      1049  AHEP      HO6            34.3422073522       29.8062856331       31.5367188277  LPSA30    5               3.0000000000
     32590      1049  AHEP      C7             33.8514472466       32.0011234088       30.0822725317  LPSA30    5               3.0000000000
     32591      1049  AHEP      H71            34.7342014996       32.6570088256       29.9169108581  LPSA30    5               3.0000000000
     32592      1049  AHEP      H72            32.9835614030       32.5059496393       29.6179339851  LPSA30    5               3.0000000000
     32593      1049  AHEP      O7             34.1923382806       30.7272372519       29.4957736452  LPSA30    5               3.0000000000
     32594      1050  AHEP      C1             33.1454920205       30.1287147835       28.7926622005  LPSA30    6               4.0000000000
     32595      1050  AHEP      H1             32.1531466290       30.6426947450       29.0422981953  LPSA30    6               4.0000000000
     32596      1050  AHEP      C5             34.5341427340       29.6034945839       26.9237617191  LPSA30    6               4.0000000000
     32597      1050  AHEP      H5             35.3791888512       30.0301059227       27.4818042043  LPSA30    6               4.0000000000
     32598      1050  AHEP      O5             33.3079837223       30.2148903338       27.3547530115  LPSA30    6               4.0000000000
     32599      1050  AHEP      C2             33.0174639111       28.6988771437       29.2397872647  LPSA30    6               4.0000000000
     32600      1050  AHEP      H2             32.8088921404       28.7177627404       30.3523091474  LPSA30    6               4.0000000000
     32601      1050  AHEP      O2             31.8688375626       28.0748044571       28.7267108980  LPSA30    6               4.0000000000
     32602      1050  AHEP      HO2            31.2999174431       27.9923819571       29.4669064354  LPSA30    6               4.0000000000
     32603      1050  AHEP      C3             34.3218469442       27.9609241504       28.8468391403  LPSA30    6               4.0000000000
     32604      1050  AHEP      H3             35.1314721526       28.4155132657       29.4311808254  LPSA30    6               4.0000000000
     32605      1050  AHEP      O3             34.3252079874       26.4979512032       29.2225362108  LPSA30    6               4.0000000000
     32606      1050  AHEP      HO3            34.7784826663       26.2632347203       29.9865592523  LPSA30    6               4.0000000000
     32607      1050  AHEP      C4             34.4716373313       28.1157476313       27.2761740859  LPSA30    6               4.0000000000
     32608      1050  AHEP      H4             33.7044441047       27.5260486664       26.7944950683  LPSA30    6               4.0000000000
     32609      1050  AHEP      O4             35.6707213234       27.4908441736       26.7938835778  LPSA30    6               4.0000000000
     32610      1050  AHEP      HO4            36.4038257479       28.1207716157       27.1589530594  LPSA30    6               4.0000000000
     32611      1050  AHEP      C6             34.8691995898       29.8915485172       25.4906533340  LPSA30    6               4.0000000000
     32612      1050  AHEP      H6             35.8539597943       29.4615096464       25.3442628137  LPSA30    6               4.0000000000
     32613      1050  AHEP      O6             34.0223022402       29.1190045960       24.6375675438  LPSA30    6               4.0000000000
     32614      1050  AHEP      HO6            33.5706506570       29.6771040021       23.9977784313  LPSA30    6               4.0000000000
     32615      1050  AHEP      C7             34.9786016352       31.3558898673       25.1799756221  LPSA30    6               4.0000000000
     32616      1050  AHEP      H71            35.3961732900       31.4467141789       24.1408078076  LPSA30    6               4.0000000000
     32617      1050  AHEP      H72            35.6797506540       31.7720934545       25.9252229174  LPSA30    6               4.0000000000
     32618      1050  AHEP      O7             33.7665632334       32.0468778006       25.2517430265  LPSA30    6               4.0000000000
     32619      1050  AHEP      HO7            33.6723460353       32.2667170711       26.2011285002  LPSA30    6               4.0000000000
     32620      1051  AGLC      C1             29.1705804650       32.3281820533       35.6520976122  LPSA30    7               4.0000000000
     32621      1051  AGLC      H1             29.0858933605       33.3779795668       35.2047739589  LPSA30    7               4.0000000000
     32622      1051  AGLC      C5             27.9532173841       30.3577071336       36.0987679218  LPSA30    7               4.0000000000
     32623      1051  AGLC      H5             28.8143658736       29.7279831571       35.8327124756  LPSA30    7               4.0000000000
     32624      1051  AGLC      O5             28.0105408820       31.5774751134       35.4366254460  LPSA30    7               4.0000000000
     32625      1051  AGLC      C2             29.2522229175       32.5257569957       37.1582745954  LPSA30    7               4.0000000000
     32626      1051  AGLC      H2             28.2429670502       32.9642674137       37.4887389927  LPSA30    7               4.0000000000
     32627      1051  AGLC      O2             30.1588534829       33.5914229744       37.5024056006  LPSA30    7               4.0000000000
     32628      1051  AGLC      HO2            31.0022095384       33.1670229961       37.6430208865  LPSA30    7               4.0000000000
     32629      1051  AGLC      C3             29.2468870031       31.3392145593       37.9903802326  LPSA30    7               4.0000000000
     32630      1051  AGLC      H3             30.1354562350       30.7921782647       37.6727250444  LPSA30    7               4.0000000000
     32631      1051  AGLC      O3             29.4549812389       31.5227827665       39.4204481292  LPSA30    7               4.0000000000
     32632      1051  AGLC      C4             27.9809817289       30.6376911055       37.5928595998  LPSA30    7               4.0000000000
     32633      1051  AGLC      H4             27.0638304187       31.2323079184       37.9560286200  LPSA30    7               4.0000000000
     32634      1051  AGLC      O4             28.0608042881       29.3416703011       38.2243117391  LPSA30    7               4.0000000000
     32635      1051  AGLC      HO4            27.2598452932       29.0623040252       38.6132003238  LPSA30    7               4.0000000000
     32636      1051  AGLC      C6             26.7953590862       29.5034028225       35.5245160098  LPSA30    7               4.0000000000
     32637      1051  AGLC      H61            26.9356839125       29.4869928074       34.4135318240  LPSA30    7               4.0000000000
     32638      1051  AGLC      H62            26.7010227650       28.4524339462       35.8722646349  LPSA30    7               4.0000000000
     32639      1051  AGLC      O6             25.5611398905       30.2659024240       35.6892983147  LPSA30    7               4.0000000000
     32640      1051  AGLC      HO6            25.2304383124       29.8476968825       36.4386090630  LPSA30    7               4.0000000000
     32641      1052  AGLC      C1             30.6314806348       31.0058671326       39.9328324507  LPSA30    8               5.0000000000
     32642      1052  AGLC      H1             30.7691871368       29.9660439173       39.5884769495  LPSA30    8               5.0000000000
     32643      1052  AGLC      C5             31.9137365198       33.1129953977       40.2153373402  LPSA30    8               5.0000000000
     32644      1052  AGLC      H5             31.0417460719       33.6621897166       39.8400606936  LPSA30    8               5.0000000000
     32645      1052  AGLC      O5             31.8336163132       31.7891752895       39.6195505863  LPSA30    8               5.0000000000
     32646      1052  AGLC      C2             30.5707813348       30.9171121252       41.4170311384  LPSA30    8               5.0000000000
     32647      1052  AGLC      H2             31.4902661756       30.3351344253       41.6529594578  LPSA30    8               5.0000000000
     32648      1052  AGLC      O2             29.5585187788       30.0670074599       41.9438754185  LPSA30    8               5.0000000000
     32649      1052  AGLC      C3             30.5944961990       32.2209304037       42.1297388169  LPSA30    8               5.0000000000
     32650      1052  AGLC      H3             29.6760739409       32.6865088989       41.6567950186  LPSA30    8               5.0000000000
     32651      1052  AGLC      O3             30.4193054874       32.0187699745       43.5370978028  LPSA30    8               5.0000000000
     32652      1052  AGLC      C4             31.8312387406       32.8947862692       41.7603093222  LPSA30    8               5.0000000000
     32653      1052  AGLC      H4             32.6857084540       32.3068488839       42.0401368658  LPSA30    8               5.0000000000
     32654      1052  AGLC      O4             31.9300751764       34.1497338608       42.3914819843  LPSA30    8               5.0000000000
     32655      1052  AGLC      HO4            31.0931464019       34.5454737650       42.3800652601  LPSA30    8               5.0000000000
     32656      1052  AGLC      C6             33.0783697637       34.0111646411       39.7357334439  LPSA30    8               5.0000000000
     32657      1052  AGLC      H61            33.2318037324       34.0045263145       38.6468043611  LPSA30    8               5.0000000000
     32658      1052  AGLC      H62            33.0042957302       35.0421893234       40.0276014644  LPSA30    8               5.0000000000
     32659      1052  AGLC      O6             34.3146237324       33.6935801593       40.3040784562  LPSA30    8               5.0000000000
     32660      1052  AGLC      HO6            34.4083081577       34.0426075650       41.2121845210  LPSA30    8               5.0000000000
     32661      1053  AGAL      C1             29.4314516200       28.7651450703       41.4573847493  LPSA30    9               6.0000000000
     32662      1053  AGAL      H1             29.4795309222       28.7647836638       40.3420235153  LPSA30    9               6.0000000000
     32663      1053  AGAL      C5             30.3803756677       27.5585321732       43.2125447641  LPSA30    9               6.0000000000
     32664      1053  AGAL      H5             30.3151884581       28.5879923386       43.7424973645  LPSA30    9               6.0000000000
     32665      1053  AGAL      O5             30.4420420898       27.7837602224       41.8451689838  LPSA30    9               6.0000000000
     32666      1053  AGAL      C2             28.0683046458       28.2521743720       41.8393925249  LPSA30    9               6.0000000000
     32667      1053  AGAL      H2             27.9270255166       27.2699744670       41.4115621152  LPSA30    9               6.0000000000
     32668      1053  AGAL      O2             27.0140934553       28.9606274331       41.1608705954  LPSA30    9               6.0000000000
     32669      1053  AGAL      C3             27.9615879326       27.9934997834       43.3264191845  LPSA30    9               6.0000000000
     32670      1053  AGAL      H3             28.0518871805       28.9904146710       43.9424563891  LPSA30    9               6.0000000000
     32671      1053  AGAL      O3             26.6883118163       27.6081220050       43.7491515633  LPSA30    9               6.0000000000
     32672      1053  AGAL      HO3            26.0669133329       28.0587012566       43.1585960960  LPSA30    9               6.0000000000
     32673      1053  AGAL      C4             29.0139816628       27.0106256690       43.6505755014  LPSA30    9               6.0000000000
     32674      1053  AGAL      H4             29.1062624833       26.8134122002       44.7734818408  LPSA30    9               6.0000000000
     32675      1053  AGAL      O4             28.8618440371       25.7616412531       43.0499075873  LPSA30    9               6.0000000000
     32676      1053  AGAL      HO4            29.2453766169       25.1148091123       43.6622427513  LPSA30    9               6.0000000000
     32677      1053  AGAL      C6             31.6402408428       26.9549243152       43.8349081587  LPSA30    9               6.0000000000
     32678      1053  AGAL      H61            32.5668414521       27.5546145189       43.6417203355  LPSA30    9               6.0000000000
     32679      1053  AGAL      H62            31.6214880003       26.8812388335       44.9292747136  LPSA30    9               6.0000000000
     32680      1053  AGAL      O6             31.8426706779       25.6421395475       43.4062227539  LPSA30    9               6.0000000000
     32681      1053  AGAL      HO6            32.5058487940       25.6767387031       42.6923548993  LPSA30    9               6.0000000000
     32682      1054  AGAL      C1             25.8226834183       29.5308471216       41.7517281777  LPSA30    10              7.0000000000
     32683      1054  AGAL      H1             25.1530205228       28.6650828631       41.8429972083  LPSA30    10              7.0000000000
     32684      1054  AGAL      C5             26.6333423325       31.3796729999       43.0613392294  LPSA30    10              7.0000000000
     32685      1054  AGAL      H5             27.6890491167       31.0927778352       42.6233508762  LPSA30    10              7.0000000000
     32686      1054  AGAL      O5             25.8181021409       30.1921669503       43.0470213554  LPSA30    10              7.0000000000
     32687      1054  AGAL      C2             25.2704750054       30.5343934112       40.7227968417  LPSA30    10              7.0000000000
     32688      1054  AGAL      H2             24.1722489416       30.7160966491       41.0433947026  LPSA30    10              7.0000000000
     32689      1054  AGAL      O2             24.8883100195       29.9522407465       39.5532095562  LPSA30    10              7.0000000000
     32690      1054  AGAL      HO2            23.9900120082       30.1717927581       39.3379401176  LPSA30    10              7.0000000000
     32691      1054  AGAL      C3             26.0602201054       31.7939253277       40.6928251787  LPSA30    10              7.0000000000
     32692      1054  AGAL      H3             27.0681090060       31.4511042004       40.4679648945  LPSA30    10              7.0000000000
     32693      1054  AGAL      O3             25.6261868810       32.7504768799       39.7732034444  LPSA30    10              7.0000000000
     32694      1054  AGAL      HO3            26.2614190124       32.7484096276       39.0151094934  LPSA30    10              7.0000000000
     32695      1054  AGAL      C4             26.0551985656       32.4046927514       42.0524071915  LPSA30    10              7.0000000000
     32696      1054  AGAL      H4             26.7188376399       33.2890107764       42.1099272557  LPSA30    10              7.0000000000
     32697      1054  AGAL      O4             24.7934677583       32.8109701386       42.4965010455  LPSA30    10              7.0000000000
     32698      1054  AGAL      HO4            24.3109416447       32.0070123074       42.5675127347  LPSA30    10              7.0000000000
     32699      1054  AGAL      C6             26.9282484293       31.9858222125       44.3959537205  LPSA30    10              7.0000000000
     32700      1054  AGAL      H61            27.3093268108       31.2566995306       45.1044438806  LPSA30    10              7.0000000000
     32701      1054  AGAL      H62            27.8385683061       32.7472690958       44.2564473849  LPSA30    10              7.0000000000
     32702      1054  AGAL      O6             25.9053857169       32.7105897079       45.1112340130  LPSA30    10              7.0000000000
     32703      1054  AGAL      HO6            25.7005658402       32.2131145164       45.9237589285  LPSA30    10              7.0000000000
     32704      1055  BGLC      C1             31.4502126106       31.9091986411       44.5018065681  LPSA30    11              6.0000000000
     32705      1055  BGLC      H1             31.7903911699       32.9305143515       44.5883763758  LPSA30    11              6.0000000000
     32706      1055  BGLC      C5             33.5874281375       30.7592056472       45.1248117688  LPSA30    11              6.0000000000
     32707      1055  BGLC      H5             34.1309224015       31.7334684068       45.3871201921  LPSA30    11              6.0000000000
     32708      1055  BGLC      O5             32.4866594485       30.9343579607       44.0830650888  LPSA30    11              6.0000000000
     32709      1055  BGLC      C2             30.8609873506       31.4132667524       45.7977571702  LPSA30    11              6.0000000000
     32710      1055  BGLC      H2             30.3119992153       30.4403344591       45.7293388291  LPSA30    11              6.0000000000
     32711      1055  BGLC      O2             29.8193404478       32.3337182518       46.0886391483  LPSA30    11              6.0000000000
     32712      1055  BGLC      HO2            29.0358968460       31.8545508608       46.2788110113  LPSA30    11              6.0000000000
     32713      1055  BGLC      C3             31.8460350777       31.2139818736       46.8736276645  LPSA30    11              6.0000000000
     32714      1055  BGLC      H3             32.2531981201       32.2622549792       47.1984917368  LPSA30    11              6.0000000000
     32715      1055  BGLC      O3             31.1513369566       30.7033303102       48.0056213318  LPSA30    11              6.0000000000
     32716      1055  BGLC      C4             32.8840337787       30.3024875820       46.4390836423  LPSA30    11              6.0000000000
     32717      1055  BGLC      H4             32.3559667544       29.3183670622       46.2001611147  LPSA30    11              6.0000000000
     32718      1055  BGLC      O4             33.8051876159       30.0096652197       47.4766894645  LPSA30    11              6.0000000000
     32719      1055  BGLC      HO4            33.3583921980       29.4522416666       48.1247908570  LPSA30    11              6.0000000000
     32720      1055  BGLC      C6             34.7086217561       29.8903082218       44.5291127165  LPSA30    11              6.0000000000
     32721      1055  BGLC      H61            35.3742060757       29.4323047819       45.2481190913  LPSA30    11              6.0000000000
     32722      1055  BGLC      H62            34.2116868250       29.1172412261       43.8913252379  LPSA30    11              6.0000000000
     32723      1055  BGLC      O6             35.5564327325       30.5702738493       43.5637942269  LPSA30    11              6.0000000000
     32724      1055  BGLC      HO6            36.3713405431       30.6185807784       44.0054369298  LPSA30    11              6.0000000000
     32725      1056  BGLCNA    C1             31.2647966926       31.2868001688       49.3238540420  LPSA30    12              7.0000000000
     32726      1056  BGLCNA    H1             30.4950024349       32.1279910331       49.3874222992  LPSA30    12              7.0000000000
     32727      1056  BGLCNA    C5             32.6349504820       32.4947076580       50.8763077070  LPSA30    12              7.0000000000
     32728      1056  BGLCNA    H5             31.8434021132       33.3650867428       50.9814236466  LPSA30    12              7.0000000000
     32729      1056  BGLCNA    O5             32.5773370102       31.8311346166       49.5875345322  LPSA30    12              7.0000000000
     32730      1056  BGLCNA    C2             30.9789384636       30.2168856831       50.3245054808  LPSA30    12              7.0000000000
     32731      1056  BGLCNA    H2             31.9189324548       29.5172028284       50.3375086743  LPSA30    12              7.0000000000
     32732      1056  BGLCNA    N              29.6835003850       29.5717779818       50.0347611965  LPSA30    12              7.0000000000
     32733      1056  BGLCNA    HN             29.0214315940       30.2446738443       49.9972643287  LPSA30    12              7.0000000000
     32734      1056  BGLCNA    C              29.5936222783       28.2845803231       49.8903426450  LPSA30    12              7.0000000000
     32735      1056  BGLCNA    O              30.5737095111       27.5796800306       50.0855928044  LPSA30    12              7.0000000000
     32736      1056  BGLCNA    CT             28.2382325833       27.7330002628       49.5677689528  LPSA30    12              7.0000000000
     32737      1056  BGLCNA    HT1            27.8290340164       27.1212293934       50.3918503408  LPSA30    12              7.0000000000
     32738      1056  BGLCNA    HT2            28.3296794393       26.9278352913       48.7104760971  LPSA30    12              7.0000000000
     32739      1056  BGLCNA    HT3            27.6141240177       28.5977127791       49.2316245990  LPSA30    12              7.0000000000
     32740      1056  BGLCNA    C3             30.9847677187       30.7673846651       51.6995695120  LPSA30    12              7.0000000000
     32741      1056  BGLCNA    H3             30.1033958386       31.5443126239       51.8605307917  LPSA30    12              7.0000000000
     32742      1056  BGLCNA    O3             30.6641064490       29.7902508367       52.7272334264  LPSA30    12              7.0000000000
     32743      1056  BGLCNA    C4             32.3194703803       31.3900807928       51.9591692987  LPSA30    12              7.0000000000
     32744      1056  BGLCNA    H4             33.2084660316       30.6544840797       51.9037868612  LPSA30    12              7.0000000000
     32745      1056  BGLCNA    O4             32.3962333592       31.9461845082       53.2294962294  LPSA30    12              7.0000000000
     32746      1056  BGLCNA    HO4            31.8964800619       32.8125814665       53.2834945119  LPSA30    12              7.0000000000
     32747      1056  BGLCNA    C6             34.0059185594       33.1967999665       50.9528560558  LPSA30    12              7.0000000000
     32748      1056  BGLCNA    H61            34.1483108807       33.6330643696       51.9144325068  LPSA30    12              7.0000000000
     32749      1056  BGLCNA    H62            34.7067514154       32.3786233994       50.8287962869  LPSA30    12              7.0000000000
     32750      1056  BGLCNA    O6             34.1758143019       34.0635224961       49.8597561973  LPSA30    12              7.0000000000
     32751      1056  BGLCNA    HO6            33.8306277209       34.8816221140       50.1903398796  LPSA30    12              7.0000000000
     32752      1057  AGAL      C1             29.7983823737       30.2536430277       53.8132743488  LPSA30    13              8.0000000000
     32753      1057  AGAL      H1             30.1819110880       31.2256845343       54.1959401301  LPSA30    13              8.0000000000
     32754      1057  AGAL      C5             27.9185829992       28.8369717950       53.2950732168  LPSA30    13              8.0000000000
     32755      1057  AGAL      H5             28.5934047554       28.3968367588       52.5641412600  LPSA30    13              8.0000000000
     32756      1057  AGAL      O5             28.3632157991       30.1885781518       53.4918445955  LPSA30    13              8.0000000000
     32757      1057  AGAL      C2             29.8896238896       29.3891656989       55.1010141246  LPSA30    13              8.0000000000
     32758      1057  AGAL      H2             29.0818182356       29.7040534864       55.7917211299  LPSA30    13              8.0000000000
     32759      1057  AGAL      O2             31.1237611285       29.5432428364       55.7701983428  LPSA30    13              8.0000000000
     32760      1057  AGAL      C3             29.3971143263       27.9358780135       54.8979691660  LPSA30    13              8.0000000000
     32761      1057  AGAL      H3             29.9235966414       27.5140238944       54.0477453328  LPSA30    13              8.0000000000
     32762      1057  AGAL      O3             29.7515487511       27.0725480172       55.9888739531  LPSA30    13              8.0000000000
     32763      1057  AGAL      HO3            30.0205051502       26.2116770452       55.6848713412  LPSA30    13              8.0000000000
     32764      1057  AGAL      C4             28.0197048660       27.9275110645       54.5514025965  LPSA30    13              8.0000000000
     32765      1057  AGAL      H4             27.6859108483       26.8795357778       54.1954731349  LPSA30    13              8.0000000000
     32766      1057  AGAL      O4             27.1691756937       28.3976005701       55.5743212917  LPSA30    13              8.0000000000
     32767      1057  AGAL      HO4            27.4516023569       29.1927683672       56.0499681296  LPSA30    13              8.0000000000
     32768      1057  AGAL      C6             26.6186649743       28.6828256849       52.5301443486  LPSA30    13              8.0000000000
     32769      1057  AGAL      H61            26.6477893063       29.3058159781       51.6253596531  LPSA30    13              8.0000000000
     32770      1057  AGAL      H62            26.4384988292       27.5908896608       52.3684678279  LPSA30    13              8.0000000000
     32771      1057  AGAL      O6             25.5175525782       29.1222135024       53.2985910507  LPSA30    13              8.0000000000
     32772      1057  AGAL      HO6            25.2844196239       28.4237913470       53.9299633642  LPSA30    13              8.0000000000
     32773      1058  ARHM      C1             31.1781369850       30.1870389574       57.0117786358  LPSA30    14              9.0000000000
     32774      1058  ARHM      H1             30.3224769504       30.8936248601       56.9981767125  LPSA30    14              9.0000000000
     32775      1058  ARHM      C5             33.4985970995       30.1446336447       57.1930138837  LPSA30    14              9.0000000000
     32776      1058  ARHM      H5             33.5107354154       29.5609296416       56.1976867078  LPSA30    14              9.0000000000
     32777      1058  ARHM      O5             32.3711682292       30.9379972055       57.1718909996  LPSA30    14              9.0000000000
     32778      1058  ARHM      C2             31.0532678668       29.1410624830       58.1413490634  LPSA30    14              9.0000000000
     32779      1058  ARHM      H2             30.1579741540       28.5876987513       57.8875987320  LPSA30    14              9.0000000000
     32780      1058  ARHM      O2             30.9881861539       29.6642061427       59.4330148990  LPSA30    14              9.0000000000
     32781      1058  ARHM      C3             32.2549410103       28.2416200795       58.1095432995  LPSA30    14              9.0000000000
     32782      1058  ARHM      H3             32.3952766631       27.8930283416       57.0440121713  LPSA30    14              9.0000000000
     32783      1058  ARHM      O3             32.1322902090       27.0707306525       58.8567888868  LPSA30    14              9.0000000000
     32784      1058  ARHM      HO3            32.2174256063       27.3630767909       59.8104957846  LPSA30    14              9.0000000000
     32785      1058  ARHM      C4             33.4415558030       29.1030245584       58.3490442956  LPSA30    14              9.0000000000
     32786      1058  ARHM      H4             33.4435001116       29.7013461663       59.2902338481  LPSA30    14              9.0000000000
     32787      1058  ARHM      O4             34.6255959881       28.2641945271       58.4446785014  LPSA30    14              9.0000000000
     32788      1058  ARHM      HO4            35.0562569652       28.2237060695       59.2969967688  LPSA30    14              9.0000000000
     32789      1058  ARHM      C6             34.7574587999       31.0265428852       57.2492155848  LPSA30    14              9.0000000000
     32790      1058  ARHM      H61            34.7450550323       31.9245954628       56.5358243550  LPSA30    14              9.0000000000
     32791      1058  ARHM      H62            34.8797570831       31.2998134694       58.3170764683  LPSA30    14              9.0000000000
     32792      1058  ARHM      H63            35.7207863884       30.6124133266       56.9421594120  LPSA30    14              9.0000000000
     32793      1059  ARHM      C1             30.1079410918       30.6317303164       59.7267990175  LPSA30    15             10.0000000000
     32794      1059  ARHM      H1             29.2301218445       30.5996680224       59.0458905905  LPSA30    15             10.0000000000
     32795      1059  ARHM      C5             31.7048136069       32.2963212795       60.6468530148  LPSA30    15             10.0000000000
     32796      1059  ARHM      H5             32.6541392262       31.7068612897       60.4457705401  LPSA30    15             10.0000000000
     32797      1059  ARHM      O5             30.6698645995       31.9668327646       59.6688136410  LPSA30    15             10.0000000000
     32798      1059  ARHM      C2             29.5709051717       30.4204007307       61.1407671534  LPSA30    15             10.0000000000
     32799      1059  ARHM      H2             29.2302754441       29.3182708966       61.2133420761  LPSA30    15             10.0000000000
     32800      1059  ARHM      O2             28.4657144946       31.3542444047       61.3234079317  LPSA30    15             10.0000000000
     32801      1059  ARHM      C3             30.6812484676       30.6470100553       62.1677656617  LPSA30    15             10.0000000000
     32802      1059  ARHM      H3             31.5343349187       29.9791035180       61.8628392879  LPSA30    15             10.0000000000
     32803      1059  ARHM      O3             30.1765333893       30.0863585199       63.4092175029  LPSA30    15             10.0000000000
     32804      1059  ARHM      C4             31.1426060339       32.0188564298       62.0487117432  LPSA30    15             10.0000000000
     32805      1059  ARHM      H4             30.2209997395       32.7210302701       62.1496903561  LPSA30    15             10.0000000000
     32806      1059  ARHM      O4             32.1450498307       32.4698664282       62.9635513464  LPSA30    15             10.0000000000
     32807      1059  ARHM      HO4            32.1428895079       33.4151991163       62.9565205260  LPSA30    15             10.0000000000
     32808      1059  ARHM      C6             32.1408128492       33.7294924705       60.4460959132  LPSA30    15             10.0000000000
     32809      1059  ARHM      H61            32.9971313462       34.0522459771       61.0956562646  LPSA30    15             10.0000000000
     32810      1059  ARHM      H62            32.2545600260       33.9308971290       59.3910198679  LPSA30    15             10.0000000000
     32811      1059  ARHM      H63            31.3918023937       34.4629394469       60.8578185328  LPSA30    15             10.0000000000
     32812      1060  BMANNA    C1             27.6959659928       31.3116759024       62.5145562334  LPSA30    16             11.0000000000
     32813      1060  BMANNA    H1             28.3680440037       31.7492333795       63.3432051365  LPSA30    16             11.0000000000
     32814      1060  BMANNA    C5             26.5837489121       30.0863564626       64.1851548173  LPSA30    16             11.0000000000
     32815      1060  BMANNA    H5             27.1888114316       30.5417052018       64.9800677769  LPSA30    16             11.0000000000
     32816      1060  BMANNA    O5             27.2843060428       30.0102935994       62.9158851071  LPSA30    16             11.0000000000
     32817      1060  BMANNA    C2             26.4727228468       32.2280268662       62.2781089586  LPSA30    16             11.0000000000
     32818      1060  BMANNA    H2             26.9182495484       33.2165701784       61.9912908466  LPSA30    16             11.0000000000
     32819      1060  BMANNA    N              25.5201860343       31.8607466197       61.2264456342  LPSA30    16             11.0000000000
     32820      1060  BMANNA    HN             24.8204183110       31.2778899292       61.5688724990  LPSA30    16             11.0000000000
     32821      1060  BMANNA    C              25.6092011449       32.2219760018       59.9704010620  LPSA30    16             11.0000000000
     32822      1060  BMANNA    O              26.5087092019       33.0046052241       59.5582221915  LPSA30    16             11.0000000000
     32823      1060  BMANNA    CT             24.5669308065       31.6510596573       59.1331689300  LPSA30    16             11.0000000000
     32824      1060  BMANNA    HT1            23.7793446800       32.3249913221       58.8344492748  LPSA30    16             11.0000000000
     32825      1060  BMANNA    HT2            24.0704092246       30.7550478474       59.5043001239  LPSA30    16             11.0000000000
     32826      1060  BMANNA    HT3            24.9838905765       31.3340125920       58.1231520073  LPSA30    16             11.0000000000
     32827      1060  BMANNA    C3             25.7764058307       32.3314313944       63.6119771117  LPSA30    16             11.0000000000
     32828      1060  BMANNA    H3             26.4786338747       32.7415871409       64.3839812837  LPSA30    16             11.0000000000
     32829      1060  BMANNA    O3             24.6957835962       33.2192637882       63.6122488842  LPSA30    16             11.0000000000
     32830      1060  BMANNA    HO3            24.7944202134       33.8695729935       64.2950500102  LPSA30    16             11.0000000000
     32831      1060  BMANNA    C4             25.3131734479       30.9544831036       64.1045846713  LPSA30    16             11.0000000000
     32832      1060  BMANNA    H4             24.5860262304       30.4886551938       63.4124605202  LPSA30    16             11.0000000000
     32833      1060  BMANNA    O4             24.6515176864       30.9029327997       65.3816866120  LPSA30    16             11.0000000000
     32834      1060  BMANNA    HO4            24.0917287225       30.1296189151       65.4353184152  LPSA30    16             11.0000000000
     32835      1060  BMANNA    C6             26.2315832232       28.7012318765       64.7427751243  LPSA30    16             11.0000000000
     32836      1060  BMANNA    H61            26.2311995469       28.7899909935       65.8875394407  LPSA30    16             11.0000000000
     32837      1060  BMANNA    H62            25.2288215259       28.3933088413       64.4389269682  LPSA30    16             11.0000000000
     32838      1060  BMANNA    O6             27.1541594268       27.6596356687       64.3660927576  LPSA30    16             11.0000000000
     32839      1060  BMANNA    HO6            26.5594307553       27.0285326650       63.9036969990  LPSA30    16             11.0000000000
     32840      1061  BGLCNA    C1             31.0860773573       29.4494290928       64.1715778089  LPSA30    17             11.0000000000
     32841      1061  BGLCNA    H1             32.1382775459       29.8725742760       63.9082176002  LPSA30    17             11.0000000000
     32842      1061  BGLCNA    C5             32.1616840019       27.2891930177       64.5563394407  LPSA30    17             11.0000000000
     32843      1061  BGLCNA    H5             33.2180743853       27.6640910225       64.2825289487  LPSA30    17             11.0000000000
     32844      1061  BGLCNA    O5             31.2209260166       28.0513961428       63.7849982893  LPSA30    17             11.0000000000
     32845      1061  BGLCNA    C2             30.6723387130       29.5960582944       65.5899343931  LPSA30    17             11.0000000000
     32846      1061  BGLCNA    H2             29.6483515717       29.1480901777       65.8249043900  LPSA30    17             11.0000000000
     32847      1061  BGLCNA    N              30.4531350241       30.9542219462       65.8849826081  LPSA30    17             11.0000000000
     32848      1061  BGLCNA    HN             31.0274407827       31.6507270082       65.4150135415  LPSA30    17             11.0000000000
     32849      1061  BGLCNA    C              29.6856780731       31.5120831056       66.8043620798  LPSA30    17             11.0000000000
     32850      1061  BGLCNA    O              28.8954374941       30.8565411914       67.4729873017  LPSA30    17             11.0000000000
     32851      1061  BGLCNA    CT             29.8297141909       32.9768249152       66.9728872304  LPSA30    17             11.0000000000
     32852      1061  BGLCNA    HT1            29.0674890521       33.6578408895       66.5529393721  LPSA30    17             11.0000000000
     32853      1061  BGLCNA    HT2            30.8710175006       33.2402726065       66.7043805047  LPSA30    17             11.0000000000
     32854      1061  BGLCNA    HT3            29.8244099274       33.2505995779       68.1408097225  LPSA30    17             11.0000000000
     32855      1061  BGLCNA    C3             31.7324493761       28.8927926996       66.4076579941  LPSA30    17             11.0000000000
     32856      1061  BGLCNA    H3             32.6804484448       29.4144030047       66.0441361901  LPSA30    17             11.0000000000
     32857      1061  BGLCNA    O3             31.5086768537       29.2468812998       67.8205355914  LPSA30    17             11.0000000000
     32858      1061  BGLCNA    C4             31.7270829467       27.4131627189       66.0496966154  LPSA30    17             11.0000000000
     32859      1061  BGLCNA    H4             30.6723646631       26.9692134979       66.1123142204  LPSA30    17             11.0000000000
     32860      1061  BGLCNA    O4             32.5337183543       26.6441531847       66.9186044206  LPSA30    17             11.0000000000
     32861      1061  BGLCNA    HO4            32.5951161477       25.7174358716       66.7204061560  LPSA30    17             11.0000000000
     32862      1061  BGLCNA    C6             32.1115048788       25.8117749876       64.1200051697  LPSA30    17             11.0000000000
     32863      1061  BGLCNA    H61            33.0988185564       25.3926846811       64.1272946536  LPSA30    17             11.0000000000
     32864      1061  BGLCNA    H62            31.4670855702       25.1969743082       64.8212395067  LPSA30    17             11.0000000000
     32865      1061  BGLCNA    O6             31.5931788773       25.6491418371       62.7926115083  LPSA30    17             11.0000000000
     32866      1061  BGLCNA    HO6            32.1434136330       26.1313472442       62.1856770532  LPSA30    17             11.0000000000
     32867      1062  AGAL      C1             32.7083413659       29.4068359969       68.6198653987  LPSA30    18             12.0000000000
     32868      1062  AGAL      H1             33.1227418267       28.3723503825       68.8082567594  LPSA30    18             12.0000000000
     32869      1062  AGAL      C5             33.2868392886       31.6116163026       67.8636918791  LPSA30    18             12.0000000000
     32870      1062  AGAL      H5             32.2935217113       31.6388557412       67.4068928888  LPSA30    18             12.0000000000
     32871      1062  AGAL      O5             33.6871871230       30.1988511168       67.9834320655  LPSA30    18             12.0000000000
     32872      1062  AGAL      C2             32.4079590732       30.1062174866       70.0000206359  LPSA30    18             12.0000000000
     32873      1062  AGAL      H2             33.4509424927       30.1402516263       70.3908489884  LPSA30    18             12.0000000000
     32874      1062  AGAL      O2             31.7021534450       29.2488243425       70.8342757016  LPSA30    18             12.0000000000
     32875      1062  AGAL      C3             31.9658193944       31.5220067611       69.8682924558  LPSA30    18             12.0000000000
     32876      1062  AGAL      H3             31.0944782270       31.5600919381       69.0958348126  LPSA30    18             12.0000000000
     32877      1062  AGAL      O3             31.5188322360       32.0607495003       71.0758896640  LPSA30    18             12.0000000000
     32878      1062  AGAL      HO3            30.6906253071       32.5317280685       70.9682873819  LPSA30    18             12.0000000000
     32879      1062  AGAL      C4             33.0121126005       32.2861509016       69.1634745928  LPSA30    18             12.0000000000
     32880      1062  AGAL      H4             32.7544186037       33.3398442975       68.9039691178  LPSA30    18             12.0000000000
     32881      1062  AGAL      O4             34.2136820259       32.3731545179       69.9734134928  LPSA30    18             12.0000000000
     32882      1062  AGAL      HO4            34.0587732447       33.0459515608       70.7236544006  LPSA30    18             12.0000000000
     32883      1062  AGAL      C6             34.1011481100       32.2090906664       66.8042742825  LPSA30    18             12.0000000000
     32884      1062  AGAL      H61            33.8701201995       31.6639059912       65.8877991861  LPSA30    18             12.0000000000
     32885      1062  AGAL      H62            33.7096799662       33.2511737385       66.6499463921  LPSA30    18             12.0000000000
     32886      1062  AGAL      O6             35.4238782945       32.1676769828       66.9803033045  LPSA30    18             12.0000000000
     32887      1062  AGAL      HO6            35.7618829609       31.6065696226       67.6707071977  LPSA30    18             12.0000000000
     32888      1063  ARHM      C1             32.2387913606       29.3144400595       72.1803514454  LPSA30    19             13.0000000000
     32889      1063  ARHM      H1             32.7981879350       30.2178218290       72.3185909119  LPSA30    19             13.0000000000
     32890      1063  ARHM      C5             32.8126625190       27.0146800460       72.2512180912  LPSA30    19             13.0000000000
     32891      1063  ARHM      H5             32.3960548123       26.9454762783       71.2133247196  LPSA30    19             13.0000000000
     32892      1063  ARHM      O5             33.2790287627       28.3549181569       72.4162684983  LPSA30    19             13.0000000000
     32893      1063  ARHM      C2             31.0968261632       29.1310779932       73.1100514097  LPSA30    19             13.0000000000
     32894      1063  ARHM      H2             30.2570351415       29.7549868897       72.9420985559  LPSA30    19             13.0000000000
     32895      1063  ARHM      O2             31.5214999632       29.3345627604       74.4131644751  LPSA30    19             13.0000000000
     32896      1063  ARHM      C3             30.6127866503       27.6530958498       72.9859276785  LPSA30    19             13.0000000000
     32897      1063  ARHM      H3             30.3329038944       27.4977072283       71.9471750908  LPSA30    19             13.0000000000
     32898      1063  ARHM      O3             29.4939718681       27.4257492837       73.7644258584  LPSA30    19             13.0000000000
     32899      1063  ARHM      HO3            29.6972308660       27.7566892967       74.6464134549  LPSA30    19             13.0000000000
     32900      1063  ARHM      C4             31.6786665680       26.6737776515       73.2443334127  LPSA30    19             13.0000000000
     32901      1063  ARHM      H4             32.0179407228       26.8646770039       74.2703943704  LPSA30    19             13.0000000000
     32902      1063  ARHM      O4             31.2932960245       25.3373543200       73.1708570575  LPSA30    19             13.0000000000
     32903      1063  ARHM      HO4            31.0411587076       25.1820810959       72.2126258713  LPSA30    19             13.0000000000
     32904      1063  ARHM      C6             33.9749826743       26.0068252940       72.3031700958  LPSA30    19             13.0000000000
     32905      1063  ARHM      H61            34.6080333053       26.3899222085       71.5186681997  LPSA30    19             13.0000000000
     32906      1063  ARHM      H62            34.5502059137       25.9711584058       73.2001761489  LPSA30    19             13.0000000000
     32907      1063  ARHM      H63            33.6700561724       24.9789079554       72.0875448643  LPSA30    19             13.0000000000
     32908      1064  ARHM      C1             31.6869587085       30.6844960552       74.6981797177  LPSA30    20             14.0000000000
     32909      1064  ARHM      H1             31.2493543730       31.3612050848       73.8936196974  LPSA30    20             14.0000000000
     32910      1064  ARHM      C5             33.6983800519       30.5693924298       75.9960310464  LPSA30    20             14.0000000000
     32911      1064  ARHM      H5             33.6173853590       29.4684070706       75.8071112250  LPSA30    20             14.0000000000
     32912      1064  ARHM      O5             33.0246760965       31.1530542131       74.8741575474  LPSA30    20             14.0000000000
     32913      1064  ARHM      C2             30.8815344518       31.0462646485       75.9438944127  LPSA30    20             14.0000000000
     32914      1064  ARHM      H2             29.8193091785       30.5838204498       75.7904987900  LPSA30    20             14.0000000000
     32915      1064  ARHM      O2             30.8195126180       32.4652561504       76.2145535291  LPSA30    20             14.0000000000
     32916      1064  ARHM      C3             31.5877234650       30.4318916058       77.0746584307  LPSA30    20             14.0000000000
     32917      1064  ARHM      H3             31.6117114602       29.2853536630       76.9570890266  LPSA30    20             14.0000000000
     32918      1064  ARHM      O3             30.7698015833       30.6906778209       78.2431898216  LPSA30    20             14.0000000000
     32919      1064  ARHM      C4             32.9907885084       30.9196376178       77.2147849866  LPSA30    20             14.0000000000
     32920      1064  ARHM      H4             33.0585109815       31.9855466378       77.2882629629  LPSA30    20             14.0000000000
     32921      1064  ARHM      O4             33.5567970503       30.3748036803       78.4294019453  LPSA30    20             14.0000000000
     32922      1064  ARHM      HO4            34.4229609858       30.3502872425       78.0714846557  LPSA30    20             14.0000000000
     32923      1064  ARHM      C6             35.1204260678       30.9478635296       75.9818768401  LPSA30    20             14.0000000000
     32924      1064  ARHM      H61            35.4058308391       32.0403973151       76.0487105533  LPSA30    20             14.0000000000
     32925      1064  ARHM      H62            35.6629729014       30.3927494833       76.7492574554  LPSA30    20             14.0000000000
     32926      1064  ARHM      H63            35.6680726659       30.6825561341       75.0059134709  LPSA30    20             14.0000000000
     32927      1065  BMANNA    C1             29.7781388829       32.9547561504       75.4501725836  LPSA30    21             15.0000000000
     32928      1065  BMANNA    H1             29.4296826197       32.1844111718       74.6495731600  LPSA30    21             15.0000000000
     32929      1065  BMANNA    C5             29.1472226286       34.3864933733       73.6578092950  LPSA30    21             15.0000000000
     32930      1065  BMANNA    H5             28.6548435938       33.5156184642       73.0422409194  LPSA30    21             15.0000000000
     32931      1065  BMANNA    O5             30.2548346775       34.0095278100       74.5460975074  LPSA30    21             15.0000000000
     32932      1065  BMANNA    C2             28.6751997728       33.4529087465       76.3268603500  LPSA30    21             15.0000000000
     32933      1065  BMANNA    H2             28.4074473367       32.5426148245       76.8663433126  LPSA30    21             15.0000000000
     32934      1065  BMANNA    N              29.1361124377       34.4772974962       77.2602735953  LPSA30    21             15.0000000000
     32935      1065  BMANNA    HN             29.6075397969       35.2280017366       76.8630196157  LPSA30    21             15.0000000000
     32936      1065  BMANNA    C              28.7222139631       34.6047104305       78.6142451918  LPSA30    21             15.0000000000
     32937      1065  BMANNA    O              27.7752186837       33.9390787553       79.0340579138  LPSA30    21             15.0000000000
     32938      1065  BMANNA    CT             29.4463194418       35.6321155001       79.5125915666  LPSA30    21             15.0000000000
     32939      1065  BMANNA    HT1            29.0187505754       36.6403674653       79.3040814335  LPSA30    21             15.0000000000
     32940      1065  BMANNA    HT2            30.5256140635       35.5093045135       79.3224353366  LPSA30    21             15.0000000000
     32941      1065  BMANNA    HT3            29.2524658034       35.4011040656       80.6000991146  LPSA30    21             15.0000000000
     32942      1065  BMANNA    C3             27.5512577524       33.8650739361       75.4428482744  LPSA30    21             15.0000000000
     32943      1065  BMANNA    H3             27.2824364518       32.9120697378       75.0091666053  LPSA30    21             15.0000000000
     32944      1065  BMANNA    O3             26.4294425287       34.3314767395       76.1769203835  LPSA30    21             15.0000000000
     32945      1065  BMANNA    HO3            26.7280289199       35.0242574418       76.7354970047  LPSA30    21             15.0000000000
     32946      1065  BMANNA    C4             28.0034167997       34.9386758063       74.4866217523  LPSA30    21             15.0000000000
     32947      1065  BMANNA    H4             28.3008821761       35.9779388716       75.0002820064  LPSA30    21             15.0000000000
     32948      1065  BMANNA    O4             26.9850413020       35.3392438357       73.6152290754  LPSA30    21             15.0000000000
     32949      1065  BMANNA    HO4            26.7355155190       36.2770853187       73.7703874424  LPSA30    21             15.0000000000
     32950      1065  BMANNA    C6             29.5708719518       35.3072735039       72.6348027846  LPSA30    21             15.0000000000
     32951      1065  BMANNA    H61            28.8057565732       35.4792118883       71.8494922130  LPSA30    21             15.0000000000
     32952      1065  BMANNA    H62            29.5945299646       36.3491163073       73.0558617198  LPSA30    21             15.0000000000
     32953      1065  BMANNA    O6             30.8293968661       35.1075858368       72.0654385618  LPSA30    21             15.0000000000
     32954      1065  BMANNA    HO6            31.4652871102       35.0603584723       72.7784055652  LPSA30    21             15.0000000000
     32955      1066  BGLCNA    C1             30.6350233024       29.7248090942       79.2248726046  LPSA30    22             15.0000000000
     32956      1066  BGLCNA    H1             31.4919618636       28.9909478413       79.2753119810  LPSA30    22             15.0000000000
     32957      1066  BGLCNA    C5             29.3739032295       27.8781246448       80.1145289529  LPSA30    22             15.0000000000
     32958      1066  BGLCNA    H5             30.3741143780       27.2709172488       80.0727605020  LPSA30    22             15.0000000000
     32959      1066  BGLCNA    O5             29.5053147991       28.9143774606       79.0803056561  LPSA30    22             15.0000000000
     32960      1066  BGLCNA    C2             30.5611907741       30.4190048380       80.5602818744  LPSA30    22             15.0000000000
     32961      1066  BGLCNA    H2             29.6012357492       31.0396993920       80.4633107900  LPSA30    22             15.0000000000
     32962      1066  BGLCNA    N              31.7279428464       31.2637868211       80.7025670875  LPSA30    22             15.0000000000
     32963      1066  BGLCNA    HN             32.5815981346       30.8613255421       80.4501896382  LPSA30    22             15.0000000000
     32964      1066  BGLCNA    C              31.7441231447       32.4220042320       81.3295640408  LPSA30    22             15.0000000000
     32965      1066  BGLCNA    O              30.7126625894       32.8908407707       81.8448112003  LPSA30    22             15.0000000000
     32966      1066  BGLCNA    CT             33.0471991371       33.1304950702       81.4359073222  LPSA30    22             15.0000000000
     32967      1066  BGLCNA    HT1            33.0473358494       33.7335550409       80.5353412834  LPSA30    22             15.0000000000
     32968      1066  BGLCNA    HT2            33.8494729507       32.3743356437       81.2752873926  LPSA30    22             15.0000000000
     32969      1066  BGLCNA    HT3            33.2461022630       33.6162682625       82.3679651303  LPSA30    22             15.0000000000
     32970      1066  BGLCNA    C3             30.4133039398       29.4205813097       81.6855161512  LPSA30    22             15.0000000000
     32971      1066  BGLCNA    H3             31.2856853145       28.7211970655       81.6419517197  LPSA30    22             15.0000000000
     32972      1066  BGLCNA    O3             30.4877032510       30.1771211199       82.8729300216  LPSA30    22             15.0000000000
     32973      1066  BGLCNA    C4             29.1724719744       28.5483033192       81.4704242134  LPSA30    22             15.0000000000
     32974      1066  BGLCNA    H4             28.3571025487       29.2204933723       81.4144045074  LPSA30    22             15.0000000000
     32975      1066  BGLCNA    O4             28.9618439973       27.6230549491       82.5140850489  LPSA30    22             15.0000000000
     32976      1066  BGLCNA    HO4            28.0104106832       27.5850995544       82.7130071916  LPSA30    22             15.0000000000
     32977      1066  BGLCNA    C6             28.1792841854       27.0173410491       79.7284495560  LPSA30    22             15.0000000000
     32978      1066  BGLCNA    H61            27.9124111869       26.4919833002       80.6924177192  LPSA30    22             15.0000000000
     32979      1066  BGLCNA    H62            27.2984911913       27.6404572672       79.4648784538  LPSA30    22             15.0000000000
     32980      1066  BGLCNA    O6             28.4582182418       26.0153189895       78.8100863794  LPSA30    22             15.0000000000
     32981      1066  BGLCNA    HO6            28.8136760188       26.4151967319       78.0328486455  LPSA30    22             15.0000000000
     32982      1067  AGAL      C1             30.8126886294       29.5553303053       84.0628261254  LPSA30    23             16.0000000000
     32983      1067  AGAL      H1             29.9535442664       28.9831957835       84.5106287163  LPSA30    23             16.0000000000
     32984      1067  AGAL      C5             33.1638740920       29.3321285374       83.7583018441  LPSA30    23             16.0000000000
     32985      1067  AGAL      H5             33.0411211702       30.0137927979       82.8366412438  LPSA30    23             16.0000000000
     32986      1067  AGAL      O5             31.9398660522       28.6757545600       83.9976212264  LPSA30    23             16.0000000000
     32987      1067  AGAL      C2             31.0923836606       30.5838692656       85.1427633740  LPSA30    23             16.0000000000
     32988      1067  AGAL      H2             31.3179311838       30.0029183871       86.0076373284  LPSA30    23             16.0000000000
     32989      1067  AGAL      O2             29.9742529762       31.3605329883       85.5000844886  LPSA30    23             16.0000000000
     32990      1067  AGAL      C3             32.3564794579       31.3396783967       84.9194901020  LPSA30    23             16.0000000000
     32991      1067  AGAL      H3             32.2779351832       31.7451901240       83.8641570193  LPSA30    23             16.0000000000
     32992      1067  AGAL      O3             32.5531107568       32.4529294898       85.7108298168  LPSA30    23             16.0000000000
     32993      1067  AGAL      HO3            32.3403291034       32.1445557961       86.6206525111  LPSA30    23             16.0000000000
     32994      1067  AGAL      C4             33.4787108952       30.3456514915       84.8901212015  LPSA30    23             16.0000000000
     32995      1067  AGAL      H4             34.4608300906       30.8129208007       84.6506069022  LPSA30    23             16.0000000000
     32996      1067  AGAL      O4             33.7643857385       29.6844742503       86.1132943683  LPSA30    23             16.0000000000
     32997      1067  AGAL      HO4            34.0151226740       28.8646965723       85.8278371007  LPSA30    23             16.0000000000
     32998      1067  AGAL      C6             34.2268417911       28.3570558928       83.3278962909  LPSA30    23             16.0000000000
     32999      1067  AGAL      H61            33.8297352495       27.6911671583       82.6074235255  LPSA30    23             16.0000000000
     33000      1067  AGAL      H62            35.0322282513       28.8342518030       82.7620574208  LPSA30    23             16.0000000000
     33001      1067  AGAL      O6             34.6409773524       27.5811927005       84.3845202183  LPSA30    23             16.0000000000
     33002      1067  AGAL      HO6            35.2800045800       26.9165755546       84.1740981585  LPSA30    23             16.0000000000
     33003      1068  ARHM      C1             28.8880877122       30.8983169853       86.2818185944  LPSA30    24             17.0000000000
     33004      1068  ARHM      H1             28.9834640800       29.8331273245       86.3680542693  LPSA30    24             17.0000000000
     33005      1068  ARHM      C5             27.2407539154       32.5139620786       85.6157638072  LPSA30    24             17.0000000000
     33006      1068  ARHM      H5             27.9897021683       32.9745826049       85.0070975499  LPSA30    24             17.0000000000
     33007      1068  ARHM      O5             27.4920126690       31.1342424555       85.8657410059  LPSA30    24             17.0000000000
     33008      1068  ARHM      C2             29.1257279654       31.5723299040       87.5921581840  LPSA30    24             17.0000000000
     33009      1068  ARHM      H2             30.1535699102       31.5129483091       87.8984046741  LPSA30    24             17.0000000000
     33010      1068  ARHM      O2             28.2021658399       31.1357337395       88.6075763533  LPSA30    24             17.0000000000
     33011      1068  ARHM      C3             28.8215936125       33.0675396561       87.4133527752  LPSA30    24             17.0000000000
     33012      1068  ARHM      H3             29.5394846546       33.4163773789       86.6640279609  LPSA30    24             17.0000000000
     33013      1068  ARHM      O3             29.1571430540       33.8902251481       88.5620392964  LPSA30    24             17.0000000000
     33014      1068  ARHM      HO3            28.3689966857       33.8649441371       89.1463757531  LPSA30    24             17.0000000000
     33015      1068  ARHM      C4             27.3925073846       33.2977191206       86.9402325015  LPSA30    24             17.0000000000
     33016      1068  ARHM      H4             26.6853946548       32.7849777859       87.7071552895  LPSA30    24             17.0000000000
     33017      1068  ARHM      O4             27.0153316929       34.6537067198       86.8379508285  LPSA30    24             17.0000000000
     33018      1068  ARHM      HO4            26.1053602645       34.8220920567       87.0219124236  LPSA30    24             17.0000000000
     33019      1068  ARHM      C6             25.8424550718       32.7730614535       84.9175891319  LPSA30    24             17.0000000000
     33020      1068  ARHM      H61            25.8920261153       33.7216614190       84.3853494017  LPSA30    24             17.0000000000
     33021      1068  ARHM      H62            25.7081575061       31.9688565435       84.2649634992  LPSA30    24             17.0000000000
     33022      1068  ARHM      H63            24.9991726846       32.6892404108       85.6811466487  LPSA30    24             17.0000000000
     33023      1069  ARHM      C1             28.6095976344       29.8884136697       89.1588742089  LPSA30    25             18.0000000000
     33024      1069  ARHM      H1             29.2440885176       29.3847966987       88.4722246341  LPSA30    25             18.0000000000
     33025      1069  ARHM      C5             26.4989720840       29.3859196542       90.1670531641  LPSA30    25             18.0000000000
     33026      1069  ARHM      H5             26.0511718032       30.3018400376       89.8870230824  LPSA30    25             18.0000000000
     33027      1069  ARHM      O5             27.5123205633       28.9567340193       89.2315309535  LPSA30    25             18.0000000000
     33028      1069  ARHM      C2             29.2523343451       30.1261267816       90.4685713243  LPSA30    25             18.0000000000
     33029      1069  ARHM      H2             30.0215501323       30.9604526968       90.3413143991  LPSA30    25             18.0000000000
     33030      1069  ARHM      O2             29.8955887183       28.8990590227       90.9328696740  LPSA30    25             18.0000000000
     33031      1069  ARHM      C3             28.1138851115       30.5409353868       91.4562257518  LPSA30    25             18.0000000000
     33032      1069  ARHM      H3             27.6873006181       31.4998427903       91.0689171631  LPSA30    25             18.0000000000
     33033      1069  ARHM      O3             28.7491689385       30.7940260138       92.6920647463  LPSA30    25             18.0000000000
     33034      1069  ARHM      C4             27.0643618814       29.5772858444       91.5960769721  LPSA30    25             18.0000000000
     33035      1069  ARHM      H4             27.4739686263       28.5230100167       91.8876801091  LPSA30    25             18.0000000000
     33036      1069  ARHM      O4             26.1671896557       30.0802655422       92.5862492282  LPSA30    25             18.0000000000
     33037      1069  ARHM      HO4            25.8658772036       29.2996941875       93.0149361445  LPSA30    25             18.0000000000
     33038      1069  ARHM      C6             25.3143363631       28.4218183277       90.2083352735  LPSA30    25             18.0000000000
     33039      1069  ARHM      H61            24.9376217114       28.1787757270       89.1912344565  LPSA30    25             18.0000000000
     33040      1069  ARHM      H62            25.5630474661       27.4275224205       90.6686969550  LPSA30    25             18.0000000000
     33041      1069  ARHM      H63            24.4206419162       28.8199996101       90.8233913566  LPSA30    25             18.0000000000
     33042      1070  BMANNA    C1             31.1311816385       28.6304695509       90.3138108879  LPSA30    26             19.0000000000
     33043      1070  BMANNA    H1             31.5751855016       29.5543120258       89.8388342826  LPSA30    26             19.0000000000
     33044      1070  BMANNA    C5             32.3871831456       27.4956630043       88.6312665858  LPSA30    26             19.0000000000
     33045      1070  BMANNA    H5             32.6479125230       28.4520022424       88.1771240033  LPSA30    26             19.0000000000
     33046      1070  BMANNA    O5             31.0970775807       27.6571557061       89.2346891933  LPSA30    26             19.0000000000
     33047      1070  BMANNA    C2             32.0373143936       28.1709143429       91.3475147821  LPSA30    26             19.0000000000
     33048      1070  BMANNA    H2             32.0556213012       29.0189264955       92.1081287357  LPSA30    26             19.0000000000
     33049      1070  BMANNA    N              31.4929938867       26.9212509592       91.9238920796  LPSA30    26             19.0000000000
     33050      1070  BMANNA    HN             31.3234058729       26.2083421139       91.3050515894  LPSA30    26             19.0000000000
     33051      1070  BMANNA    C              31.3240313056       26.6924082538       93.1798471680  LPSA30    26             19.0000000000
     33052      1070  BMANNA    O              31.4405198728       27.6197761593       94.0003587425  LPSA30    26             19.0000000000
     33053      1070  BMANNA    CT             31.0037920572       25.2829454579       93.6758917343  LPSA30    26             19.0000000000
     33054      1070  BMANNA    HT1            30.5950744428       24.7584466492       92.8666282051  LPSA30    26             19.0000000000
     33055      1070  BMANNA    HT2            30.4729384708       25.0846495273       94.6620984389  LPSA30    26             19.0000000000
     33056      1070  BMANNA    HT3            31.9824374259       24.8190214250       93.8484898219  LPSA30    26             19.0000000000
     33057      1070  BMANNA    C3             33.4231170267       28.0361976800       90.7100883268  LPSA30    26             19.0000000000
     33058      1070  BMANNA    H3             33.7268529692       29.0465777183       90.3384445889  LPSA30    26             19.0000000000
     33059      1070  BMANNA    O3             34.3637996169       27.6938440772       91.7636866611  LPSA30    26             19.0000000000
     33060      1070  BMANNA    HO3            34.4581309369       28.5178363826       92.2265744207  LPSA30    26             19.0000000000
     33061      1070  BMANNA    C4             33.3523742734       27.0847989478       89.6481622736  LPSA30    26             19.0000000000
     33062      1070  BMANNA    H4             33.0381971637       26.0310585881       89.9013799111  LPSA30    26             19.0000000000
     33063      1070  BMANNA    O4             34.6228772490       26.8948556675       89.0416847738  LPSA30    26             19.0000000000
     33064      1070  BMANNA    HO4            35.1102342843       26.2552624987       89.5591157304  LPSA30    26             19.0000000000
     33065      1070  BMANNA    C6             32.1265498808       26.5897825225       87.3900617492  LPSA30    26             19.0000000000
     33066      1070  BMANNA    H61            31.1515956967       26.8074976466       86.9191763972  LPSA30    26             19.0000000000
     33067      1070  BMANNA    H62            32.8753339485       26.7054411354       86.6504270337  LPSA30    26             19.0000000000
     33068      1070  BMANNA    O6             32.1277204534       25.2083469375       87.7329108337  LPSA30    26             19.0000000000
     33069      1070  BMANNA    HO6            32.9257432384       24.9919536541       88.1688153196  LPSA30    26             19.0000000000
     33070      1071  BGLCNA    C1             28.5093848911       31.8781994123       93.4616184899  LPSA30    27             19.0000000000
     33071      1071  BGLCNA    H1             27.4559036200       32.1390814477       93.4392217979  LPSA30    27             19.0000000000
     33072      1071  BGLCNA    C5             28.8689051559       34.1713579498       93.9656603721  LPSA30    27             19.0000000000
     33073      1071  BGLCNA    H5             27.7540890653       34.2803752252       93.9564344452  LPSA30    27             19.0000000000
     33074      1071  BGLCNA    O5             29.1640837842       33.0985831408       93.0607755266  LPSA30    27             19.0000000000
     33075      1071  BGLCNA    C2             28.9184613277       31.4766679528       94.8806799918  LPSA30    27             19.0000000000
     33076      1071  BGLCNA    H2             30.0140959806       31.3428584851       94.8757458582  LPSA30    27             19.0000000000
     33077      1071  BGLCNA    N              28.2882178756       30.2230737800       95.2501113516  LPSA30    27             19.0000000000
     33078      1071  BGLCNA    HN             27.2491016176       30.1649300464       95.0827132934  LPSA30    27             19.0000000000
     33079      1071  BGLCNA    C              29.0872828086       29.3264616800       95.9523160909  LPSA30    27             19.0000000000
     33080      1071  BGLCNA    O              30.1863255825       29.5990705885       96.5238801166  LPSA30    27             19.0000000000
     33081      1071  BGLCNA    CT             28.4967936828       27.8844009334       96.0293745529  LPSA30    27             19.0000000000
     33082      1071  BGLCNA    HT1            27.5962318093       27.7899684683       95.3635606282  LPSA30    27             19.0000000000
     33083      1071  BGLCNA    HT2            28.2891371440       27.5365002140       97.0167906789  LPSA30    27             19.0000000000
     33084      1071  BGLCNA    HT3            29.3476046612       27.1666194938       95.7039804309  LPSA30    27             19.0000000000
     33085      1071  BGLCNA    C3             28.6070828280       32.5918619777       95.7540348103  LPSA30    27             19.0000000000
     33086      1071  BGLCNA    H3             27.5185030566       32.8481297517       95.7401190096  LPSA30    27             19.0000000000
     33087      1071  BGLCNA    O3             28.9972850003       32.0900774185       97.0775356047  LPSA30    27             19.0000000000
     33088      1071  BGLCNA    C4             29.3316108971       33.8903343981       95.3486864533  LPSA30    27             19.0000000000
     33089      1071  BGLCNA    H4             30.4294884308       33.7036594455       95.3090014479  LPSA30    27             19.0000000000
     33090      1071  BGLCNA    O4             29.0474210463       34.9260788608       96.2156872787  LPSA30    27             19.0000000000
     33091      1071  BGLCNA    HO4            28.1563945411       35.1330061737       96.0162444362  LPSA30    27             19.0000000000
     33092      1071  BGLCNA    C6             29.4398395347       35.4620105333       93.2852949846  LPSA30    27             19.0000000000
     33093      1071  BGLCNA    H61            29.0162130482       36.2938161410       93.8557506920  LPSA30    27             19.0000000000
     33094      1071  BGLCNA    H62            30.5373766294       35.5304090934       93.4725180191  LPSA30    27             19.0000000000
     33095      1071  BGLCNA    O6             29.1086578943       35.5140444953       91.9076175409  LPSA30    27             19.0000000000
     33096      1071  BGLCNA    HO6            29.5113976378       36.3253191152       91.5273290588  LPSA30    27             19.0000000000
     33097      1072  AGAL      C1             28.5099311248       32.7644293431       98.2622020222  LPSA30    28             20.0000000000
     33098      1072  AGAL      H1             28.9721891470       33.7137637168       98.3007149491  LPSA30    28             20.0000000000
     33099      1072  AGAL      C5             26.2849216277       31.8056259055       98.1710438288  LPSA30    28             20.0000000000
     33100      1072  AGAL      H5             26.7315815845       30.9543366019       97.4646141937  LPSA30    28             20.0000000000
     33101      1072  AGAL      O5             27.1177235177       33.0351707871       98.1147365872  LPSA30    28             20.0000000000
     33102      1072  AGAL      C2             28.6815996462       32.0608379508       99.6197190629  LPSA30    28             20.0000000000
     33103      1072  AGAL      H2             28.2317432964       32.7841971208      100.2965066153  LPSA30    28             20.0000000000
     33104      1072  AGAL      O2             30.0107669809       31.8673348017      100.0788731798  LPSA30    28             20.0000000000
     33105      1072  AGAL      C3             27.8598954626       30.8159725374       99.7396972452  LPSA30    28             20.0000000000
     33106      1072  AGAL      H3             28.1251295391       30.1481395477       98.8607737785  LPSA30    28             20.0000000000
     33107      1072  AGAL      O3             28.0157677419       29.9819024036      100.9043404272  LPSA30    28             20.0000000000
     33108      1072  AGAL      HO3            28.3582326815       29.1339226988      100.5606486229  LPSA30    28             20.0000000000
     33109      1072  AGAL      C4             26.4412767447       31.1538944523       99.5102226768  LPSA30    28             20.0000000000
     33110      1072  AGAL      H4             25.8898790142       30.2445342971       99.4798298294  LPSA30    28             20.0000000000
     33111      1072  AGAL      O4             25.8996321544       31.9975316832      100.4757933835  LPSA30    28             20.0000000000
     33112      1072  AGAL      HO4            25.3981009723       31.4519534766      101.0376442747  LPSA30    28             20.0000000000
     33113      1072  AGAL      C6             24.8599775803       31.9735137251       97.6362902244  LPSA30    28             20.0000000000
     33114      1072  AGAL      H61            24.9047289048       32.2345864081       96.5809275898  LPSA30    28             20.0000000000
     33115      1072  AGAL      H62            24.1474738189       31.0785657799       97.7651048223  LPSA30    28             20.0000000000
     33116      1072  AGAL      O6             24.2069627505       33.0058790906       98.3456070822  LPSA30    28             20.0000000000
     33117      1072  AGAL      HO6            24.3932900025       33.8544142772       97.9416813930  LPSA30    28             20.0000000000
     33118      1073  ARHM      C1             30.0787189556       32.2192429139      101.4808913342  LPSA30    29             21.0000000000
     33119      1073  ARHM      H1             29.0769488488       32.0594170384      101.9964955809  LPSA30    29             21.0000000000
     33120      1073  ARHM      C5             31.7381934488       33.8468647357      101.1486206043  LPSA30    29             21.0000000000
     33121      1073  ARHM      H5             31.7019007538       33.5096261780      100.0935446791  LPSA30    29             21.0000000000
     33122      1073  ARHM      O5             30.4808443077       33.5444603516      101.6833506475  LPSA30    29             21.0000000000
     33123      1073  ARHM      C2             30.9881913680       31.2828734767      102.1437305515  LPSA30    29             21.0000000000
     33124      1073  ARHM      H2             30.7525607995       30.2656302389      101.9067628034  LPSA30    29             21.0000000000
     33125      1073  ARHM      O2             30.9651845140       31.4244103168      103.5748524404  LPSA30    29             21.0000000000
     33126      1073  ARHM      C3             32.3728562975       31.5563867799      101.6289418068  LPSA30    29             21.0000000000
     33127      1073  ARHM      H3             32.4113066970       31.2942839304      100.4952263366  LPSA30    29             21.0000000000
     33128      1073  ARHM      O3             33.2462173934       30.6200480141      102.1995749427  LPSA30    29             21.0000000000
     33129      1073  ARHM      HO3            34.0501062928       31.0167856408      102.2092645043  LPSA30    29             21.0000000000
     33130      1073  ARHM      C4             32.8157963986       32.9395033678      101.8247918557  LPSA30    29             21.0000000000
     33131      1073  ARHM      H4             32.8983357686       33.2041894827      102.9338171738  LPSA30    29             21.0000000000
     33132      1073  ARHM      O4             34.1329708033       33.2929474382      101.3452167393  LPSA30    29             21.0000000000
     33133      1073  ARHM      HO4            34.3504727269       32.9251082733      100.4362974805  LPSA30    29             21.0000000000
     33134      1073  ARHM      C6             31.8949417303       35.3763311184      101.2162231226  LPSA30    29             21.0000000000
     33135      1073  ARHM      H61            30.9041192214       35.7506098829      100.7685423143  LPSA30    29             21.0000000000
     33136      1073  ARHM      H62            31.9387689376       35.6865538150      102.3013153741  LPSA30    29             21.0000000000
     33137      1073  ARHM      H63            32.7570364158       35.6692079094      100.6072571094  LPSA30    29             21.0000000000
     33138      1074  ARHM      C1             30.2015884741       30.5977584296      104.3945976075  LPSA30    30             22.0000000000
     33139      1074  ARHM      H1             30.5008491104       29.5427269017      104.2094096401  LPSA30    30             22.0000000000
     33140      1074  ARHM      C5             28.2957517800       32.1068192571      104.5143062533  LPSA30    30             22.0000000000
     33141      1074  ARHM      H5             29.0066367114       32.7510150604      103.8668162917  LPSA30    30             22.0000000000
     33142      1074  ARHM      O5             28.7811730216       30.7700853068      104.2052433351  LPSA30    30             22.0000000000
     33143      1074  ARHM      C2             30.5130158054       30.9099823101      105.8471183130  LPSA30    30             22.0000000000
     33144      1074  ARHM      H2             31.5338852340       30.8157443473      106.0289718167  LPSA30    30             22.0000000000
     33145      1074  ARHM      O2             29.7206740128       30.0397264358      106.5813641610  LPSA30    30             22.0000000000
     33146      1074  ARHM      C3             30.0358263796       32.2373859417      106.2079894766  LPSA30    30             22.0000000000
     33147      1074  ARHM      H3             30.4377740048       32.9376745081      105.5270001340  LPSA30    30             22.0000000000
     33148      1074  ARHM      O3             30.4445334898       32.6661528195      107.5373891676  LPSA30    30             22.0000000000
     33149      1074  ARHM      C4             28.5309974700       32.4021439884      105.9708288384  LPSA30    30             22.0000000000
     33150      1074  ARHM      H4             27.9279277552       31.6917672303      106.5400372406  LPSA30    30             22.0000000000
     33151      1074  ARHM      O4             28.0061807022       33.6111019375      106.2997755749  LPSA30    30             22.0000000000
     33152      1074  ARHM      HO4            28.1064158751       34.3587443038      105.6964454668  LPSA30    30             22.0000000000
     33153      1074  ARHM      C6             26.8576818258       32.2471433555      104.0930490251  LPSA30    30             22.0000000000
     33154      1074  ARHM      H61            26.5859166753       33.3325786435      104.2143179997  LPSA30    30             22.0000000000
     33155      1074  ARHM      H62            26.7929335757       32.1069082565      103.0019050467  LPSA30    30             22.0000000000
     33156      1074  ARHM      H63            26.1456275586       31.5586702393      104.6493652223  LPSA30    30             22.0000000000
     33157      1075  BMANNA    C1             30.3207419208       28.8178918260      106.9502319096  LPSA30    31             23.0000000000
     33158      1075  BMANNA    H1             31.3963661970       29.0179810638      107.1550799008  LPSA30    31             23.0000000000
     33159      1075  BMANNA    C5             30.9183620132       26.5793054149      106.2136717625  LPSA30    31             23.0000000000
     33160      1075  BMANNA    H5             31.9224424923       26.8779222718      106.5467054000  LPSA30    31             23.0000000000
     33161      1075  BMANNA    O5             30.2389444990       27.8233714074      105.8742289322  LPSA30    31             23.0000000000
     33162      1075  BMANNA    C2             29.6442957703       28.2662697482      108.0830629221  LPSA30    31             23.0000000000
     33163      1075  BMANNA    H2             29.8227804583       28.9877715412      108.9031915743  LPSA30    31             23.0000000000
     33164      1075  BMANNA    N              28.2462136240       28.2306125801      107.8252935315  LPSA30    31             23.0000000000
     33165      1075  BMANNA    HN             27.9511401875       28.1795620713      106.8111160773  LPSA30    31             23.0000000000
     33166      1075  BMANNA    C              27.3227274794       28.3092278261      108.7868858964  LPSA30    31             23.0000000000
     33167      1075  BMANNA    O              27.6189606379       28.4945033079      109.9536662434  LPSA30    31             23.0000000000
     33168      1075  BMANNA    CT             25.8644642634       28.1696390275      108.3237946568  LPSA30    31             23.0000000000
     33169      1075  BMANNA    HT1            25.8290568763       27.4209386594      107.5739831696  LPSA30    31             23.0000000000
     33170      1075  BMANNA    HT2            25.5457649029       29.1427471846      107.9347099034  LPSA30    31             23.0000000000
     33171      1075  BMANNA    HT3            25.1908571582       27.9918908124      109.1768357935  LPSA30    31             23.0000000000
     33172      1075  BMANNA    C3             30.3102772510       26.9922155335      108.4884560283  LPSA30    31             23.0000000000
     33173      1075  BMANNA    H3             31.4347053559       27.1419983526      108.6988550870  LPSA30    31             23.0000000000
     33174      1075  BMANNA    O3             29.8200373655       26.5114654142      109.7404994872  LPSA30    31             23.0000000000
     33175      1075  BMANNA    HO3            29.4411251324       27.3272841524      110.0111610137  LPSA30    31             23.0000000000
     33176      1075  BMANNA    C4             30.1900578344       25.9814631172      107.4199857710  LPSA30    31             23.0000000000
     33177      1075  BMANNA    H4             29.0885480059       25.7136977051      107.0572414185  LPSA30    31             23.0000000000
     33178      1075  BMANNA    O4             30.7581210552       24.7539673822      107.8525671122  LPSA30    31             23.0000000000
     33179      1075  BMANNA    HO4            31.6733530714       24.8665893141      108.1943429300  LPSA30    31             23.0000000000
     33180      1075  BMANNA    C6             30.9608699669       25.5738698205      105.0512686782  LPSA30    31             23.0000000000
     33181      1075  BMANNA    H61            31.6997845048       24.7234890867      105.3397811046  LPSA30    31             23.0000000000
     33182      1075  BMANNA    H62            30.0002909191       25.1003483069      104.8698551944  LPSA30    31             23.0000000000
     33183      1075  BMANNA    O6             31.3983793716       26.1899139839      103.8241467834  LPSA30    31             23.0000000000
     33184      1075  BMANNA    HO6            32.3667858726       26.4357366812      103.8134147631  LPSA30    31             23.0000000000
     33185      1076  BGLCNA    C1             29.6951273473       32.2013957660      108.6103969990  LPSA30    32             23.0000000000
     33186      1076  BGLCNA    H1             29.3210088120       31.1431166874      108.4325564695  LPSA30    32             23.0000000000
     33187      1076  BGLCNA    C5             27.6824685962       32.4407802811      109.9277617404  LPSA30    32             23.0000000000
     33188      1076  BGLCNA    H5             27.4056059054       31.3951914785      109.5374749077  LPSA30    32             23.0000000000
     33189      1076  BGLCNA    O5             28.5566053402       32.9972785330      108.9423333575  LPSA30    32             23.0000000000
     33190      1076  BGLCNA    C2             30.5182055807       32.1010201245      109.8194522937  LPSA30    32             23.0000000000
     33191      1076  BGLCNA    H2             30.6923612924       33.1114803019      110.1044894257  LPSA30    32             23.0000000000
     33192      1076  BGLCNA    N              31.7512101886       31.4257397228      109.5956973249  LPSA30    32             23.0000000000
     33193      1076  BGLCNA    HN             31.6116949714       30.7108801233      108.8809076996  LPSA30    32             23.0000000000
     33194      1076  BGLCNA    C              32.9830324936       31.6909900911      110.0864625708  LPSA30    32             23.0000000000
     33195      1076  BGLCNA    O              33.1811154461       32.5651406038      110.9304085025  LPSA30    32             23.0000000000
     33196      1076  BGLCNA    CT             34.1484113435       30.8101713928      109.5841031968  LPSA30    32             23.0000000000
     33197      1076  BGLCNA    HT1            33.6506045993       30.3504475241      108.6281101354  LPSA30    32             23.0000000000
     33198      1076  BGLCNA    HT2            34.4165219430       29.9814422455      110.1898124037  LPSA30    32             23.0000000000
     33199      1076  BGLCNA    HT3            35.0540083833       31.4054422074      109.3122359934  LPSA30    32             23.0000000000
     33200      1076  BGLCNA    C3             29.7061697276       31.4393895763      110.8930231790  LPSA30    32             23.0000000000
     33201      1076  BGLCNA    H3             29.3429297057       30.5514470521      110.4606187373  LPSA30    32             23.0000000000
     33202      1076  BGLCNA    O3             30.4540814582       31.0784925777      112.0657798240  LPSA30    32             23.0000000000
     33203      1076  BGLCNA    C4             28.5260543700       32.3299415450      111.1707572500  LPSA30    32             23.0000000000
     33204      1076  BGLCNA    H4             28.9321198546       33.3138477183      111.5318289610  LPSA30    32             23.0000000000
     33205      1076  BGLCNA    O4             27.7271514875       31.8227390523      112.2070236435  LPSA30    32             23.0000000000
     33206      1076  BGLCNA    HO4            27.9968663439       32.1569712312      113.0745323218  LPSA30    32             23.0000000000
     33207      1076  BGLCNA    C6             26.4180145833       33.2687968734      110.0229508171  LPSA30    32             23.0000000000
     33208      1076  BGLCNA    H61            25.6435976826       32.7763048252      110.7194343748  LPSA30    32             23.0000000000
     33209      1076  BGLCNA    H62            26.6581562422       34.2643441238      110.5717638480  LPSA30    32             23.0000000000
     33210      1076  BGLCNA    O6             25.7832543056       33.4294841222      108.7709294272  LPSA30    32             23.0000000000
     33211      1076  BGLCNA    HO6            25.8799529330       32.6006967831      108.2360311317  LPSA30    32             23.0000000000
     33212      1077  AGAL      C1             30.0535103870       29.8265075919      112.6842874521  LPSA30    33             24.0000000000
     33213      1077  AGAL      H1             28.9653669180       29.7752327526      112.5979959475  LPSA30    33             24.0000000000
     33214      1077  AGAL      C5             32.0912061632       28.7038902082      112.2149219831  LPSA30    33             24.0000000000
     33215      1077  AGAL      H5             32.3843918401       29.7145799540      111.8792915250  LPSA30    33             24.0000000000
     33216      1077  AGAL      O5             30.6865343015       28.6585872754      112.0726784748  LPSA30    33             24.0000000000
     33217      1077  AGAL      C2             30.4831194184       29.8915655174      114.1482787662  LPSA30    33             24.0000000000
     33218      1077  AGAL      H2             30.2415266965       28.8424789140      114.5751854976  LPSA30    33             24.0000000000
     33219      1077  AGAL      O2             29.6116181808       30.7592643088      114.8486222260  LPSA30    33             24.0000000000
     33220      1077  AGAL      C3             31.9844281545       29.9098717763      114.2945545625  LPSA30    33             24.0000000000
     33221      1077  AGAL      H3             32.4258698367       30.8074935046      113.7405815065  LPSA30    33             24.0000000000
     33222      1077  AGAL      O3             32.4236820333       30.1501779886      115.5672660328  LPSA30    33             24.0000000000
     33223      1077  AGAL      HO3            32.0807278130       29.6006804468      116.2400186851  LPSA30    33             24.0000000000
     33224      1077  AGAL      C4             32.5987027252       28.6779542509      113.6708488317  LPSA30    33             24.0000000000
     33225      1077  AGAL      H4             33.6940113914       28.7340592514      113.6729875792  LPSA30    33             24.0000000000
     33226      1077  AGAL      O4             32.2808101580       27.3885729815      114.2435538900  LPSA30    33             24.0000000000
     33227      1077  AGAL      HO4            31.6038989942       27.4328966842      114.9085525172  LPSA30    33             24.0000000000
     33228      1077  AGAL      C6             32.7858763621       27.7240575429      111.2992528405  LPSA30    33             24.0000000000
     33229      1077  AGAL      H61            32.5082703390       28.0561614040      110.2783408757  LPSA30    33             24.0000000000
     33230      1077  AGAL      H62            33.8909258903       27.6950918894      111.3458027743  LPSA30    33             24.0000000000
     33231      1077  AGAL      O6             32.4560889706       26.3753154549      111.4129476537  LPSA30    33             24.0000000000
     33232      1077  AGAL      HO6            31.6900097059       26.1076612906      110.8444757795  LPSA30    33             24.0000000000
     33233      1078  ARHM      C1             29.0645130964       30.2258094603      116.0109133884  LPSA30    34             25.0000000000
     33234      1078  ARHM      H1             29.8179170115       29.7203227799      116.6389743656  LPSA30    34             25.0000000000
     33235      1078  ARHM      C5             26.9046431094       29.6751027717      115.0727799907  LPSA30    34             25.0000000000
     33236      1078  ARHM      H5             27.2935323288       29.9581211329      114.0209633333  LPSA30    34             25.0000000000
     33237      1078  ARHM      O5             28.0388876917       29.2186958963      115.8926868953  LPSA30    34             25.0000000000
     33238      1078  ARHM      C2             28.5399975481       31.4186330815      116.7601555753  LPSA30    34             25.0000000000
     33239      1078  ARHM      H2             29.2522757247       32.2808353816      116.8710959342  LPSA30    34             25.0000000000
     33240      1078  ARHM      O2             28.0794860838       31.1297067138      118.1592972339  LPSA30    34             25.0000000000
     33241      1078  ARHM      C3             27.3421609982       31.9676829854      115.9988665506  LPSA30    34             25.0000000000
     33242      1078  ARHM      H3             27.6184726958       32.2526431924      114.9724172480  LPSA30    34             25.0000000000
     33243      1078  ARHM      O3             26.6967264599       33.1227944652      116.5878695042  LPSA30    34             25.0000000000
     33244      1078  ARHM      HO3            26.4009920458       33.7704824938      115.9559434517  LPSA30    34             25.0000000000
     33245      1078  ARHM      C4             26.2350470583       30.8970350700      115.7987835878  LPSA30    34             25.0000000000
     33246      1078  ARHM      H4             25.9206334798       30.4358114000      116.7495315617  LPSA30    34             25.0000000000
     33247      1078  ARHM      O4             25.1248269231       31.3799148214      115.1362621200  LPSA30    34             25.0000000000
     33248      1078  ARHM      HO4            24.5678002794       31.9167351209      115.6953140327  LPSA30    34             25.0000000000
     33249      1078  ARHM      C6             25.8570232820       28.5277915032      114.8413279703  LPSA30    34             25.0000000000
     33250      1078  ARHM      H61            25.3602019411       28.1654962847      115.7172490283  LPSA30    34             25.0000000000
     33251      1078  ARHM      H62            24.9598268017       28.9960577368      114.3996926230  LPSA30    34             25.0000000000
     33252      1078  ARHM      H63            26.1581588251       27.7114229435      114.1590834060  LPSA30    34             25.0000000000
     33253      1079  ARHM      C1             29.0420890483       30.5755403623      119.0795908573  LPSA30    35             26.0000000000
     33254      1079  ARHM      H1             30.0732793042       31.0872269174      118.8787348947  LPSA30    35             26.0000000000
     33255      1079  ARHM      C5             27.9507303582       28.4111800114      119.2408916176  LPSA30    35             26.0000000000
     33256      1079  ARHM      H5             27.0998441768       28.7570909372      118.5254732223  LPSA30    35             26.0000000000
     33257      1079  ARHM      O5             29.2195354654       29.1039194196      118.9290334222  LPSA30    35             26.0000000000
     33258      1079  ARHM      C2             28.6304939678       30.8921420700      120.5365485050  LPSA30    35             26.0000000000
     33259      1079  ARHM      H2             28.6067307905       32.0049959488      120.7134209997  LPSA30    35             26.0000000000
     33260      1079  ARHM      O2             29.5676575030       30.3853541698      121.4126203716  LPSA30    35             26.0000000000
     33261      1079  ARHM      C3             27.2756409169       30.2292001969      120.8720061906  LPSA30    35             26.0000000000
     33262      1079  ARHM      H3             26.5275071636       30.6694143346      120.1344793452  LPSA30    35             26.0000000000
     33263      1079  ARHM      O3             26.8178073435       30.6058215298      122.1540075829  LPSA30    35             26.0000000000
     33264      1079  ARHM      HO3            27.5780690429       30.7178946478      122.7288731339  LPSA30    35             26.0000000000
     33265      1079  ARHM      C4             27.4445942856       28.7472064072      120.6788917534  LPSA30    35             26.0000000000
     33266      1079  ARHM      H4             28.2382548952       28.2882715005      121.3307119103  LPSA30    35             26.0000000000
     33267      1079  ARHM      O4             26.1618554223       28.1501866993      120.9693790153  LPSA30    35             26.0000000000
     33268      1079  ARHM      HO4            25.4005218044       28.6221268204      120.5581709812  LPSA30    35             26.0000000000
     33269      1079  ARHM      C6             28.0799616320       26.8950965287      118.8642347863  LPSA30    35             26.0000000000
     33270      1079  ARHM      H61            28.2055862484       26.7626154483      117.7433556958  LPSA30    35             26.0000000000
     33271      1079  ARHM      H62            28.9581452980       26.6004991684      119.4176110492  LPSA30    35             26.0000000000
     33272      1079  ARHM      H63            27.0749317506       26.4233842506      119.0633705917  LPSA30    35             26.0000000000
     33273      1080  BMANNA    C1             30.8036681335       31.0329803294      121.4471464502  LPSA30    36             27.0000000000
     33274      1080  BMANNA    H1             30.7196415472       32.0893520484      121.0972061898  LPSA30    36             27.0000000000
     33275      1080  BMANNA    C5             33.0924860382       31.3514673956      120.7299884793  LPSA30    36             27.0000000000
     33276      1080  BMANNA    H5             32.8011638373       32.3653572013      120.4610684421  LPSA30    36             27.0000000000
     33277      1080  BMANNA    O5             31.9065756959       30.4967569449      120.6641532654  LPSA30    36             27.0000000000
     33278      1080  BMANNA    C2             31.2751168000       31.0893611017      122.8920138725  LPSA30    36             27.0000000000
     33279      1080  BMANNA    H2             30.4723833068       31.5820349162      123.4719477421  LPSA30    36             27.0000000000
     33280      1080  BMANNA    N              31.4481030931       29.7441977050      123.4395449790  LPSA30    36             27.0000000000
     33281      1080  BMANNA    HN             31.8810639921       29.0351359378      122.8746519580  LPSA30    36             27.0000000000
     33282      1080  BMANNA    C              31.3182381435       29.5123206971      124.7737151700  LPSA30    36             27.0000000000
     33283      1080  BMANNA    O              30.9026334384       30.3113381195      125.6190347561  LPSA30    36             27.0000000000
     33284      1080  BMANNA    CT             31.7493432654       28.1954761863      125.3570716528  LPSA30    36             27.0000000000
     33285      1080  BMANNA    HT1            32.6722327505       27.8510874528      124.8802869227  LPSA30    36             27.0000000000
     33286      1080  BMANNA    HT2            31.0164902028       27.3599956902      125.1731404614  LPSA30    36             27.0000000000
     33287      1080  BMANNA    HT3            31.8626579156       28.1644946001      126.4547536948  LPSA30    36             27.0000000000
     33288      1080  BMANNA    C3             32.5272075466       31.9240338135      122.9763638711  LPSA30    36             27.0000000000
     33289      1080  BMANNA    H3             32.3287274549       32.9497670018      122.6403873786  LPSA30    36             27.0000000000
     33290      1080  BMANNA    O3             32.9996363645       32.0652129240      124.3414054450  LPSA30    36             27.0000000000
     33291      1080  BMANNA    HO3            32.9962879811       32.9392802521      124.7171830083  LPSA30    36             27.0000000000
     33292      1080  BMANNA    C4             33.6063174163       31.3835592850      122.1146940524  LPSA30    36             27.0000000000
     33293      1080  BMANNA    H4             33.9248298472       30.4138956957      122.4263894750  LPSA30    36             27.0000000000
     33294      1080  BMANNA    O4             34.7952498008       32.1644997922      122.2172873890  LPSA30    36             27.0000000000
     33295      1080  BMANNA    HO4            34.9053952427       32.0925574372      123.1985163392  LPSA30    36             27.0000000000
     33296      1080  BMANNA    C6             34.0798896111       30.8758552845      119.7412642597  LPSA30    36             27.0000000000
     33297      1080  BMANNA    H61            33.6869902502       30.9428324197      118.6946701192  LPSA30    36             27.0000000000
     33298      1080  BMANNA    H62            34.8504199056       31.6521820367      119.7045442506  LPSA30    36             27.0000000000
     33299      1080  BMANNA    O6             34.6357132126       29.5574331130      120.0914698020  LPSA30    36             27.0000000000
     33300      1080  BMANNA    HO6            35.4022640826       29.7382152859      120.6476247167  LPSA30    36             27.0000000000
     33301      1081  ECLIPA    HB6S           19.1073919153       41.3774601988       20.4612168218  LPSA31    1               0.0000000000
     33302      1081  ECLIPA    OB6            20.4927471742       40.6203233786       21.7140249152  LPSA31    1               0.0000000000
     33303      1081  ECLIPA    CB6            20.1063502648       41.6213903654       20.7042159014  LPSA31    1               0.0000000000
     33304      1081  ECLIPA    HB6R           20.3034301771       42.6182078660       21.0541931349  LPSA31    1               0.0000000000
     33305      1081  ECLIPA    CB5            21.0040293338       41.5378724172       19.3988764877  LPSA31    1               0.0000000000
     33306      1081  ECLIPA    OB5            20.8956280585       40.1206542510       18.9716901872  LPSA31    1               0.0000000000
     33307      1081  ECLIPA    HB5            22.0299014992       41.7053622757       19.7771798410  LPSA31    1               0.0000000000
     33308      1081  ECLIPA    CB1            21.6751274088       39.9081357098       17.7717324898  LPSA31    1               0.0000000000
     33309      1081  ECLIPA    HB1            22.7576930018       40.1281524578       17.9003641080  LPSA31    1               0.0000000000
     33310      1081  ECLIPA    OA6            21.5283724355       38.5949069259       17.3217246577  LPSA31    1               0.0000000000
     33311      1081  ECLIPA    CA6            20.2946890473       37.8892568556       17.5745106853  LPSA31    1               0.0000000000
     33312      1081  ECLIPA    HA6R           19.4901293981       38.6378772641       17.7226451425  LPSA31    1               0.0000000000
     33313      1081  ECLIPA    HA6S           20.4834234540       37.1598311915       18.4598965841  LPSA31    1               0.0000000000
     33314      1081  ECLIPA    CB4            20.5447440746       42.5388073730       18.3206521937  LPSA31    1               0.0000000000
     33315      1081  ECLIPA    HB4            19.4967187350       42.3463171187       18.0085584641  LPSA31    1               0.0000000000
     33316      1081  ECLIPA    OB4            20.8940993495       43.8142084341       18.9017319965  LPSA31    1               0.0000000000
     33317      1081  ECLIPA    PB             19.7263617578       44.8390769871       19.3234616795  LPSA31    1               0.0000000000
     33318      1081  ECLIPA    OPB4           20.2263506112       45.6122115688       20.5579515876  LPSA31    1               0.0000000000
     33319      1081  ECLIPA    OPB3           18.5789674303       43.8562958842       19.6614545037  LPSA31    1               0.0000000000
     33320      1081  ECLIPA    OPB2           19.3888792189       45.6795092895       18.0829495795  LPSA31    1               0.0000000000
     33321      1081  ECLIPA    CB3            21.3919996793       42.2537597675       17.0955893951  LPSA31    1               0.0000000000
     33322      1081  ECLIPA    OB3            21.0654010810       43.0137125300       15.9186528231  LPSA31    1               0.0000000000
     33323      1081  ECLIPA    HB3            22.5002927788       42.2547223834       17.3284540628  LPSA31    1               0.0000000000
     33324      1081  ECLIPA    C71            21.7053275871       44.1121620462       15.6929469039  LPSA31    1               0.0000000000
     33325      1081  ECLIPA    O71            22.6701724137       44.5150570674       16.3832172580  LPSA31    1               0.0000000000
     33326      1081  ECLIPA    C72            21.1807611075       44.6958605950       14.3548430386  LPSA31    1               0.0000000000
     33327      1081  ECLIPA    H72R           21.3188211323       43.9463109949       13.5774555414  LPSA31    1               0.0000000000
     33328      1081  ECLIPA    H72S           21.7177652465       45.7150177401       14.1464415926  LPSA31    1               0.0000000000
     33329      1081  ECLIPA    CB2            21.1858159563       40.7858722113       16.6720734084  LPSA31    1               0.0000000000
     33330      1081  ECLIPA    HB2            20.0199872808       40.6524296254       16.5298168153  LPSA31    1               0.0000000000
     33331      1081  ECLIPA    NB2            21.9477235353       40.4239518792       15.4577284722  LPSA31    1               0.0000000000
     33332      1081  ECLIPA    HNB2           22.8972977685       40.1462800496       15.5965609326  LPSA31    1               0.0000000000
     33333      1081  ECLIPA    CA4            21.1364330233       36.3463304810       15.7929312798  LPSA31    1               0.0000000000
     33334      1081  ECLIPA    HA4            21.9195891720       37.0873804097       15.4903430209  LPSA31    1               0.0000000000
     33335      1081  ECLIPA    OA4            21.6334821631       35.5191500867       16.8012065728  LPSA31    1               0.0000000000
     33336      1081  ECLIPA    HOA4           21.7442111877       35.9620804480       17.5928838569  LPSA31    1               0.0000000000
     33337      1081  ECLIPA    CA5            19.9816165235       37.0645815679       16.3547806008  LPSA31    1               0.0000000000
     33338      1081  ECLIPA    HA5            19.0220557052       36.4415010879       16.5880746347  LPSA31    1               0.0000000000
     33339      1081  ECLIPA    OA5            19.5351154601       38.0058827334       15.3689671688  LPSA31    1               0.0000000000
     33340      1081  ECLIPA    CA1            19.1737475968       37.3386075337       14.1076640156  LPSA31    1               0.0000000000
     33341      1081  ECLIPA    HA1            19.1891534313       38.2223604436       13.4118188108  LPSA31    1               0.0000000000
     33342      1081  ECLIPA    OA1            17.8787431544       36.7711378488       14.1359876212  LPSA31    1               0.0000000000
     33343      1081  ECLIPA    OPA2           16.3176837689       36.8330288789       15.9734101064  LPSA31    1               0.0000000000
     33344      1081  ECLIPA    OPA3           16.9224069670       39.0300825109       14.8300177673  LPSA31    1               0.0000000000
     33345      1081  ECLIPA    OPA4           15.5244807460       37.3886898900       13.6615320840  LPSA31    1               0.0000000000
     33346      1081  ECLIPA    PA             16.6313837791       37.5659924764       14.6765383084  LPSA31    1               0.0000000000
     33347      1081  ECLIPA    CA3            20.8147602589       35.5733571397       14.5219348229  LPSA31    1               0.0000000000
     33348      1081  ECLIPA    HA3            20.0448898734       34.7330324773       14.7377032538  LPSA31    1               0.0000000000
     33349      1081  ECLIPA    OA3            21.9984751402       34.8451849836       14.2498111976  LPSA31    1               0.0000000000
     33350      1081  ECLIPA    C31            22.9479586551       35.4913938594       13.5006246295  LPSA31    1               0.0000000000
     33351      1081  ECLIPA    O31            22.9292225492       35.6568972984       12.2941239937  LPSA31    1               0.0000000000
     33352      1081  ECLIPA    C32            24.2721253957       35.5023634828       14.2780289507  LPSA31    1               0.0000000000
     33353      1081  ECLIPA    H32R           25.0095043392       34.8995901701       13.7149713840  LPSA31    1               0.0000000000
     33354      1081  ECLIPA    H32S           24.1218947939       35.0908559871       15.2729523512  LPSA31    1               0.0000000000
     33355      1081  ECLIPA    CA2            20.3318154351       36.5831158024       13.4984733916  LPSA31    1               0.0000000000
     33356      1081  ECLIPA    HA2            21.1121786176       37.3419697615       13.3982259915  LPSA31    1               0.0000000000
     33357      1081  ECLIPA    NA2            19.9537638608       35.9785661471       12.2035087571  LPSA31    1               0.0000000000
     33358      1081  ECLIPA    HNA2           20.1904584610       35.0444053724       12.0865030408  LPSA31    1               0.0000000000
     33359      1081  ECLIPA    C73            19.7150561297       45.0446289751       14.3319064372  LPSA31    1               0.0000000000
     33360      1081  ECLIPA    H73R           19.3912545622       45.5699554490       15.2227416964  LPSA31    1               0.0000000000
     33361      1081  ECLIPA    O73            18.9953062325       43.7885291883       14.2644256719  LPSA31    1               0.0000000000
     33362      1081  ECLIPA    C81            17.8109472597       43.5587286465       14.8555734565  LPSA31    1               0.0000000000
     33363      1081  ECLIPA    O81            17.3555875143       44.4227045707       15.6690894779  LPSA31    1               0.0000000000
     33364      1081  ECLIPA    C82            17.1624798515       42.2536401959       14.3536111794  LPSA31    1               0.0000000000
     33365      1081  ECLIPA    H82R           16.2189078634       42.0584279864       14.8531840528  LPSA31    1               0.0000000000
     33366      1081  ECLIPA    H82S           17.8232259783       41.3743552926       14.5323473422  LPSA31    1               0.0000000000
     33367      1081  ECLIPA    C83            16.9271655879       42.3359850866       12.8301722806  LPSA31    1               0.0000000000
     33368      1081  ECLIPA    H83R           17.8855605412       42.0909597373       12.2351841548  LPSA31    1               0.0000000000
     33369      1081  ECLIPA    H83S           16.7536845789       43.3866984323       12.5911296392  LPSA31    1               0.0000000000
     33370      1081  ECLIPA    C84            15.8814209667       41.3310753416       12.3050927261  LPSA31    1               0.0000000000
     33371      1081  ECLIPA    H84R           14.8840172953       41.6979709437       12.5767117503  LPSA31    1               0.0000000000
     33372      1081  ECLIPA    H84S           16.1783147149       40.3991962659       12.7369555497  LPSA31    1               0.0000000000
     33373      1081  ECLIPA    C85            15.9774696726       41.1758263817       10.7695484051  LPSA31    1               0.0000000000
     33374      1081  ECLIPA    H85R           17.0512138595       41.1134218161       10.5503608829  LPSA31    1               0.0000000000
     33375      1081  ECLIPA    H85S           15.6176488856       42.1082460342       10.2367999955  LPSA31    1               0.0000000000
     33376      1081  ECLIPA    C86            15.3340873960       39.8403188672       10.3034592726  LPSA31    1               0.0000000000
     33377      1081  ECLIPA    H86R           14.2417519954       39.9461425334        9.9932223571  LPSA31    1               0.0000000000
     33378      1081  ECLIPA    H86S           15.3485114864       39.0993477739       11.0807540114  LPSA31    1               0.0000000000
     33379      1081  ECLIPA    C87            16.1557070586       39.1515481027        9.1601018854  LPSA31    1               0.0000000000
     33380      1081  ECLIPA    H87R           15.6617836642       38.2528795948        8.8049419625  LPSA31    1               0.0000000000
     33381      1081  ECLIPA    H87S           17.1537101155       38.8029456318        9.5406723883  LPSA31    1               0.0000000000
     33382      1081  ECLIPA    C88            16.4633709524       40.1048484854        8.0318999685  LPSA31    1               0.0000000000
     33383      1081  ECLIPA    H88R           17.2785129846       40.8348825770        8.3479828359  LPSA31    1               0.0000000000
     33384      1081  ECLIPA    H88S           15.6161521361       40.8431544486        7.9254521495  LPSA31    1               0.0000000000
     33385      1081  ECLIPA    C89            16.9475206419       39.4231972379        6.7101000712  LPSA31    1               0.0000000000
     33386      1081  ECLIPA    H89R           17.2909619906       38.3791424460        6.8746682686  LPSA31    1               0.0000000000
     33387      1081  ECLIPA    H89S           17.7752028592       39.9106653542        6.2317001698  LPSA31    1               0.0000000000
     33388      1081  ECLIPA    C810           15.7826490869       39.4532114976        5.7047246593  LPSA31    1               0.0000000000
     33389      1081  ECLIPA    H810R          15.2514613713       40.3728974811        6.0108430704  LPSA31    1               0.0000000000
     33390      1081  ECLIPA    H810S          15.1630983274       38.5901693957        5.8554647029  LPSA31    1               0.0000000000
     33391      1081  ECLIPA    C811           16.1755023335       39.5025227033        4.2179945741  LPSA31    1               0.0000000000
     33392      1081  ECLIPA    H811R          15.4510958044       39.2123148511        3.5081125689  LPSA31    1               0.0000000000
     33393      1081  ECLIPA    H811S          17.1415731386       38.8736164759        4.1819101877  LPSA31    1               0.0000000000
     33394      1081  ECLIPA    C812           16.7526863291       40.8443788696        3.7413673409  LPSA31    1               0.0000000000
     33395      1081  ECLIPA    H812R          17.1498748977       40.6747494600        2.6403157337  LPSA31    1               0.0000000000
     33396      1081  ECLIPA    H812S          17.4825247632       41.2766664027        4.4144737196  LPSA31    1               0.0000000000
     33397      1081  ECLIPA    C813           15.7268151623       41.9909799436        3.6785234959  LPSA31    1               0.0000000000
     33398      1081  ECLIPA    H813R          14.9510227124       41.6788319699        2.9398073555  LPSA31    1               0.0000000000
     33399      1081  ECLIPA    H813S          15.1706071701       42.2238715167        4.6616087352  LPSA31    1               0.0000000000
     33400      1081  ECLIPA    C814           16.2959304292       43.2864609130        3.1377409857  LPSA31    1               0.0000000000
     33401      1081  ECLIPA    H814R          16.9532348605       43.2007948675        2.1719074593  LPSA31    1               0.0000000000
     33402      1081  ECLIPA    H814S          16.9055329020       43.7642883729        3.9166242729  LPSA31    1               0.0000000000
     33403      1081  ECLIPA    H814T          15.4809558872       44.0063021003        2.8964685373  LPSA31    1               0.0000000000
     33404      1081  ECLIPA    C74            19.1681357085       45.8532168381       13.1792855021  LPSA31    1               0.0000000000
     33405      1081  ECLIPA    H74R           19.5487226156       46.8560362904       12.9935747315  LPSA31    1               0.0000000000
     33406      1081  ECLIPA    H74S           18.0205700401       45.9615126679       13.3086690609  LPSA31    1               0.0000000000
     33407      1081  ECLIPA    C75            19.2647179760       45.0420255097       11.8151371119  LPSA31    1               0.0000000000
     33408      1081  ECLIPA    H75R           18.3264904093       45.3180364119       11.2107603889  LPSA31    1               0.0000000000
     33409      1081  ECLIPA    H75S           19.2334279975       43.9525039085       12.0082837783  LPSA31    1               0.0000000000
     33410      1081  ECLIPA    C76            20.5006697843       45.3482042407       10.9251453624  LPSA31    1               0.0000000000
     33411      1081  ECLIPA    H76R           21.3866900844       44.8051499983       11.3555905686  LPSA31    1               0.0000000000
     33412      1081  ECLIPA    H76S           20.8223056227       46.4703790669       10.9731137071  LPSA31    1               0.0000000000
     33413      1081  ECLIPA    C77            20.4087668168       44.9951710702        9.4191603634  LPSA31    1               0.0000000000
     33414      1081  ECLIPA    H77R           19.5982414006       45.5691694842        9.0408775908  LPSA31    1               0.0000000000
     33415      1081  ECLIPA    H77S           20.0369937287       43.9531461068        9.2852383479  LPSA31    1               0.0000000000
     33416      1081  ECLIPA    C78            21.8173296908       45.1410879646        8.8297405752  LPSA31    1               0.0000000000
     33417      1081  ECLIPA    H78R           22.2070451739       46.1046453287        9.1562620580  LPSA31    1               0.0000000000
     33418      1081  ECLIPA    H78S           22.4055869287       44.3150129868        9.3169442960  LPSA31    1               0.0000000000
     33419      1081  ECLIPA    C79            21.8957306959       44.7623609790        7.2570767761  LPSA31    1               0.0000000000
     33420      1081  ECLIPA    H79R           22.2449186894       43.6873186950        7.1763205913  LPSA31    1               0.0000000000
     33421      1081  ECLIPA    H79S           22.6529527958       45.3981614525        6.7882549413  LPSA31    1               0.0000000000
     33422      1081  ECLIPA    C710           20.6919489122       45.1174661423        6.3785096220  LPSA31    1               0.0000000000
     33423      1081  ECLIPA    H710R          19.8337006224       44.5805849752        6.8460783027  LPSA31    1               0.0000000000
     33424      1081  ECLIPA    H710S          20.5245377068       46.1223695930        6.4843026416  LPSA31    1               0.0000000000
     33425      1081  ECLIPA    C711           20.8198430377       44.6659252420        4.9384125046  LPSA31    1               0.0000000000
     33426      1081  ECLIPA    H711R          21.6819779353       45.2236105942        4.5670708729  LPSA31    1               0.0000000000
     33427      1081  ECLIPA    H711S          20.9626182004       43.5553933888        4.9306188492  LPSA31    1               0.0000000000
     33428      1081  ECLIPA    C712           19.5285350919       45.0036519089        4.2148670498  LPSA31    1               0.0000000000
     33429      1081  ECLIPA    H712R          19.3991414434       46.0871325510        4.3130666899  LPSA31    1               0.0000000000
     33430      1081  ECLIPA    H712S          18.7431586496       44.5639281246        4.8522839389  LPSA31    1               0.0000000000
     33431      1081  ECLIPA    C713           19.5083815956       44.4185264917        2.7357390519  LPSA31    1               0.0000000000
     33432      1081  ECLIPA    H713R          19.5729902015       43.3040625548        2.8800411466  LPSA31    1               0.0000000000
     33433      1081  ECLIPA    H713S          18.5059863005       44.7516836205        2.2750064041  LPSA31    1               0.0000000000
     33434      1081  ECLIPA    C714           20.6180508421       45.0673308611        1.8879763961  LPSA31    1               0.0000000000
     33435      1081  ECLIPA    H714R          20.4480616122       46.1460056381        1.7626189762  LPSA31    1               0.0000000000
     33436      1081  ECLIPA    H714S          21.6215130716       44.7613150057        2.2081901572  LPSA31    1               0.0000000000
     33437      1081  ECLIPA    H714T          20.4223769466       44.6345471907        0.9249202435  LPSA31    1               0.0000000000
     33438      1081  ECLIPA    C51            21.4523055176       40.6896037851       14.2380633031  LPSA31    1               0.0000000000
     33439      1081  ECLIPA    O51            20.2212978673       40.8754848734       14.1304636378  LPSA31    1               0.0000000000
     33440      1081  ECLIPA    C52            22.4285428329       40.8439113297       13.0157035712  LPSA31    1               0.0000000000
     33441      1081  ECLIPA    H52R           22.8407557116       41.8354243998       12.8950255930  LPSA31    1               0.0000000000
     33442      1081  ECLIPA    H52S           23.2006733285       40.1368995221       13.2222025935  LPSA31    1               0.0000000000
     33443      1081  ECLIPA    C53            21.6685683373       40.2859218325       11.7526064304  LPSA31    1               0.0000000000
     33444      1081  ECLIPA    H53R           20.9052662102       39.5583650439       12.0082431084  LPSA31    1               0.0000000000
     33445      1081  ECLIPA    O53            22.6936229124       39.8543743172       10.8431816314  LPSA31    1               0.0000000000
     33446      1081  ECLIPA    C61            22.7398146813       38.5752293019       10.5090573566  LPSA31    1               0.0000000000
     33447      1081  ECLIPA    O61            21.9833828454       37.7272749600       10.8659713306  LPSA31    1               0.0000000000
     33448      1081  ECLIPA    C62            23.9355848714       38.3426460337        9.5765835255  LPSA31    1               0.0000000000
     33449      1081  ECLIPA    H62R           24.8424893693       38.2901807789       10.2152837125  LPSA31    1               0.0000000000
     33450      1081  ECLIPA    H62S           24.1009272344       39.3054359717        9.0470049452  LPSA31    1               0.0000000000
     33451      1081  ECLIPA    C63            23.7320143568       37.0942294146        8.6803029234  LPSA31    1               0.0000000000
     33452      1081  ECLIPA    H63R           22.7069461543       37.1516301139        8.2798705976  LPSA31    1               0.0000000000
     33453      1081  ECLIPA    H63S           23.8045653705       36.1130399436        9.3252199642  LPSA31    1               0.0000000000
     33454      1081  ECLIPA    C64            24.6410409720       36.9071071199        7.5279067597  LPSA31    1               0.0000000000
     33455      1081  ECLIPA    H64R           24.4704337556       35.9227205264        6.9620099216  LPSA31    1               0.0000000000
     33456      1081  ECLIPA    H64S           25.7055651443       36.9340013458        7.9657393466  LPSA31    1               0.0000000000
     33457      1081  ECLIPA    C65            24.5064895402       38.1199389060        6.5414948800  LPSA31    1               0.0000000000
     33458      1081  ECLIPA    H65R           24.7928664725       38.9444089471        7.2423230371  LPSA31    1               0.0000000000
     33459      1081  ECLIPA    H65S           23.4559533784       38.1902774419        6.1828980290  LPSA31    1               0.0000000000
     33460      1081  ECLIPA    C66            25.4050246590       38.0987702003        5.2222643966  LPSA31    1               0.0000000000
     33461      1081  ECLIPA    H66R           26.4454299691       38.0778908937        5.5395647249  LPSA31    1               0.0000000000
     33462      1081  ECLIPA    H66S           25.1352521429       39.1164974247        4.8113963288  LPSA31    1               0.0000000000
     33463      1081  ECLIPA    C67            25.1277448296       37.0554350052        4.1696839457  LPSA31    1               0.0000000000
     33464      1081  ECLIPA    H67R           25.0829058656       36.0437946170        4.5058181646  LPSA31    1               0.0000000000
     33465      1081  ECLIPA    H67S           25.8958604804       37.1268924069        3.3478820057  LPSA31    1               0.0000000000
     33466      1081  ECLIPA    C68            23.7812598485       37.1885315291        3.5077075145  LPSA31    1               0.0000000000
     33467      1081  ECLIPA    H68R           23.5206012409       38.1535727274        3.0112508411  LPSA31    1               0.0000000000
     33468      1081  ECLIPA    H68S           23.1128639611       36.9285641090        4.3087918325  LPSA31    1               0.0000000000
     33469      1081  ECLIPA    C69            23.7074007834       36.2603002900        2.2963532923  LPSA31    1               0.0000000000
     33470      1081  ECLIPA    H69R           24.3542451441       35.3620631511        2.3203210098  LPSA31    1               0.0000000000
     33471      1081  ECLIPA    H69S           24.1485217728       36.8130797008        1.4693744207  LPSA31    1               0.0000000000
     33472      1081  ECLIPA    C610           22.3286438554       35.8391910296        1.9396251084  LPSA31    1               0.0000000000
     33473      1081  ECLIPA    H610R          21.6176255816       36.7024706131        2.0603347121  LPSA31    1               0.0000000000
     33474      1081  ECLIPA    H610S          21.9555362719       35.0712539464        2.6933643884  LPSA31    1               0.0000000000
     33475      1081  ECLIPA    C611           22.2290839517       35.1546139593        0.5312153135  LPSA31    1               0.0000000000
     33476      1081  ECLIPA    H611R          22.9031089547       34.2768702825        0.5735373188  LPSA31    1               0.0000000000
     33477      1081  ECLIPA    H611S          21.2989386853       34.6335122547        0.3609598123  LPSA31    1               0.0000000000
     33478      1081  ECLIPA    C612           22.4942745466       36.1576724975       -0.5788949292  LPSA31    1               0.0000000000
     33479      1081  ECLIPA    H612R          21.6377556227       36.8884933073       -0.6060949542  LPSA31    1               0.0000000000
     33480      1081  ECLIPA    H612S          23.3673851060       36.7664520663       -0.3132441764  LPSA31    1               0.0000000000
     33481      1081  ECLIPA    H612T          22.5818153887       35.6771779077       -1.5574606966  LPSA31    1               0.0000000000
     33482      1081  ECLIPA    C54            20.9713029607       41.5324267451       11.1776054589  LPSA31    1               0.0000000000
     33483      1081  ECLIPA    H54R           21.7670030607       42.2813837122       10.8869876633  LPSA31    1               0.0000000000
     33484      1081  ECLIPA    H54S           20.3782956752       42.0369976803       11.9574517429  LPSA31    1               0.0000000000
     33485      1081  ECLIPA    C55            20.0278114727       41.3718490982        9.9916770240  LPSA31    1               0.0000000000
     33486      1081  ECLIPA    H55R           19.3801331700       42.2539553188        9.7856946516  LPSA31    1               0.0000000000
     33487      1081  ECLIPA    H55S           19.3219032763       40.5023744393       10.2436295858  LPSA31    1               0.0000000000
     33488      1081  ECLIPA    C56            20.8698144917       41.2314824437        8.7515486822  LPSA31    1               0.0000000000
     33489      1081  ECLIPA    H56R           21.5376644860       40.3203947838        8.8382497819  LPSA31    1               0.0000000000
     33490      1081  ECLIPA    H56S           21.4782241615       42.0386828310        8.4741334449  LPSA31    1               0.0000000000
     33491      1081  ECLIPA    C57            20.1195013134       40.7869328691        7.4395707935  LPSA31    1               0.0000000000
     33492      1081  ECLIPA    H57R           19.2860299182       41.4431758231        7.1827428724  LPSA31    1               0.0000000000
     33493      1081  ECLIPA    H57S           19.6549896633       39.7812934882        7.5196553379  LPSA31    1               0.0000000000
     33494      1081  ECLIPA    C58            21.1380752903       40.6532318862        6.2350750625  LPSA31    1               0.0000000000
     33495      1081  ECLIPA    H58R           21.8515768708       41.5228818335        6.2095761879  LPSA31    1               0.0000000000
     33496      1081  ECLIPA    H58S           21.8529522929       39.8341471840        6.5224540661  LPSA31    1               0.0000000000
     33497      1081  ECLIPA    C59            20.4067820550       40.5575725875        4.8667186835  LPSA31    1               0.0000000000
     33498      1081  ECLIPA    H59R           19.7629296571       41.4309896675        4.6589989540  LPSA31    1               0.0000000000
     33499      1081  ECLIPA    H59S           19.8157503190       39.6458275550        5.0825555512  LPSA31    1               0.0000000000
     33500      1081  ECLIPA    C510           21.3817570711       40.5708492461        3.6752379292  LPSA31    1               0.0000000000
     33501      1081  ECLIPA    H510R          22.3014827907       39.9012337835        3.7937959224  LPSA31    1               0.0000000000
     33502      1081  ECLIPA    H510S          21.7992851622       41.6555641328        3.4613250382  LPSA31    1               0.0000000000
     33503      1081  ECLIPA    C511           20.7843205503       40.2037261496        2.3004848829  LPSA31    1               0.0000000000
     33504      1081  ECLIPA    H511R          20.7357123767       39.0983323096        2.2679211996  LPSA31    1               0.0000000000
     33505      1081  ECLIPA    H511S          19.7151564301       40.5494712610        2.1940961976  LPSA31    1               0.0000000000
     33506      1081  ECLIPA    C512           21.5883001957       40.6346348944        1.0189424135  LPSA31    1               0.0000000000
     33507      1081  ECLIPA    H512R          20.9498298700       40.5136200640        0.0815295424  LPSA31    1               0.0000000000
     33508      1081  ECLIPA    H512S          21.8905915658       41.6850200678        1.1129704346  LPSA31    1               0.0000000000
     33509      1081  ECLIPA    C513           22.8196808206       39.6903171680        0.6457389972  LPSA31    1               0.0000000000
     33510      1081  ECLIPA    H513R          22.4854252503       38.6162590103        0.5010832175  LPSA31    1               0.0000000000
     33511      1081  ECLIPA    H513S          23.5028465238       39.6700604523        1.4088770719  LPSA31    1               0.0000000000
     33512      1081  ECLIPA    C514           23.4404393877       40.1156507786       -0.6567184026  LPSA31    1               0.0000000000
     33513      1081  ECLIPA    H514R          23.7171758759       41.1693087769       -0.6273993866  LPSA31    1               0.0000000000
     33514      1081  ECLIPA    H514S          24.3816847675       39.5633960739       -0.7024724270  LPSA31    1               0.0000000000
     33515      1081  ECLIPA    H514T          22.7337586445       39.9169939336       -1.5427815912  LPSA31    1               0.0000000000
     33516      1081  ECLIPA    C33            24.9878107340       36.9130943413       14.4880792826  LPSA31    1               0.0000000000
     33517      1081  ECLIPA    H33R           26.0363276941       36.7006275672       14.8828993596  LPSA31    1               0.0000000000
     33518      1081  ECLIPA    O33            24.3141753448       37.6789037517       15.4699768821  LPSA31    1               0.0000000000
     33519      1081  ECLIPA    HO33           24.4913211609       37.3079764619       16.2926205744  LPSA31    1               0.0000000000
     33520      1081  ECLIPA    C34            25.1574906881       37.7987278204       13.2255459338  LPSA31    1               0.0000000000
     33521      1081  ECLIPA    H34R           24.1826717614       38.0122669777       12.8010908313  LPSA31    1               0.0000000000
     33522      1081  ECLIPA    H34S           25.6720214826       37.2010193090       12.3772221142  LPSA31    1               0.0000000000
     33523      1081  ECLIPA    C35            25.8910585117       39.1374520859       13.4256256262  LPSA31    1               0.0000000000
     33524      1081  ECLIPA    H35R           26.9214631523       38.9186185750       13.6963698038  LPSA31    1               0.0000000000
     33525      1081  ECLIPA    H35S           25.4285443428       39.6697677511       14.2668166019  LPSA31    1               0.0000000000
     33526      1081  ECLIPA    C36            26.0486379860       40.0423339995       12.1865608177  LPSA31    1               0.0000000000
     33527      1081  ECLIPA    H36R           25.0685526132       39.7709052819       11.7430812241  LPSA31    1               0.0000000000
     33528      1081  ECLIPA    H36S           26.8945740189       39.7709515009       11.4785220412  LPSA31    1               0.0000000000
     33529      1081  ECLIPA    C37            25.9408893093       41.5170971173       12.5255831563  LPSA31    1               0.0000000000
     33530      1081  ECLIPA    H37R           27.0658834565       41.8473356596       12.6765215637  LPSA31    1               0.0000000000
     33531      1081  ECLIPA    H37S           25.4737520549       41.6903292189       13.5128993321  LPSA31    1               0.0000000000
     33532      1081  ECLIPA    C38            25.3258981944       42.4338544475       11.4317274953  LPSA31    1               0.0000000000
     33533      1081  ECLIPA    H38R           24.2238591126       42.4049223354       11.4067421357  LPSA31    1               0.0000000000
     33534      1081  ECLIPA    H38S           25.5449724811       43.4770639361       11.7230999881  LPSA31    1               0.0000000000
     33535      1081  ECLIPA    C39            25.8169499552       42.0491786432       10.0213367345  LPSA31    1               0.0000000000
     33536      1081  ECLIPA    H39R           25.6167436031       40.9646877034        9.8128797222  LPSA31    1               0.0000000000
     33537      1081  ECLIPA    H39S           26.8973978366       42.3484392196        9.9697980947  LPSA31    1               0.0000000000
     33538      1081  ECLIPA    C310           25.2303012707       42.8510637446        8.8401719124  LPSA31    1               0.0000000000
     33539      1081  ECLIPA    H310R          25.6001855578       43.9205745958        9.0626900142  LPSA31    1               0.0000000000
     33540      1081  ECLIPA    H310S          24.1025956232       42.8356620683        8.8945759064  LPSA31    1               0.0000000000
     33541      1081  ECLIPA    C311           25.4599583663       42.1750148218        7.5676235846  LPSA31    1               0.0000000000
     33542      1081  ECLIPA    H311R          26.4778663419       41.7088912252        7.5507520616  LPSA31    1               0.0000000000
     33543      1081  ECLIPA    H311S          24.7259127179       41.3585060164        7.2851462164  LPSA31    1               0.0000000000
     33544      1081  ECLIPA    C312           25.3064329549       43.0838035423        6.3280121142  LPSA31    1               0.0000000000
     33545      1081  ECLIPA    H312R          24.4932109070       43.8363733330        6.4861373960  LPSA31    1               0.0000000000
     33546      1081  ECLIPA    H312S          26.2769891895       43.6211496920        6.1820758986  LPSA31    1               0.0000000000
     33547      1081  ECLIPA    C313           25.0250644397       42.3266171356        4.9895779706  LPSA31    1               0.0000000000
     33548      1081  ECLIPA    H313R          25.9426807075       41.8688900196        4.7825120466  LPSA31    1               0.0000000000
     33549      1081  ECLIPA    H313S          24.2535544183       41.5239729814        5.1572698764  LPSA31    1               0.0000000000
     33550      1081  ECLIPA    C314           24.6125120652       43.1464528988        3.8116661598  LPSA31    1               0.0000000000
     33551      1081  ECLIPA    H314R          25.4014081894       43.9204289264        3.6067793993  LPSA31    1               0.0000000000
     33552      1081  ECLIPA    H314S          24.4284066709       42.5966900267        2.8849361441  LPSA31    1               0.0000000000
     33553      1081  ECLIPA    H314T          23.6603444989       43.7404912864        4.0446347774  LPSA31    1               0.0000000000
     33554      1081  ECLIPA    C11            19.1861669522       36.5193912196       11.2900808200  LPSA31    1               0.0000000000
     33555      1081  ECLIPA    O11            18.8671532032       37.6923698448       11.1394597694  LPSA31    1               0.0000000000
     33556      1081  ECLIPA    C12            18.5577670611       35.5086807177       10.2853014675  LPSA31    1               0.0000000000
     33557      1081  ECLIPA    H12R           17.4653585099       35.3645716803       10.4852637814  LPSA31    1               0.0000000000
     33558      1081  ECLIPA    H12S           19.1072129951       34.5592304310       10.5222272274  LPSA31    1               0.0000000000
     33559      1081  ECLIPA    C13            18.7443537135       35.8416265689        8.8110583416  LPSA31    1               0.0000000000
     33560      1081  ECLIPA    H13R           18.5579176884       36.9583718182        8.5839874118  LPSA31    1               0.0000000000
     33561      1081  ECLIPA    O13            17.7065426735       35.0884229515        8.1311342176  LPSA31    1               0.0000000000
     33562      1081  ECLIPA    HO13           17.5062583723       35.4912874609        7.3064966676  LPSA31    1               0.0000000000
     33563      1081  ECLIPA    C14            20.1730668543       35.4995908237        8.4581579993  LPSA31    1               0.0000000000
     33564      1081  ECLIPA    H14R           20.5326305542       34.5339507700        8.9706443184  LPSA31    1               0.0000000000
     33565      1081  ECLIPA    H14S           20.7962137976       36.3787034819        8.7243868424  LPSA31    1               0.0000000000
     33566      1081  ECLIPA    C15            20.4101344912       35.2762059026        6.9526486677  LPSA31    1               0.0000000000
     33567      1081  ECLIPA    H15R           19.7057073901       34.5675404059        6.5500123177  LPSA31    1               0.0000000000
     33568      1081  ECLIPA    H15S           21.4394203598       34.9215715183        6.8782608049  LPSA31    1               0.0000000000
     33569      1081  ECLIPA    C16            20.2158525755       36.5944518430        6.1622847334  LPSA31    1               0.0000000000
     33570      1081  ECLIPA    H16R           21.1288307309       37.2861610817        6.2733383262  LPSA31    1               0.0000000000
     33571      1081  ECLIPA    H16S           19.4846278381       37.2060300904        6.7182496574  LPSA31    1               0.0000000000
     33572      1081  ECLIPA    C17            19.9248513720       36.3701809996        4.6801229578  LPSA31    1               0.0000000000
     33573      1081  ECLIPA    H17R           20.6873396489       35.5720736459        4.4246758429  LPSA31    1               0.0000000000
     33574      1081  ECLIPA    H17S           20.1205840059       37.2094668336        4.0046542873  LPSA31    1               0.0000000000
     33575      1081  ECLIPA    C18            18.5180407177       35.8891622434        4.4504458171  LPSA31    1               0.0000000000
     33576      1081  ECLIPA    H18R           18.4676884110       35.0459723109        5.0865821920  LPSA31    1               0.0000000000
     33577      1081  ECLIPA    H18S           17.8153714399       36.7090923535        4.7749867078  LPSA31    1               0.0000000000
     33578      1081  ECLIPA    C19            18.2597228008       35.5247770121        3.0097966450  LPSA31    1               0.0000000000
     33579      1081  ECLIPA    H19R           17.2823849770       35.0710061166        2.9245509529  LPSA31    1               0.0000000000
     33580      1081  ECLIPA    H19S           19.0566397758       34.8070314907        2.6238151240  LPSA31    1               0.0000000000
     33581      1081  ECLIPA    C110           18.2154532077       36.7802433845        2.1045801788  LPSA31    1               0.0000000000
     33582      1081  ECLIPA    H110R          17.5579420930       37.5832766270        2.4416701971  LPSA31    1               0.0000000000
     33583      1081  ECLIPA    H110S          19.2835842766       37.0857060953        2.1583327743  LPSA31    1               0.0000000000
     33584      1081  ECLIPA    C111           17.8798378802       36.3598965830        0.7563571155  LPSA31    1               0.0000000000
     33585      1081  ECLIPA    H111R          18.4020394815       35.4283551193        0.3999767799  LPSA31    1               0.0000000000
     33586      1081  ECLIPA    H111S          16.8602016011       36.0768547172        0.7977177860  LPSA31    1               0.0000000000
     33587      1081  ECLIPA    C112           18.0086946213       37.4744269759       -0.2937360943  LPSA31    1               0.0000000000
     33588      1081  ECLIPA    H112R          17.3524605688       38.2397543535        0.1973446929  LPSA31    1               0.0000000000
     33589      1081  ECLIPA    H112S          18.9754051264       37.9785783346       -0.2177998937  LPSA31    1               0.0000000000
     33590      1081  ECLIPA    C113           17.8668384576       36.9929759050       -1.7468031795  LPSA31    1               0.0000000000
     33591      1081  ECLIPA    H113R          18.7385708377       36.3389215035       -1.9802017524  LPSA31    1               0.0000000000
     33592      1081  ECLIPA    H113S          17.0078833779       36.3227902287       -1.8531093719  LPSA31    1               0.0000000000
     33593      1081  ECLIPA    C114           17.6205590202       38.0078321013       -2.8344928043  LPSA31    1               0.0000000000
     33594      1081  ECLIPA    H114R          16.8253459344       38.7464873474       -2.7829422503  LPSA31    1               0.0000000000
     33595      1081  ECLIPA    H114S          18.5536800991       38.6170557637       -2.9951089580  LPSA31    1               0.0000000000
     33596      1081  ECLIPA    H114T          17.2557830674       37.4847468998       -3.7399523103  LPSA31    1               0.0000000000
     33597      1082  AKDO      C1             22.4564294083       41.6676046380       22.4410509549  LPSA31    2               0.0000000000
     33598      1082  AKDO      O11            22.5759554362       42.9397877827       22.4913720772  LPSA31    2               0.0000000000
     33599      1082  AKDO      O12            23.2836000949       40.7839194809       22.0800765534  LPSA31    2               0.0000000000
     33600      1082  AKDO      C2             21.0946837213       41.1293906153       22.8913181237  LPSA31    2               0.0000000000
     33601      1082  AKDO      C6             19.0245879630       41.8257604810       23.8039205188  LPSA31    2               0.0000000000
     33602      1082  AKDO      H6             18.5131853614       41.4683570240       22.9487387861  LPSA31    2               0.0000000000
     33603      1082  AKDO      O6             20.4078596378       42.2093217929       23.4267274814  LPSA31    2               0.0000000000
     33604      1082  AKDO      C3             21.1933237822       40.1103867644       23.9587385105  LPSA31    2               0.0000000000
     33605      1082  AKDO      H31            21.7729951374       40.3888944376       24.7868435866  LPSA31    2               0.0000000000
     33606      1082  AKDO      H32            21.6400166668       39.1463592897       23.4151264596  LPSA31    2               0.0000000000
     33607      1082  AKDO      C4             19.7963626853       39.6669521080       24.3842593775  LPSA31    2               0.0000000000
     33608      1082  AKDO      H4             19.1923334408       39.3389723020       23.5563617270  LPSA31    2               0.0000000000
     33609      1082  AKDO      O4             19.9045436149       38.6175110773       25.3355834555  LPSA31    2               0.0000000000
     33610      1082  AKDO      C5             18.9905410427       40.7585508027       24.9292437177  LPSA31    2               0.0000000000
     33611      1082  AKDO      H5             17.9142646026       40.4524644322       25.0107888161  LPSA31    2               0.0000000000
     33612      1082  AKDO      O5             19.6176458855       41.1966887710       26.2083878813  LPSA31    2               0.0000000000
     33613      1082  AKDO      C7             18.1298099176       43.0890982769       24.1981149098  LPSA31    2               0.0000000000
     33614      1082  AKDO      H7             18.5570514484       43.5353118534       25.0939202098  LPSA31    2               0.0000000000
     33615      1082  AKDO      O7             16.7300374261       42.7334012355       24.3482682347  LPSA31    2               0.0000000000
     33616      1082  AKDO      HO7            16.4032679962       42.6402411533       23.4945166536  LPSA31    2               0.0000000000
     33617      1082  AKDO      C8             18.2289229495       44.0776958720       22.9864433882  LPSA31    2               0.0000000000
     33618      1082  AKDO      H81            19.3172191220       44.3159675106       22.9153150275  LPSA31    2               0.0000000000
     33619      1082  AKDO      H82            17.7973931986       43.5204322558       22.0745354517  LPSA31    2               0.0000000000
     33620      1082  AKDO      O8             17.4771799036       45.3090022059       23.3537996748  LPSA31    2               0.0000000000
     33621      1082  AKDO      HO8            17.9249485877       46.0799285738       22.9179804014  LPSA31    2               0.0000000000
     33622      1083  AKDO      C1             19.1975405971       36.9521378040       23.8027969005  LPSA31    3               1.0000000000
     33623      1083  AKDO      O11            19.7180827691       36.9192077062       22.6471489042  LPSA31    3               1.0000000000
     33624      1083  AKDO      O12            17.9912269461       36.7320388863       24.0656860145  LPSA31    3               1.0000000000
     33625      1083  AKDO      C2             20.0658863349       37.2510481967       25.0166033796  LPSA31    3               1.0000000000
     33626      1083  AKDO      C6             22.3467050580       37.3577641566       25.7688829792  LPSA31    3               1.0000000000
     33627      1083  AKDO      H6             22.2598251987       38.4729379333       25.9810553331  LPSA31    3               1.0000000000
     33628      1083  AKDO      O6             21.4817321496       37.0019449067       24.7076657818  LPSA31    3               1.0000000000
     33629      1083  AKDO      C3             19.7034972782       36.4880659873       26.3187707743  LPSA31    3               1.0000000000
     33630      1083  AKDO      H31            19.8276543593       35.3399119848       26.1504935106  LPSA31    3               1.0000000000
     33631      1083  AKDO      H32            18.6529663066       36.6568150849       26.5929217108  LPSA31    3               1.0000000000
     33632      1083  AKDO      C4             20.6487666136       36.9372222438       27.4036122013  LPSA31    3               1.0000000000
     33633      1083  AKDO      H4             20.6413115963       38.0315083665       27.4051754129  LPSA31    3               1.0000000000
     33634      1083  AKDO      O4             20.3482383860       36.5052215929       28.7388570077  LPSA31    3               1.0000000000
     33635      1083  AKDO      HO4            20.2278782640       37.2026154448       29.3717785514  LPSA31    3               1.0000000000
     33636      1083  AKDO      C5             21.9795858573       36.6307767079       27.0369167275  LPSA31    3               1.0000000000
     33637      1083  AKDO      H5             22.6712491782       36.8931457828       27.9236884022  LPSA31    3               1.0000000000
     33638      1083  AKDO      O5             22.1408467580       35.2121507714       26.8495261943  LPSA31    3               1.0000000000
     33639      1083  AKDO      HO5            21.5531258656       34.9091606641       26.1887877298  LPSA31    3               1.0000000000
     33640      1083  AKDO      C7             23.7541012211       37.0455010395       25.3258859863  LPSA31    3               1.0000000000
     33641      1083  AKDO      H7             23.8913289859       35.9415754837       25.1324849511  LPSA31    3               1.0000000000
     33642      1083  AKDO      O7             24.6710625726       37.4831860772       26.3661029982  LPSA31    3               1.0000000000
     33643      1083  AKDO      HO7            25.5639728848       37.1315246937       26.1647669547  LPSA31    3               1.0000000000
     33644      1083  AKDO      C8             24.0391171502       37.8893258695       24.1539635864  LPSA31    3               1.0000000000
     33645      1083  AKDO      H81            23.3340673660       37.6678912216       23.3419478721  LPSA31    3               1.0000000000
     33646      1083  AKDO      H82            24.0209497198       38.9817263002       24.2853144505  LPSA31    3               1.0000000000
     33647      1083  AKDO      O8             25.3244674914       37.5962844203       23.6541307456  LPSA31    3               1.0000000000
     33648      1083  AKDO      HO8            25.0838565590       36.7427746794       23.2473452835  LPSA31    3               1.0000000000
     33649      1084  AHEP      C1             18.7887789340       41.6183245867       27.2793229502  LPSA31    4               2.0000000000
     33650      1084  AHEP      H1             18.6316441391       42.6621976215       26.8517192453  LPSA31    4               2.0000000000
     33651      1084  AHEP      C5             17.4588257588       39.7323224407       28.0185271385  LPSA31    4               2.0000000000
     33652      1084  AHEP      H5             18.3371645050       39.1301115903       27.5619054335  LPSA31    4               2.0000000000
     33653      1084  AHEP      O5             17.4989166790       41.0126761280       27.3942805697  LPSA31    4               2.0000000000
     33654      1084  AHEP      C2             19.2950510734       41.8336759818       28.6827861277  LPSA31    4               2.0000000000
     33655      1084  AHEP      H2             20.3046409715       42.2547973912       28.7442425996  LPSA31    4               2.0000000000
     33656      1084  AHEP      O2             18.4654540223       42.7215068767       29.3407203943  LPSA31    4               2.0000000000
     33657      1084  AHEP      HO2            18.9840148290       43.3145718975       29.8507927467  LPSA31    4               2.0000000000
     33658      1084  AHEP      C3             19.3041202031       40.5172072553       29.4857672188  LPSA31    4               2.0000000000
     33659      1084  AHEP      H3             20.0949313450       39.7997458649       29.2269906369  LPSA31    4               2.0000000000
     33660      1084  AHEP      O3             19.5905369402       40.7728684777       30.7882097304  LPSA31    4               2.0000000000
     33661      1084  AHEP      C4             17.9263684235       39.9070106339       29.4546205599  LPSA31    4               2.0000000000
     33662      1084  AHEP      H4             17.1268645274       40.4879819813       29.9788637739  LPSA31    4               2.0000000000
     33663      1084  AHEP      O4             17.9834200406       38.6282113076       30.0145912217  LPSA31    4               2.0000000000
     33664      1084  AHEP      P4             17.3255473064       38.2686972423       31.4978499249  LPSA31    4               2.0000000000
     33665      1084  AHEP      OP42           18.1577369245       37.2405079757       32.1560374192  LPSA31    4               2.0000000000
     33666      1084  AHEP      OP43           15.9981965417       37.7400282579       31.0397938518  LPSA31    4               2.0000000000
     33667      1084  AHEP      OP44           17.1182979365       39.5853765046       32.3098937101  LPSA31    4               2.0000000000
     33668      1084  AHEP      C6             16.0750318241       39.0218345627       27.7982482844  LPSA31    4               2.0000000000
     33669      1084  AHEP      H6             16.2408979743       37.9385301429       28.0833143566  LPSA31    4               2.0000000000
     33670      1084  AHEP      O6             15.1437549531       39.6098149658       28.7103505027  LPSA31    4               2.0000000000
     33671      1084  AHEP      HO6            14.6374071900       38.9223230225       29.2203787365  LPSA31    4               2.0000000000
     33672      1084  AHEP      C7             15.5704692236       39.0615018854       26.3054198206  LPSA31    4               2.0000000000
     33673      1084  AHEP      H71            14.6563475266       38.3955110986       26.1576126064  LPSA31    4               2.0000000000
     33674      1084  AHEP      H72            16.4240807978       38.8446250456       25.6323487339  LPSA31    4               2.0000000000
     33675      1084  AHEP      O7             15.1064027237       40.3673720825       25.9755159574  LPSA31    4               2.0000000000
     33676      1084  AHEP      HO7            14.2057494897       40.4560474419       26.3256794122  LPSA31    4               2.0000000000
     33677      1085  AHEP      C1             20.7467091850       40.1930585516       31.4342177374  LPSA31    5               3.0000000000
     33678      1085  AHEP      H1             21.0161163608       39.2038255396       30.9794447437  LPSA31    5               3.0000000000
     33679      1085  AHEP      C5             21.7151521147       42.3157152838       31.9165413065  LPSA31    5               3.0000000000
     33680      1085  AHEP      H5             20.6973975786       42.7300486457       31.6031509785  LPSA31    5               3.0000000000
     33681      1085  AHEP      O5             21.8957799579       41.0497026567       31.3013865768  LPSA31    5               3.0000000000
     33682      1085  AHEP      C2             20.5728197716       39.9545461352       32.9718957084  LPSA31    5               3.0000000000
     33683      1085  AHEP      H2             19.6268253017       39.3344938932       33.0921707216  LPSA31    5               3.0000000000
     33684      1085  AHEP      O2             21.6696362021       39.2109181923       33.4691025827  LPSA31    5               3.0000000000
     33685      1085  AHEP      HO2            21.4064455103       38.3122473752       33.6403503244  LPSA31    5               3.0000000000
     33686      1085  AHEP      C3             20.3367315709       41.2938000185       33.7004304811  LPSA31    5               3.0000000000
     33687      1085  AHEP      H3             19.4226821112       41.7766865694       33.3375632548  LPSA31    5               3.0000000000
     33688      1085  AHEP      O3             20.1856989221       41.2183267638       35.1462238331  LPSA31    5               3.0000000000
     33689      1085  AHEP      C4             21.5420962183       42.1340480264       33.4524658705  LPSA31    5               3.0000000000
     33690      1085  AHEP      H4             22.4799728957       41.6498255771       33.8188816395  LPSA31    5               3.0000000000
     33691      1085  AHEP      O4             21.3256323940       43.4328653258       34.0881196202  LPSA31    5               3.0000000000
     33692      1085  AHEP      P4             22.2643208779       43.9206617164       35.2810123301  LPSA31    5               3.0000000000
     33693      1085  AHEP      OP42           21.6213134341       45.1765706036       35.8202965042  LPSA31    5               3.0000000000
     33694      1085  AHEP      OP43           23.6335038017       44.2098362537       34.6107506294  LPSA31    5               3.0000000000
     33695      1085  AHEP      OP44           22.3807881620       42.7669820793       36.2417033353  LPSA31    5               3.0000000000
     33696      1085  AHEP      C6             22.8054905672       43.3340618224       31.5493607386  LPSA31    5               3.0000000000
     33697      1085  AHEP      H6             22.5841011781       44.3360869141       31.9533288164  LPSA31    5               3.0000000000
     33698      1085  AHEP      O6             24.0685333254       42.9008373086       32.0428602265  LPSA31    5               3.0000000000
     33699      1085  AHEP      HO6            24.5101765166       42.1683650563       31.5367188277  LPSA31    5               3.0000000000
     33700      1085  AHEP      C7             22.7769251846       43.6015427015       30.0822725317  LPSA31    5               3.0000000000
     33701      1085  AHEP      H71            23.0722613279       44.6608902902       29.9169108581  LPSA31    5               3.0000000000
     33702      1085  AHEP      H72            21.7817718678       43.4683314536       29.6179339851  LPSA31    5               3.0000000000
     33703      1085  AHEP      O7             23.8271910899       42.8040878966       29.4957736452  LPSA31    5               3.0000000000
     33704      1086  AHEP      C1             23.3670480463       41.6894648137       28.7926622005  LPSA31    6               4.0000000000
     33705      1086  AHEP      H1             22.2679537260       41.4871866585       29.0422981953  LPSA31    6               4.0000000000
     33706      1086  AHEP      C5             24.7861345095       42.1258140683       26.9237617191  LPSA31    6               4.0000000000
     33707      1086  AHEP      H5             25.1922337415       42.9809068050       27.4818042043  LPSA31    6               4.0000000000
     33708      1086  AHEP      O5             23.4425956209       41.8571619889       27.3547530115  LPSA31    6               4.0000000000
     33709      1086  AHEP      C2             24.1424485874       40.4813336644       29.2397872647  LPSA31    6               4.0000000000
     33710      1086  AHEP      H2             23.9660886046       40.3683911757       30.3523091474  LPSA31    6               4.0000000000
     33711      1086  AHEP      O2             23.6175574180       39.2841292262       28.7267108980  LPSA31    6               4.0000000000
     33712      1086  AHEP      HO2            23.2186098926       38.8702398172       29.4669064354  LPSA31    6               4.0000000000
     33713      1086  AHEP      C3             25.6253732371       40.6979536095       28.8468391403  LPSA31    6               4.0000000000
     33714      1086  AHEP      H3             25.9863366171       41.5534357427       29.4311808254  LPSA31    6               4.0000000000
     33715      1086  AHEP      O3             26.5248912154       39.5441908317       29.2225362108  LPSA31    6               4.0000000000
     33716      1086  AHEP      HO3            27.0268921844       39.6366288599       29.9865592523  LPSA31    6               4.0000000000
     33717      1086  AHEP      C4             25.6488021207       40.9120997226       27.2761740859  LPSA31    6               4.0000000000
     33718      1086  AHEP      H4             25.4041900645       39.9758864680       26.7944950683  LPSA31    6               4.0000000000
     33719      1086  AHEP      O4             26.9792311435       41.1534819234       26.7938835778  LPSA31    6               4.0000000000
     33720      1086  AHEP      HO4            27.1722495967       42.1005798889       27.1589530594  LPSA31    6               4.0000000000
     33721      1086  AHEP      C6             24.8742576049       42.5587949975       25.4906533340  LPSA31    6               4.0000000000
     33722      1086  AHEP      H6             25.9158998998       42.8227408635       25.3442628137  LPSA31    6               4.0000000000
     33723      1086  AHEP      O6             24.6787667048       41.4292629976       24.6375675438  LPSA31    6               4.0000000000
     33724      1086  AHEP      HO6            23.9798010328       41.5933089947       23.9977784313  LPSA31    6               4.0000000000
     33725      1086  AHEP      C7             24.0629893299       43.7827672943       25.1799756221  LPSA31    6               4.0000000000
     33726      1086  AHEP      H71            24.3372131938       44.1105117297       24.1408078076  LPSA31    6               4.0000000000
     33727      1086  AHEP      H72            24.3617828955       44.5414225372       25.9252229174  LPSA31    6               4.0000000000
     33728      1086  AHEP      O7             22.6818131615       43.5856536134       25.2517430265  LPSA31    6               4.0000000000
     33729      1086  AHEP      HO7            22.4726062563       43.7015788311       26.2011285002  LPSA31    6               4.0000000000
     33730      1087  AGLC      C1             18.8783013172       40.9903718676       35.6520976122  LPSA31    7               4.0000000000
     33731      1087  AGLC      H1             18.1678251362       41.7678487618       35.2047739589  LPSA31    7               4.0000000000
     33732      1087  AGLC      C5             19.1245045647       38.6873025588       36.0987679218  LPSA31    7               4.0000000000
     33733      1087  AGLC      H5             20.1909024831       38.7177079429       35.8327124756  LPSA31    7               4.0000000000
     33734      1087  AGLC      O5             18.4220251157       39.6861231291       35.4366254460  LPSA31    7               4.0000000000
     33735      1087  AGLC      C2             18.8216814530       41.1965163288       37.1582745954  LPSA31    7               4.0000000000
     33736      1087  AGLC      H2             17.7554929284       40.9242465685       37.4887389927  LPSA31    7               4.0000000000
     33737      1087  AGLC      O2             18.8846687637       42.5942486204       37.5024056006  LPSA31    7               4.0000000000
     33738      1087  AGLC      HO2            19.8111376968       42.7759629402       37.6430208865  LPSA31    7               4.0000000000
     33739      1087  AGLC      C3             19.5448651197       40.2558161589       37.9903802326  LPSA31    7               4.0000000000
     33740      1087  AGLC      H3             20.5822358733       40.3683590714       37.6727250444  LPSA31    7               4.0000000000
     33741      1087  AGLC      O3             19.5967353178       40.5284147286       39.4204481292  LPSA31    7               4.0000000000
     33742      1087  AGLC      C4             18.9747981237       38.9255248602       37.5928595998  LPSA31    7               4.0000000000
     33743      1087  AGLC      H4             17.8856772562       38.8330509942       37.9560286200  LPSA31    7               4.0000000000
     33744      1087  AGLC      O4             19.8323760694       37.9505368430       38.2243117391  LPSA31    7               4.0000000000
     33745      1087  AGLC      HO4            19.3708406332       37.2388024342       38.6132003238  LPSA31    7               4.0000000000
     33746      1087  AGLC      C6             18.7334611389       37.3025438314       35.5245160098  LPSA31    7               4.0000000000
     33747      1087  AGLC      H61            18.8543849220       37.3756039721       34.4135318240  LPSA31    7               4.0000000000
     33748      1087  AGLC      H62            19.3032177775       36.4143927783       35.8722646349  LPSA31    7               4.0000000000
     33749      1087  AGLC      O6             17.2909214185       37.1483302765       35.6892983147  LPSA31    7               4.0000000000
     33750      1087  AGLC      HO6            17.2860275031       36.6151929036       36.4386090630  LPSA31    7               4.0000000000
     33751      1088  AGLC      C1             20.8431203807       40.8412675310       39.9328324507  LPSA31    8               5.0000000000
     33752      1088  AGLC      H1             21.5893699346       40.1041739121       39.5884769495  LPSA31    8               5.0000000000
     33753      1088  AGLC      C5             20.5644116370       43.2920819092       40.2153373402  LPSA31    8               5.0000000000
     33754      1088  AGLC      H5             19.5388160106       43.1914074224       39.8400606936  LPSA31    8               5.0000000000
     33755      1088  AGLC      O5             21.3126687575       42.1970795312       39.6195505863  LPSA31    8               5.0000000000
     33756      1088  AGLC      C2             20.8495753079       40.7339353817       41.4170311384  LPSA31    8               5.0000000000
     33757      1088  AGLC      H2             21.9327914876       40.8378253419       41.6529594578  LPSA31    8               5.0000000000
     33758      1088  AGLC      O2             20.5709853875       39.4417507663       41.9438754185  LPSA31    8               5.0000000000
     33759      1088  AGLC      C3             20.0690170345       41.7785564996       42.1297388169  LPSA31    8               5.0000000000
     33760      1088  AGLC      H3             19.0579978489       41.5833566388       41.6567950186  LPSA31    8               5.0000000000
     33761      1088  AGLC      O3             20.0545400953       41.5114403399       43.5370978028  LPSA31    8               5.0000000000
     33762      1088  AGLC      C4             20.6330053541       43.0691110383       41.7603093222  LPSA31    8               5.0000000000
     33763      1088  AGLC      H4             21.6685097998       43.1284355960       42.0401368658  LPSA31    8               5.0000000000
     33764      1088  AGLC      O4             19.9417566942       44.1211744341       42.3914819843  LPSA31    8               5.0000000000
     33765      1088  AGLC      HO4            19.0379354450       43.9207573817       42.3800652601  LPSA31    8               5.0000000000
     33766      1088  AGLC      C6             20.9339166082       44.7156494906       39.7357334439  LPSA31    8               5.0000000000
     33767      1088  AGLC      H61            21.0592068353       44.8044662070       38.6468043611  LPSA31    8               5.0000000000
     33768      1088  AGLC      H62            20.2433338121       45.4848011399       40.0276014644  LPSA31    8               5.0000000000
     33769      1088  AGLC      O6             22.1053126371       45.2226160791       40.3040784562  LPSA31    8               5.0000000000
     33770      1088  AGLC      HO6            21.9653599569       45.5557979346       41.2121845210  LPSA31    8               5.0000000000
     33771      1089  AGAL      C1             21.2686910371       38.3353156933       41.4573847493  LPSA31    9               6.0000000000
     33772      1089  AGAL      H1             21.3068976949       38.3645047533       40.3420235153  LPSA31    9               6.0000000000
     33773      1089  AGAL      C5             22.7580927562       37.9637594376       43.2125447641  LPSA31    9               6.0000000000
     33774      1089  AGAL      H5             22.0754901173       38.7371230272       43.7424973645  LPSA31    9               6.0000000000
     33775      1089  AGAL      O5             22.6687383175       38.1795051352       41.8451689838  LPSA31    9               6.0000000000
     33776      1089  AGAL      C2             20.5062075456       37.0943775257       41.8393925249  LPSA31    9               6.0000000000
     33777      1089  AGAL      H2             20.9967187643       36.2317795950       41.4115621152  LPSA31    9               6.0000000000
     33778      1089  AGAL      O2             19.2390160811       37.0078167578       41.1608705954  LPSA31    9               6.0000000000
     33779      1089  AGAL      C3             20.5804740609       36.8245896751       43.3264191845  LPSA31    9               6.0000000000
     33780      1089  AGAL      H3             20.0406652466       37.6675604286       43.9424563891  LPSA31    9               6.0000000000
     33781      1089  AGAL      O3             19.8107734230       35.7395509530       43.7491515633  LPSA31    9               6.0000000000
     33782      1089  AGAL      HO3            19.0436133198       35.7145887142       43.1585960960  LPSA31    9               6.0000000000
     33783      1089  AGAL      C4             22.0144610305       36.6932296384       43.6505755014  LPSA31    9               6.0000000000
     33784      1089  AGAL      H4             22.2082675517       36.5939928788       44.7734818408  LPSA31    9               6.0000000000
     33785      1089  AGAL      O4             22.6599433602       35.6132016340       43.0499075873  LPSA31    9               6.0000000000
     33786      1089  AGAL      HO4            23.3594883612       35.3372925008       43.6622427513  LPSA31    9               6.0000000000
     33787      1089  AGAL      C6             24.1234869347       38.2592276130       43.8349081587  LPSA31    9               6.0000000000
     33788      1089  AGAL      H61            24.4879139123       39.3010577371       43.6417203355  LPSA31    9               6.0000000000
     33789      1089  AGAL      H62            24.1538434635       38.1895160611       44.9292747136  LPSA31    9               6.0000000000
     33790      1089  AGAL      O6             25.0882078799       37.3461585124       43.4062227539  LPSA31    9               6.0000000000
     33791      1089  AGAL      HO6            25.5909417064       37.7800490689       42.6923548993  LPSA31    9               6.0000000000
     33792      1090  AGAL      C1             17.9481732737       36.7279360407       41.7517281777  LPSA31    10              7.0000000000
     33793      1090  AGAL      H1             17.9498545312       35.6334072296       41.8429972083  LPSA31    10              7.0000000000
     33794      1090  AGAL      C5             17.4552288590       38.6855700226       43.0613392294  LPSA31    10              7.0000000000
     33795      1090  AGAL      H5             18.4651695912       39.1060998875       42.6233508762  LPSA31    10              7.0000000000
     33796      1090  AGAL      O5             17.5391375786       37.2476039193       43.0470213554  LPSA31    10              7.0000000000
     33797      1090  AGAL      C2             16.8966853192       37.1822623201       40.7227968417  LPSA31    10              7.0000000000
     33798      1090  AGAL      H2             15.9176391649       36.6525594018       41.0433947026  LPSA31    10              7.0000000000
     33799      1090  AGAL      O2             16.9516390161       36.4880491737       39.5532095562  LPSA31    10              7.0000000000
     33800      1090  AGAL      HO2            16.1073433643       36.1108128352       39.3379401176  LPSA31    10              7.0000000000
     33801      1090  AGAL      C3             16.7484793586       38.6615029919       40.6928251787  LPSA31    10              7.0000000000
     33802      1090  AGAL      H3             17.7549264393       39.0085341649       40.4679648945  LPSA31    10              7.0000000000
     33803      1090  AGAL      O3             15.8191655363       39.1511472828       39.7732034444  LPSA31    10              7.0000000000
     33804      1090  AGAL      HO3            16.3222986257       39.5389374691       39.0151094934  LPSA31    10              7.0000000000
     33805      1090  AGAL      C4             16.3700865370       39.1409619935       42.0524071915  LPSA31    10              7.0000000000
     33806      1090  AGAL      H4             16.3522719315       40.2464563762       42.1099272557  LPSA31    10              7.0000000000
     33807      1090  AGAL      O4             15.1241901078       38.6884489736       42.4965010455  LPSA31    10              7.0000000000
     33808      1090  AGAL      HO4            15.2358290847       37.7574729355       42.5675127347  LPSA31    10              7.0000000000
     33809      1090  AGAL      C6             17.3166253190       39.3452483781       44.3959537205  LPSA31    10              7.0000000000
     33810      1090  AGAL      H61            18.0646788642       39.0028209963       45.1044438806  LPSA31    10              7.0000000000
     33811      1090  AGAL      H62            17.5690261906       40.5048937697       44.2564473849  LPSA31    10              7.0000000000
     33812      1090  AGAL      O6             16.0641993319       39.2907947515       45.1112340130  LPSA31    10              7.0000000000
     33813      1090  AGAL      HO6            16.2073539355       38.7722009726       45.9237589285  LPSA31    10              7.0000000000
     33814      1091  BGLC      C1             20.9361810294       42.0568618622       44.5018065681  LPSA31    11              6.0000000000
     33815      1091  BGLC      H1             20.5788309063       43.0722968045       44.5883763758  LPSA31    11              6.0000000000
     33816      1091  BGLC      C5             23.3296832871       42.4585097639       45.1248117688  LPSA31    11              6.0000000000
     33817      1091  BGLC      H5             23.1618083332       43.5614113640       45.3871201921  LPSA31    11              6.0000000000
     33818      1091  BGLC      O5             22.3526443154       41.9220725472       44.0830650888  LPSA31    11              6.0000000000
     33819      1091  BGLC      C2             20.7746896688       41.3038310624       45.7977571702  LPSA31    11              6.0000000000
     33820      1091  BGLC      H2             20.9374085536       40.1986126293       45.7293388291  LPSA31    11              6.0000000000
     33821      1091  BGLC      O2             19.3874608711       41.3924622971       46.0886391483  LPSA31    11              6.0000000000
     33822      1091  BGLC      HO2            19.0622497892       40.5336124743       46.2788110113  LPSA31    11              6.0000000000
     33823      1091  BGLC      C3             21.6750974342       41.7502606129       46.8736276645  LPSA31    11              6.0000000000
     33824      1091  BGLC      H3             21.3541424768       42.8280575150       47.1984917368  LPSA31    11              6.0000000000
     33825      1091  BGLC      O3             21.4393009003       40.9209413177       48.0056213318  LPSA31    11              6.0000000000
     33826      1091  BGLC      C4             23.0539528296       41.6664695314       46.4390836423  LPSA31    11              6.0000000000
     33827      1091  BGLC      H4             23.2400593021       40.5652373304       46.2001611147  LPSA31    11              6.0000000000
     33828      1091  BGLC      O4             23.9612234878       41.9998301177       47.4766894645  LPSA31    11              6.0000000000
     33829      1091  BGLC      HO4            23.9499558850       41.2855331177       48.1247908570  LPSA31    11              6.0000000000
     33830      1091  BGLC      C6             24.7481532794       42.4593742850       44.5291127165  LPSA31    11              6.0000000000
     33831      1091  BGLC      H61            25.5547737792       42.5055587714       45.2481190913  LPSA31    11              6.0000000000
     33832      1091  BGLC      H62            24.8294712030       41.5439703846       43.8913252379  LPSA31    11              6.0000000000
     33833      1091  BGLC      O6             25.0011202927       43.5163248025       43.5637942269  LPSA31    11              6.0000000000
     33834      1091  BGLC      HO6            25.6153248867       44.0540617417       44.0054369298  LPSA31    11              6.0000000000
     33835      1092  BGLCNA    C1             21.1712488588       41.4514677456       49.3238540420  LPSA31    12              7.0000000000
     33836      1092  BGLCNA    H1             20.0473875434       41.6441358881       49.3874222992  LPSA31    12              7.0000000000
     33837      1092  BGLCNA    C5             21.5132432590       43.2457368835       50.8763077070  LPSA31    12              7.0000000000
     33838      1092  BGLCNA    H5             20.3543015068       43.4481290440       50.9814236466  LPSA31    12              7.0000000000
     33839      1092  BGLCNA    O5             21.8745232426       42.6861609128       49.5875345322  LPSA31    12              7.0000000000
     33840      1092  BGLCNA    C2             21.6013078610       40.4309378888       50.3245054808  LPSA31    12              7.0000000000
     33841      1092  BGLCNA    H2             22.7728854159       40.4544077267       50.3375086743  LPSA31    12              7.0000000000
     33842      1092  BGLCNA    N              20.9733232669       39.1271130879       50.0347611965  LPSA31    12              7.0000000000
     33843      1092  BGLCNA    HN             20.0377423213       39.2528597379       49.9972643287  LPSA31    12              7.0000000000
     33844      1092  BGLCNA    C              21.6914200811       38.0550623185       49.8903426450  LPSA31    12              7.0000000000
     33845      1092  BGLCNA    O              22.8978718455       38.0989889204       50.0855928044  LPSA31    12              7.0000000000
     33846      1092  BGLCNA    CT             20.9587343625       36.7883763173       49.5677689528  LPSA31    12              7.0000000000
     33847      1092  BGLCNA    HT1            21.0104873292       36.0541905818       50.3918503408  LPSA31    12              7.0000000000
     33848      1092  BGLCNA    HT2            21.5245812830       36.2083156123       48.7104760971  LPSA31    12              7.0000000000
     33849      1092  BGLCNA    HT3            19.9355524334       37.0889390851       49.2316245990  LPSA31    12              7.0000000000
     33850      1092  BGLCNA    C3             21.2684347540       40.8694337315       51.6995695120  LPSA31    12              7.0000000000
     33851      1092  BGLCNA    H3             20.0958172307       40.9429292303       51.8605307917  LPSA31    12              7.0000000000
     33852      1092  BGLCNA    O3             21.6141192205       39.9008696304       52.7272334264  LPSA31    12              7.0000000000
     33853      1092  BGLCNA    C4             21.9411795873       42.1796230505       51.9591692987  LPSA31    12              7.0000000000
     33854      1092  BGLCNA    H4             23.0944825251       42.1434550290       51.9037868612  LPSA31    12              7.0000000000
     33855      1092  BGLCNA    O4             21.6609118075       42.6660322083       53.2294962294  LPSA31    12              7.0000000000
     33856      1092  BGLCNA    HO4            20.7349442498       43.0441606650       53.2834945119  LPSA31    12              7.0000000000
     33857      1092  BGLCNA    C6             22.1659664962       44.6408854256       50.9528560558  LPSA31    12              7.0000000000
     33858      1092  BGLCNA    H61            22.0110156707       45.0728489012       51.9144325068  LPSA31    12              7.0000000000
     33859      1092  BGLCNA    H62            23.2212360766       44.4241235762       50.8287962869  LPSA31    12              7.0000000000
     33860      1092  BGLCNA    O6             21.7688562414       45.4297935015       49.8597561973  LPSA31    12              7.0000000000
     33861      1092  BGLCNA    HO6            20.9946125280       45.8645203500       50.1903398796  LPSA31    12              7.0000000000
     33862      1093  AGAL      C1             20.6460745811       39.7362486310       53.8132743488  LPSA31    13              8.0000000000
     33863      1093  AGAL      H1             20.3531804046       40.7393298672       54.1959401301  LPSA31    13              8.0000000000
     33864      1093  AGAL      C5             20.0294149387       37.4646117861       53.2950732168  LPSA31    13              8.0000000000
     33865      1093  AGAL      H5             20.8323794182       37.5305761511       52.5641412600  LPSA31    13              8.0000000000
     33866      1093  AGAL      O5             19.5521072428       38.8050279281       53.4918445955  LPSA31    13              8.0000000000
     33867      1093  AGAL      C2             21.2481201868       39.1092022571       55.1010141246  LPSA31    13              8.0000000000
     33868      1093  AGAL      H2             20.4168733607       38.8627615799       55.7917211299  LPSA31    13              8.0000000000
     33869      1093  AGAL      O2             22.1286959210       39.9875079357       55.7701983428  LPSA31    13              8.0000000000
     33870      1093  AGAL      C3             21.7499376342       37.6591022551       54.8979691660  LPSA31    13              8.0000000000
     33871      1093  AGAL      H3             22.4244994363       37.6485712990       54.0477453328  LPSA31    13              8.0000000000
     33872      1093  AGAL      O3             22.5592156980       37.1943104096       55.9888739531  LPSA31    13              8.0000000000
     33873      1093  AGAL      HO3            23.2994542792       36.6790597736       55.6848713412  LPSA31    13              8.0000000000
     33874      1093  AGAL      C4             20.6668432006       36.8080832922       54.5514025965  LPSA31    13              8.0000000000
     33875      1093  AGAL      H4             21.0455808539       35.7754999117       54.1954731349  LPSA31    13              8.0000000000
     33876      1093  AGAL      O4             19.7066975803       36.6580686134       55.5743212917  LPSA31    13              8.0000000000
     33877      1093  AGAL      HO4            19.4423584855       37.4594308839       56.0499681296  LPSA31    13              8.0000000000
     33878      1093  AGAL      C6             19.0969113119       36.5459252885       52.5301443486  LPSA31    13              8.0000000000
     33879      1093  AGAL      H61            18.7380023487       37.0559738040       51.6253596531  LPSA31    13              8.0000000000
     33880      1093  AGAL      H62            19.6239725591       35.5727908875       52.3684678279  LPSA31    13              8.0000000000
     33881      1093  AGAL      O6             17.9576135633       36.2180368886       53.2985910507  LPSA31    13              8.0000000000
     33882      1093  AGAL      HO6            18.2015881448       35.5233276796       53.9299633642  LPSA31    13              8.0000000000
     33883      1094  ARHM      C1             21.7769821218       40.5294743393       57.0117786358  LPSA31    14              9.0000000000
     33884      1094  ARHM      H1             20.6678008409       40.5631584451       56.9981767125  LPSA31    14              9.0000000000
     33885      1094  ARHM      C5             23.6362601493       41.9185094610       57.1930138837  LPSA31    14              9.0000000000
     33886      1094  ARHM      H5             24.0036845972       41.4647948183       56.1976867078  LPSA31    14              9.0000000000
     33887      1094  ARHM      O5             22.2591693557       41.8541468692       57.1718909996  LPSA31    14              9.0000000000
     33888      1094  ARHM      C2             22.3195557460       39.6265496780       58.1413490634  LPSA31    14              9.0000000000
     33889      1094  ARHM      H2             21.9514627807       38.6405122443       57.8875987320  LPSA31    14              9.0000000000
     33890      1094  ARHM      O2             21.9474292956       39.9999620814       59.4330148990  LPSA31    14              9.0000000000
     33891      1094  ARHM      C3             23.8203339948       39.6526193673       58.1095432995  LPSA31    14              9.0000000000
     33892      1094  ARHM      H3             24.1449073887       39.4632456438       57.0440121713  LPSA31    14              9.0000000000
     33893      1094  ARHM      O3             24.4412369797       38.6523670227       58.8567888868  LPSA31    14              9.0000000000
     33894      1094  ARHM      HO3            24.3292780793       38.9355268806       59.8104957846  LPSA31    14              9.0000000000
     33895      1094  ARHM      C4             24.2297438233       41.0606165032       58.3490442956  LPSA31    14              9.0000000000
     33896      1094  ARHM      H4             23.8644841740       41.5345130272       59.2902338481  LPSA31    14              9.0000000000
     33897      1094  ARHM      O4             25.6794332588       41.1237633289       58.4446785014  LPSA31    14              9.0000000000
     33898      1094  ARHM      HO4            26.0444984829       41.3557882729       59.2969967688  LPSA31    14              9.0000000000
     33899      1094  ARHM      C6             24.0901784571       43.3869967300       57.2492155848  LPSA31    14              9.0000000000
     33900      1094  ARHM      H61            23.5298356849       44.0889000447       56.5358243550  LPSA31    14              9.0000000000
     33901      1094  ARHM      H62            24.0192742311       43.6778683047       58.3170764683  LPSA31    14              9.0000000000
     33902      1094  ARHM      H63            25.1051348298       43.6503726888       56.9421594120  LPSA31    14              9.0000000000
     33903      1095  ARHM      C1             20.6588586979       40.2247290954       59.7267990175  LPSA31    15             10.0000000000
     33904      1095  ARHM      H1             19.9849922312       39.6612589484       59.0458905905  LPSA31    15             10.0000000000
     33905      1095  ARHM      C5             20.9000067022       42.5187893702       60.6468530148  LPSA31    15             10.0000000000
     33906      1095  ARHM      H5             22.0113855702       42.6350615640       60.4457705401  LPSA31    15             10.0000000000
     33907      1095  ARHM      O5             20.2843342173       41.6240103357       59.6688136410  LPSA31    15             10.0000000000
     33908      1095  ARHM      C2             20.3641266609       39.7285428404       61.1407671534  LPSA31    15             10.0000000000
     33909      1095  ARHM      H2             20.7706627194       38.6489840344       61.2133420761  LPSA31    15             10.0000000000
     33910      1095  ARHM      O2             18.9184850872       39.7887996291       61.3234079317  LPSA31    15             10.0000000000
     33911      1095  ARHM      C3             21.1024336534       40.5882618676       62.1677656617  LPSA31    15             10.0000000000
     33912      1095  ARHM      H3             22.1858696303       40.5835587204       61.8628392879  LPSA31    15             10.0000000000
     33913      1095  ARHM      O3             21.0473854510       39.8359074632       63.4092175029  LPSA31    15             10.0000000000
     33914      1095  ARHM      C4             20.6259314125       41.9549216254       62.0487117432  LPSA31    15             10.0000000000
     33915      1095  ARHM      H4             19.4673539991       41.9446922077       62.1496903561  LPSA31    15             10.0000000000
     33916      1095  ARHM      O4             21.1414254565       42.9257817982       62.9635513464  LPSA31    15             10.0000000000
     33917      1095  ARHM      HO4            20.5601908758       43.6713184642       62.9565205260  LPSA31    15             10.0000000000
     33918      1095  ARHM      C6             20.3658754578       43.9183531650       60.4460959132  LPSA31    15             10.0000000000
     33919      1095  ARHM      H61            20.8445495670       44.6983033502       61.0956562646  LPSA31    15             10.0000000000
     33920      1095  ARHM      H62            20.3322721896       44.1472048135       59.3910198679  LPSA31    15             10.0000000000
     33921      1095  ARHM      H63            19.3244858403       44.0386394669       60.8578185328  LPSA31    15             10.0000000000
     33922      1096  BMANNA    C1             18.3364407585       39.2832808531       62.5145562334  LPSA31    16             11.0000000000
     33923      1096  BMANNA    H1             18.5991759326       40.0409850347       63.3432051365  LPSA31    16             11.0000000000
     33924      1096  BMANNA    C5             18.2089037540       37.6333811966       64.1851548173  LPSA31    16             11.0000000000
     33925      1096  BMANNA    H5             18.4077864970       38.3640581303       64.9800677769  LPSA31    16             11.0000000000
     33926      1096  BMANNA    O5             18.8090092769       38.0027579880       62.9158851071  LPSA31    16             11.0000000000
     33927      1096  BMANNA    C2             16.8082554647       39.2573464902       62.2781089586  LPSA31    16             11.0000000000
     33928      1096  BMANNA    H2             16.5542265744       40.3114723104       61.9912908466  LPSA31    16             11.0000000000
     33929      1096  BMANNA    N              16.2808607022       38.3832321253       61.2264456342  LPSA31    16             11.0000000000
     33930      1096  BMANNA    HN             16.0853236365       37.4937592228       61.5688724990  LPSA31    16             11.0000000000
     33931      1096  BMANNA    C              16.1297387120       38.7231916824       59.9704010620  LPSA31    16             11.0000000000
     33932      1096  BMANNA    O              16.3606120496       39.8929441118       59.5582221915  LPSA31    16             11.0000000000
     33933      1096  BMANNA    CT             15.6562871906       37.6331840734       59.1331689300  LPSA31    16             11.0000000000
     33934      1096  BMANNA    HT1            14.6209061595       37.6828017712       58.8344492748  LPSA31    16             11.0000000000
     33935      1096  BMANNA    HT2            15.8133019086       36.6209009001       59.5043001239  LPSA31    16             11.0000000000
     33936      1096  BMANNA    HT3            16.1800695624       37.6383142102       58.1231520073  LPSA31    16             11.0000000000
     33937      1096  BMANNA    C3             16.1947382835       38.9121703733       63.6119771117  LPSA31    16             11.0000000000
     33938      1096  BMANNA    H3             16.4980919092       39.6667090005       64.3839812837  LPSA31    16             11.0000000000
     33939      1096  BMANNA    O3             14.7967138394       38.9511373698       63.6122488842  LPSA31    16             11.0000000000
     33940      1096  BMANNA    HO3            14.4759755098       39.5253831087       64.2950500102  LPSA31    16             11.0000000000
     33941      1096  BMANNA    C4             16.6728870082       37.5403305017       64.1045846713  LPSA31    16             11.0000000000
     33942      1096  BMANNA    H4             16.3839752904       36.7265315482       63.4124605202  LPSA31    16             11.0000000000
     33943      1096  BMANNA    O4             16.1817476705       37.0939809398       65.3816866120  LPSA31    16             11.0000000000
     33944      1096  BMANNA    HO4            16.2135590560       36.1398498775       65.4353184152  LPSA31    16             11.0000000000
     33945      1096  BMANNA    C6             18.7798132361       36.3231700859       64.7427751243  LPSA31    16             11.0000000000
     33946      1096  BMANNA    H61            18.7250971234       36.3930591055       65.8875394407  LPSA31    16             11.0000000000
     33947      1096  BMANNA    H62            18.1763498416       35.4651610250       64.4389269682  LPSA31    16             11.0000000000
     33948      1096  BMANNA    O6             20.1472367977       36.0658331181       64.3660927576  LPSA31    16             11.0000000000
     33949      1096  BMANNA    HO6            20.0642629138       35.2026364263       63.9036969990  LPSA31    16             11.0000000000
     33950      1097  BGLCNA    C1             22.1564355030       39.8902885925       64.1715778089  LPSA31    17             11.0000000000
     33951      1097  BGLCNA    H1             22.7283219115       40.8696368547       63.9082176002  LPSA31    17             11.0000000000
     33952      1097  BGLCNA    C5             24.3305331608       38.8429830361       64.5563394407  LPSA31    17             11.0000000000
     33953      1097  BGLCNA    H5             24.9353075414       39.7867823286       64.2825289487  LPSA31    17             11.0000000000
     33954      1097  BGLCNA    O5             23.1200245145       38.8684390404       63.7849982893  LPSA31    17             11.0000000000
     33955      1097  BGLCNA    C2             21.7396711437       39.7524943351       65.5899343931  LPSA31    17             11.0000000000
     33956      1097  BGLCNA    H2             21.2052919604       38.7708304478       65.8249043900  LPSA31    17             11.0000000000
     33957      1097  BGLCNA    N              20.7338788764       40.6911320061       65.8849826081  LPSA31    17             11.0000000000
     33958      1097  BGLCNA    HN             20.7606234661       41.5934795736       65.4150135415  LPSA31    17             11.0000000000
     33959      1097  BGLCNA    C              19.7855569138       40.6613880979       66.8043620798  LPSA31    17             11.0000000000
     33960      1097  BGLCNA    O              19.5631007097       39.6590265807       67.4729873017  LPSA31    17             11.0000000000
     33961      1097  BGLCNA    CT             19.0014058241       41.9069088888       66.9728872304  LPSA31    17             11.0000000000
     33962      1097  BGLCNA    HT1            17.9817182935       41.9776708810       66.5529393721  LPSA31    17             11.0000000000
     33963      1097  BGLCNA    HT2            19.6625842728       42.7534077534       66.7043805047  LPSA31    17             11.0000000000
     33964      1097  BGLCNA    HT3            18.8293800580       42.1199531023       68.1408097225  LPSA31    17             11.0000000000
     33965      1097  BGLCNA    C3             23.0083433621       39.8467700853       66.4076579941  LPSA31    17             11.0000000000
     33966      1097  BGLCNA    H3             23.4375424028       40.8400312434       66.0441361901  LPSA31    17             11.0000000000
     33967      1097  BGLCNA    O3             22.6144807835       39.9893363778       67.8205355914  LPSA31    17             11.0000000000
     33968      1097  BGLCNA    C4             23.9111776385       38.6744971018       66.0496966154  LPSA31    17             11.0000000000
     33969      1097  BGLCNA    H4             23.3500555373       37.6771688930       66.1123142204  LPSA31    17             11.0000000000
     33970      1097  BGLCNA    O4             25.0198952173       38.5614410311       66.9186044206  LPSA31    17             11.0000000000
     33971      1097  BGLCNA    HO4            25.6365184303       37.8669264664       66.7204061560  LPSA31    17             11.0000000000
     33972      1097  BGLCNA    C6             25.1966071071       37.6449855822       64.1200051697  LPSA31    17             11.0000000000
     33973      1097  BGLCNA    H61            26.2335548559       37.9191467562       64.1272946536  LPSA31    17             11.0000000000
     33974      1097  BGLCNA    H62            25.0643810906       36.7642061539       64.8212395067  LPSA31    17             11.0000000000
     33975      1097  BGLCNA    O6             24.8868039426       37.1987419440       62.7926115083  LPSA31    17             11.0000000000
     33976      1097  BGLCNA    HO6            25.0259057142       37.9170253408       62.1856770532  LPSA31    17             11.0000000000
     33977      1098  AGAL      C1             23.4642181199       40.8511524290       68.6198653987  LPSA31    18             12.0000000000
     33978      1098  AGAL      H1             24.4257978429       40.2879005631       68.8082567594  LPSA31    18             12.0000000000
     33979      1098  AGAL      C5             22.5696399794       42.9476843257       67.8636918791  LPSA31    18             12.0000000000
     33980      1098  AGAL      H5             21.7681695410       42.3602603453       67.4068928888  LPSA31    18             12.0000000000
     33981      1098  AGAL      O5             23.7520183453       42.0769574692       67.9834320655  LPSA31    18             12.0000000000
     33982      1098  AGAL      C2             22.7981511742       41.2195527734       70.0000206359  LPSA31    18             12.0000000000
     33983      1098  AGAL      H2             23.6012969372       41.8858332092       70.3908489884  LPSA31    18             12.0000000000
     33984      1098  AGAL      O2             22.7661459923       40.1094805880       70.8342757016  LPSA31    18             12.0000000000
     33985      1098  AGAL      C3             21.5809012292       42.0670486947       69.8682924558  LPSA31    18             12.0000000000
     33986      1098  AGAL      H3             20.8691494912       41.5629699565       69.0958348126  LPSA31    18             12.0000000000
     33987      1098  AGAL      O3             20.8974871236       42.2186614221       71.0758896640  LPSA31    18             12.0000000000
     33988      1098  AGAL      HO3            19.9544321819       42.0830336013       70.9682873819  LPSA31    18             12.0000000000
     33989      1098  AGAL      C4             21.9390744355       43.3121823000       69.1634745928  LPSA31    18             12.0000000000
     33990      1098  AGAL      H4             21.0895256506       43.9866768000       68.9039691178  LPSA31    18             12.0000000000
     33991      1098  AGAL      O4             22.8350387631       44.1175310672       69.9734134928  LPSA31    18             12.0000000000
     33992      1098  AGAL      HO4            22.3002006694       44.5541095881       70.7236544006  LPSA31    18             12.0000000000
     33993      1098  AGAL      C6             22.8467091190       43.9189243393       66.8042742825  LPSA31    18             12.0000000000
     33994      1098  AGAL      H61            22.9984059150       43.3465710326       65.8877991861  LPSA31    18             12.0000000000
     33995      1098  AGAL      H62            21.8985895417       44.5022370377       66.6499463921  LPSA31    18             12.0000000000
     33996      1098  AGAL      O6             23.9171217112       44.6970934189       66.9803033045  LPSA31    18             12.0000000000
     33997      1098  AGAL      HO6            24.5281445228       44.4610007507       67.6707071977  LPSA31    18             12.0000000000
     33998      1099  ARHM      C1             23.1498921795       40.4903014626       72.1803514454  LPSA31    19             13.0000000000
     33999      1099  ARHM      H1             23.0380338238       41.5469522361       72.3185909119  LPSA31    19             13.0000000000
     34000      1099  ARHM      C5             25.0131271285       39.0251803921       72.2512180912  LPSA31    19             13.0000000000
     34001      1099  ARHM      H5             24.7264105501       38.7151082289       71.2133247196  LPSA31    19             13.0000000000
     34002      1099  ARHM      O5             24.5599591638       40.3699385350       72.4162684983  LPSA31    19             13.0000000000
     34003      1099  ARHM      C2             22.3600899244       39.6453644489       73.1100514097  LPSA31    19             13.0000000000
     34004      1099  ARHM      H2             21.3141303779       39.6234578612       72.9420985559  LPSA31    19             13.0000000000
     34005      1099  ARHM      O2             22.5708593526       40.0664702966       74.4131644751  LPSA31    19             13.0000000000
     34006      1099  ARHM      C3             22.8837378619       38.1809470550       72.9859276785  LPSA31    19             13.0000000000
     34007      1099  ARHM      H3             22.7578758270       37.8866024798       71.9471750908  LPSA31    19             13.0000000000
     34008      1099  ARHM      O3             22.1391899225       37.3154522000       73.7644258584  LPSA31    19             13.0000000000
     34009      1099  ARHM      HO3            22.0968950584       37.7015178121       74.6464134549  LPSA31    19             13.0000000000
     34010      1099  ARHM      C4             24.3261996845       38.0606639608       73.2443334127  LPSA31    19             13.0000000000
     34011      1099  ARHM      H4             24.4772144148       38.4194731944       74.2703943704  LPSA31    19             13.0000000000
     34012      1099  ARHM      O4             24.8410197663       36.7685733835       73.1708570575  LPSA31    19             13.0000000000
     34013      1099  ARHM      HO4            24.7370072998       36.4913290734       72.2126258713  LPSA31    19             13.0000000000
     34014      1099  ARHM      C6             26.5492757380       38.9414737972       72.3031700958  LPSA31    19             13.0000000000
     34015      1099  ARHM      H61            26.8145638563       39.6322259681       71.5186681997  LPSA31    19             13.0000000000
     34016      1099  ARHM      H62            27.0255967010       39.2659306390       73.2001761489  LPSA31    19             13.0000000000
     34017      1099  ARHM      H63            26.9385238538       37.9424341929       72.0875448643  LPSA31    19             13.0000000000
     34018      1100  ARHM      C1             21.8740155723       41.2344194576       74.6981797177  LPSA31    20             14.0000000000
     34019      1100  ARHM      H1             21.1134353653       41.5007846466       73.8936196974  LPSA31    20             14.0000000000
     34020      1100  ARHM      C5             23.5337042662       42.3765657287       75.9960310464  LPSA31    20             14.0000000000
     34021      1100  ARHM      H5             24.1446636326       41.4570780703       75.8071112250  LPSA31    20             14.0000000000
     34022      1100  ARHM      O5             22.6436351078       42.4246800712       74.8741575474  LPSA31    20             14.0000000000
     34023      1100  ARHM      C2             21.0159103095       41.0264769023       75.9438944127  LPSA31    20             14.0000000000
     34024      1100  ARHM      H2             20.4601954856       40.0099346245       75.7904987900  LPSA31    20             14.0000000000
     34025      1100  ARHM      O2             20.0970097499       42.1095306183       76.2145535291  LPSA31    20             14.0000000000
     34026      1100  ARHM      C3             21.9504715853       40.9740137751       77.0746584307  LPSA31    20             14.0000000000
     34027      1100  ARHM      H3             22.6722982362       40.0828959579       76.9570890266  LPSA31    20             14.0000000000
     34028      1100  ARHM      O3             21.1456249945       40.6770483311       78.2431898216  LPSA31    20             14.0000000000
     34029      1100  ARHM      C4             22.7599561574       42.2194945722       77.2147849866  LPSA31    20             14.0000000000
     34030      1100  ARHM      H4             22.1600142990       43.1031337173       77.2882629629  LPSA31    20             14.0000000000
     34031      1100  ARHM      O4             23.5411373808       42.1360344905       78.4294019453  LPSA31    20             14.0000000000
     34032      1100  ARHM      HO4            24.2404806462       42.6476593686       78.0714846557  LPSA31    20             14.0000000000
     34033      1100  ARHM      C6             24.4251747898       43.5473498892       75.9818768401  LPSA31    20             14.0000000000
     34034      1100  ARHM      H61            23.9808909719       44.5854721581       76.0487105533  LPSA31    20             14.0000000000
     34035      1100  ARHM      H62            25.1941221965       43.4413850052       76.7492574554  LPSA31    20             14.0000000000
     34036      1100  ARHM      H63            25.0204878750       43.6734734040       75.0059134709  LPSA31    20             14.0000000000
     34037      1101  BMANNA    C1             18.9741877610       41.8578556543       75.4501725836  LPSA31    21             15.0000000000
     34038      1101  BMANNA    H1             19.1711426959       41.0356258159       74.6495731600  LPSA31    21             15.0000000000
     34039      1101  BMANNA    C5             17.5980179461       42.6022234637       73.6578092950  LPSA31    21             15.0000000000
     34040      1101  BMANNA    H5             17.7428955336       41.6123392756       73.0422409194  LPSA31    21             15.0000000000
     34041      1101  BMANNA    O5             18.7041833430       42.9834131822       74.5460975074  LPSA31    21             15.0000000000
     34042      1101  BMANNA    C2             17.7974215891       41.5752745756       76.3268603500  LPSA31    21             15.0000000000
     34043      1101  BMANNA    H2             18.1439311208       40.6919527001       76.8663433126  LPSA31    21             15.0000000000
     34044      1101  BMANNA    N              17.5335736669       42.6671523477       77.2602735953  LPSA31    21             15.0000000000
     34045      1101  BMANNA    HN             17.4458127494       43.5492513404       76.8630196157  LPSA31    21             15.0000000000
     34046      1101  BMANNA    C              17.1284633957       42.5140782765       78.6142451918  LPSA31    21             15.0000000000
     34047      1101  BMANNA    O              16.7883484227       41.4076482556       79.0340579138  LPSA31    21             15.0000000000
     34048      1101  BMANNA    CT             17.0707020904       43.7696871140       79.5125915666  LPSA31    21             15.0000000000
     34049      1101  BMANNA    HT1            16.1148009613       44.3041402852       79.3040814335  LPSA31    21             15.0000000000
     34050      1101  BMANNA    HT2            17.9986880679       44.3343121618       79.3224353366  LPSA31    21             15.0000000000
     34051      1101  BMANNA    HT3            17.0591673401       43.4683360472       80.6000991146  LPSA31    21             15.0000000000
     34052      1101  BMANNA    C3             16.6567758633       41.2118834129       75.4428482744  LPSA31    21             15.0000000000
     34053      1101  BMANNA    H3             17.0286240935       40.2941629831       75.0091666053  LPSA31    21             15.0000000000
     34054      1101  BMANNA    O3             15.4845605276       40.8926465448       76.1769203835  LPSA31    21             15.0000000000
     34055      1101  BMANNA    HO3            15.2957559419       41.6230243669       76.7354970047  LPSA31    21             15.0000000000
     34056      1101  BMANNA    C4             16.3558424702       42.3372757323       74.4866217523  LPSA31    21             15.0000000000
     34057      1101  BMANNA    H4             15.9537442876       43.3407050625       75.0002820064  LPSA31    21             15.0000000000
     34058      1101  BMANNA    O4             15.3057092170       42.0294388415       73.6152290754  LPSA31    21             15.0000000000
     34059      1101  BMANNA    HO4            14.5336357247       42.6174118733       73.7703874424  LPSA31    21             15.0000000000
     34060      1101  BMANNA    C6             17.3682464283       43.5894011821       72.6348027846  LPSA31    21             15.0000000000
     34061      1101  BMANNA    H61            16.6583609598       43.2561940809       71.8494922130  LPSA31    21             15.0000000000
     34062      1101  BMANNA    H62            16.7482449796       44.4270134625       73.0558617198  LPSA31    21             15.0000000000
     34063      1101  BMANNA    O6             18.4849620439       44.2031652721       72.0654385618  LPSA31    21             15.0000000000
     34064      1101  BMANNA    HO6            19.0163000819       44.5556801169       72.7784055652  LPSA31    21             15.0000000000
     34065      1102  BGLCNA    C1             21.6312605311       39.8313381515       79.2248726046  LPSA31    22             15.0000000000
     34066      1102  BGLCNA    H1             22.7581728245       39.7768889174       79.2753119810  LPSA31    22             15.0000000000
     34067      1102  BGLCNA    C5             21.7670048742       37.5992447916       80.1145289529  LPSA31    22             15.0000000000
     34068      1102  BGLCNA    H5             22.9294657951       37.7326905517       80.0727605020  LPSA31    22             15.0000000000
     34069      1102  BGLCNA    O5             21.2355611229       38.4984980585       79.0803056561  LPSA31    22             15.0000000000
     34070      1102  BGLCNA    C2             21.1473585281       40.3345258148       80.5602818744  LPSA31    22             15.0000000000
     34071      1102  BGLCNA    H2             20.0084338153       40.2364142566       80.4633107900  LPSA31    22             15.0000000000
     34072      1102  BGLCNA    N              21.5512660680       41.7172136668       80.7025670875  LPSA31    22             15.0000000000
     34073      1102  BGLCNA    HN             22.4724225952       41.9225745312       80.4501896382  LPSA31    22             15.0000000000
     34074      1102  BGLCNA    C              20.8540144231       42.6421836754       81.3295640408  LPSA31    22             15.0000000000
     34075      1102  BGLCNA    O              19.7516919034       42.3802607101       81.8448112003  LPSA31    22             15.0000000000
     34076      1102  BGLCNA    CT             21.4491768889       44.0007667421       81.4359073222  LPSA31    22             15.0000000000
     34077      1102  BGLCNA    HT1            21.0795843352       44.4772986834       80.5353412834  LPSA31    22             15.0000000000
     34078      1102  BGLCNA    HT2            22.5465709414       43.8951890753       81.2752873926  LPSA31    22             15.0000000000
     34079      1102  BGLCNA    HT3            21.3085215570       44.5064881332       82.3679651303  LPSA31    22             15.0000000000
     34080      1102  BGLCNA    C3             21.6425950712       39.4550595993       81.6855161512  LPSA31    22             15.0000000000
     34081      1102  BGLCNA    H3             22.7605721506       39.4373160401       81.6419517197  LPSA31    22             15.0000000000
     34082      1102  BGLCNA    O3             21.2375843040       40.0983744682       82.8729300216  LPSA31    22             15.0000000000
     34083      1102  BGLCNA    C4             21.1970168212       38.0052344781       81.4704242134  LPSA31    22             15.0000000000
     34084      1102  BGLCNA    H4             20.1407532465       38.0364439089       81.4144045074  LPSA31    22             15.0000000000
     34085      1102  BGLCNA    O4             21.5978252804       37.1451174686       82.5140850489  LPSA31    22             15.0000000000
     34086      1102  BGLCNA    HO4            20.8694126599       36.5318630210       82.7130071916  LPSA31    22             15.0000000000
     34087      1102  BGLCNA    C6             21.3508906521       36.1868312498       79.7284495560  LPSA31    22             15.0000000000
     34088      1102  BGLCNA    H61            21.4621132795       35.6081677129       80.6924177192  LPSA31    22             15.0000000000
     34089      1102  BGLCNA    H62            20.2730234010       36.1391625103       79.4648784538  LPSA31    22             15.0000000000
     34090      1102  BGLCNA    O6             22.1855435131       35.5661807705       78.8100863794  LPSA31    22             15.0000000000
     34091      1102  BGLCNA    HO6            22.2212317828       36.1000148154       78.0328486455  LPSA31    22             15.0000000000
     34092      1103  AGAL      C1             21.8755226674       39.8063574174       84.0628261254  LPSA31    23             16.0000000000
     34093      1103  AGAL      H1             21.5474967982       38.8276511405       84.5106287163  LPSA31    23             16.0000000000
     34094      1103  AGAL      C5             23.8699109494       41.0713900215       83.7583018441  LPSA31    23             16.0000000000
     34095      1103  AGAL      H5             23.3550416554       41.5346869607       82.8366412438  LPSA31    23             16.0000000000
     34096      1103  AGAL      O5             23.3052664193       39.8024538393       83.9976212264  LPSA31    23             16.0000000000
     34097      1103  AGAL      C2             21.4659593233       40.7904202054       85.1427633740  LPSA31    23             16.0000000000
     34098      1103  AGAL      H2             22.0003001496       40.4697092922       86.0076373284  LPSA31    23             16.0000000000
     34099      1103  AGAL      O2             20.1064522582       40.7185640601       85.5000844886  LPSA31    23             16.0000000000
     34100      1103  AGAL      C3             22.0013173876       42.1624906739       84.9194901020  LPSA31    23             16.0000000000
     34101      1103  AGAL      H3             21.6906680392       42.4347147477       83.8641570193  LPSA31    23             16.0000000000
     34102      1103  AGAL      O3             21.4741974377       43.1625588827       85.7108298168  LPSA31    23             16.0000000000
     34103      1103  AGAL      HO3            21.4951348367       42.7884840342       86.6206525111  LPSA31    23             16.0000000000
     34104      1103  AGAL      C4             23.4973168267       42.0651327502       84.8901212015  LPSA31    23             16.0000000000
     34105      1103  AGAL      H4             23.9867857728       43.0363787912       84.6506069022  LPSA31    23             16.0000000000
     34106      1103  AGAL      O4             24.1283433618       41.7178994392       86.1132943683  LPSA31    23             16.0000000000
     34107      1103  AGAL      HO4            24.8289957585       41.2239453206       85.8278371007  LPSA31    23             16.0000000000
     34108      1103  AGAL      C6             25.3074692718       40.9526758215       83.3278962909  LPSA31    23             16.0000000000
     34109      1103  AGAL      H61            25.4019520322       40.1831471216       82.6074235255  LPSA31    23             16.0000000000
     34110      1103  AGAL      H62            25.6512249296       41.8234199486       82.7620574208  LPSA31    23             16.0000000000
     34111      1103  AGAL      O6             26.1102935299       40.5935864637       84.3845202183  LPSA31    23             16.0000000000
     34112      1103  AGAL      HO6            27.0225952716       40.4602549960       84.1740981585  LPSA31    23             16.0000000000
     34113      1104  ARHM      C1             19.5316837274       39.6875258697       86.2818185944  LPSA31    24             17.0000000000
     34114      1104  ARHM      H1             20.2600409909       38.9044413521       86.3680542693  LPSA31    24             17.0000000000
     34115      1104  ARHM      C5             17.2397491318       39.9540845209       85.6157638072  LPSA31    24             17.0000000000
     34116      1104  ARHM      H5             17.5490771196       40.7771343072       85.0070975499  LPSA31    24             17.0000000000
     34117      1104  ARHM      O5             18.2840812317       39.0180676063       85.8657410059  LPSA31    24             17.0000000000
     34118      1104  ARHM      C2             19.3062340078       40.3657136965       87.5921581840  LPSA31    24             17.0000000000
     34119      1104  ARHM      H2             20.1546849208       40.9489085914       87.8984046741  LPSA31    24             17.0000000000
     34120      1104  ARHM      O2             18.8442242340       39.4545988962       88.6075763533  LPSA31    24             17.0000000000
     34121      1104  ARHM      C3             18.1493272891       41.3605587859       87.4133527752  LPSA31    24             17.0000000000
     34122      1104  ARHM      H3             18.5026459523       42.0762551092       86.6640279609  LPSA31    24             17.0000000000
     34123      1104  ARHM      O3             17.9100884196       42.2162278864       88.5620392964  LPSA31    24             17.0000000000
     34124      1104  ARHM      HO3            17.3029108950       41.7130884614       89.1463757531  LPSA31    24             17.0000000000
     34125      1104  ARHM      C4             16.8791668119       40.6663236710       86.9402325015  LPSA31    24             17.0000000000
     34126      1104  ARHM      H4             16.6348432199       39.8277426842       87.7071552895  LPSA31    24             17.0000000000
     34127      1104  ARHM      O4             15.7499026160       41.5063988150       86.8379508285  LPSA31    24             17.0000000000
     34128      1104  ARHM      HO4            14.9277516452       41.0815819092       87.0219124236  LPSA31    24             17.0000000000
     34129      1104  ARHM      C6             15.9761831636       39.3015715429       84.9175891319  LPSA31    24             17.0000000000
     34130      1104  ARHM      H61            15.4338160251       40.0814029797       84.3853494017  LPSA31    24             17.0000000000
     34131      1104  ARHM      H62            16.3630919215       38.5838787210       84.2649634992  LPSA31    24             17.0000000000
     34132      1104  ARHM      H63            15.3613328193       38.7183818604       85.6811466487  LPSA31    24             17.0000000000
     34133      1105  ARHM      C1             19.9307746295       38.7189248774       89.1588742089  LPSA31    25             18.0000000000
     34134      1105  ARHM      H1             20.7407926993       38.7100107929       88.4722246341  LPSA31    25             18.0000000000
     34135      1105  ARHM      C5             18.5713223060       37.0280287156       90.1670531641  LPSA31    25             18.0000000000
     34136      1105  ARHM      H5             17.6560403847       37.4771325394       89.8870230824  LPSA31    25             18.0000000000
     34137      1105  ARHM      O5             19.6350277274       37.3101744696       89.2315309535  LPSA31    25             18.0000000000
     34138      1105  ARHM      C2             20.2928414948       39.3007543954       90.4685713243  LPSA31    25             18.0000000000
     34139      1105  ARHM      H2             20.3890850960       40.4314753288       90.3413143991  LPSA31    25             18.0000000000
     34140      1105  ARHM      O2             21.5532882542       38.7256496742       90.9328696740  LPSA31    25             18.0000000000
     34141      1105  ARHM      C3             19.1391138084       38.9305581475       91.4562257518  LPSA31    25             18.0000000000
     34142      1105  ARHM      H3             18.2142406297       39.4266300595       91.0689171631  LPSA31    25             18.0000000000
     34143      1105  ARHM      O3             19.4858654663       39.5199677623       92.6920647463  LPSA31    25             18.0000000000
     34144      1105  ARHM      C4             18.9006937345       37.5258249631       91.5960769721  LPSA31    25             18.0000000000
     34145      1105  ARHM      H4             19.8706183922       36.9439990743       91.8876801091  LPSA31    25             18.0000000000
     34146      1105  ARHM      O4             17.8835346828       37.3732011034       92.5862492282  LPSA31    25             18.0000000000
     34147      1105  ARHM      HO4            18.1240048218       36.5717930014       93.0149361445  LPSA31    25             18.0000000000
     34148      1105  ARHM      C6             18.2264334364       35.5401090852       90.2083352735  LPSA31    25             18.0000000000
     34149      1105  ARHM      H61            18.0778047599       35.1171514620       89.1912344565  LPSA31    25             18.0000000000
     34150      1105  ARHM      H62            19.0324721738       34.9070347470       90.6686969550  LPSA31    25             18.0000000000
     34151      1105  ARHM      H63            17.2762677459       35.3068211544       90.8233913566  LPSA31    25             18.0000000000
     34152      1106  BMANNA    C1             22.6941260650       39.2709195693       90.3138108879  LPSA31    26             19.0000000000
     34153      1106  BMANNA    H1             22.4785583287       40.2729948658       89.8388342826  LPSA31    26             19.0000000000
     34154      1106  BMANNA    C5             24.3821143910       39.1443451038       88.6312665858  LPSA31    26             19.0000000000
     34155      1106  BMANNA    H5             24.0018286122       40.0597397034       88.1771240033  LPSA31    26             19.0000000000
     34156      1106  BMANNA    O5             23.2638635354       38.4810448057       89.2346891933  LPSA31    26             19.0000000000
     34157      1106  BMANNA    C2             23.6917433937       39.4633441634       91.3475147821  LPSA31    26             19.0000000000
     34158      1106  BMANNA    H2             23.1863404594       40.1445398973       92.1081287357  LPSA31    26             19.0000000000
     34159      1106  BMANNA    N              24.0277974823       38.1423555047       91.9238920796  LPSA31    26             19.0000000000
     34160      1106  BMANNA    HN             24.3308567442       37.4751567338       91.3050515894  LPSA31    26             19.0000000000
     34161      1106  BMANNA    C              24.0345984165       37.8579770863       93.1798471680  LPSA31    26             19.0000000000
     34162      1106  BMANNA    O              23.5581156602       38.6620573070       94.0003587425  LPSA31    26             19.0000000000
     34163      1106  BMANNA    CT             24.6456517383       36.5481097696       93.6758917343  LPSA31    26             19.0000000000
     34164      1106  BMANNA    HT1            24.6442833198       35.8831682564       92.8666282051  LPSA31    26             19.0000000000
     34165      1106  BMANNA    HT2            24.3478138938       36.0660107916       94.6620984389  LPSA31    26             19.0000000000
     34166      1106  BMANNA    HT3            25.7032359991       36.7815359836       93.8484898219  LPSA31    26             19.0000000000
     34167      1106  BMANNA    C3             24.8691850004       40.2064651361       90.7100883268  LPSA31    26             19.0000000000
     34168      1106  BMANNA    H3             24.4897473683       41.1909195169       90.3384445889  LPSA31    26             19.0000000000
     34169      1106  BMANNA    O3             25.8222490567       40.5126654451       91.7636866611  LPSA31    26             19.0000000000
     34170      1106  BMANNA    HO3            25.3916344395       41.2214903662       92.2265744207  LPSA31    26             19.0000000000
     34171      1106  BMANNA    C4             25.3965411676       39.4114434020       89.6481622736  LPSA31    26             19.0000000000
     34172      1106  BMANNA    H4             25.7943114054       38.3863312912       89.9013799111  LPSA31    26             19.0000000000
     34173      1106  BMANNA    O4             26.5167463526       40.0402490988       89.0416847738  LPSA31    26             19.0000000000
     34174      1106  BMANNA    HO4            27.2938801806       39.8337077837       89.5591157304  LPSA31    26             19.0000000000
     34175      1106  BMANNA    C6             24.7315428108       38.2688744159       87.3900617492  LPSA31    26             19.0000000000
     34176      1106  BMANNA    H61            23.8278109608       37.8431934559       86.9191763972  LPSA31    26             19.0000000000
     34177      1106  BMANNA    H62            25.2522169238       38.8192860462       86.6504270337  LPSA31    26             19.0000000000
     34178      1106  BMANNA    O6             25.5793444493       37.1781874637       87.7329108337  LPSA31    26             19.0000000000
     34179      1106  BMANNA    HO6            26.3424811283       37.4964465211       88.1688153196  LPSA31    26             19.0000000000
     34180      1107  BGLCNA    C1             18.6317809597       40.2295225543       93.4616184899  LPSA31    27             19.0000000000
     34181      1107  BGLCNA    H1             17.6395456144       39.7898053218       93.4392217979  LPSA31    27             19.0000000000
     34182      1107  BGLCNA    C5             17.5100198116       42.2616354512       93.9656603721  LPSA31    27             19.0000000000
     34183      1107  BGLCNA    H5             16.5624261744       41.6643365469       93.9564344452  LPSA31    27             19.0000000000
     34184      1107  BGLCNA    O5             18.4008810580       41.5950452824       93.0607755266  LPSA31    27             19.0000000000
     34185      1107  BGLCNA    C2             19.2011275044       40.1630729036       94.8806799918  LPSA31    27             19.0000000000
     34186      1107  BGLCNA    H2             20.1487654610       40.7290257015       94.8757458582  LPSA31    27             19.0000000000
     34187      1107  BGLCNA    N              19.4717078198       38.7863044221       95.2501113516  LPSA31    27             19.0000000000
     34188      1107  BGLCNA    HN             18.6863974841       38.1033469066       95.0827132934  LPSA31    27             19.0000000000
     34189      1107  BGLCNA    C              20.6526699582       38.5677948048       95.9523160909  LPSA31    27             19.0000000000
     34190      1107  BGLCNA    O              21.3538493252       39.4569281643       96.5238801166  LPSA31    27             19.0000000000
     34191      1107  BGLCNA    CT             21.0701959793       37.0664991555       96.0293745529  LPSA31    27             19.0000000000
     34192      1107  BGLCNA    HT1            20.4165971580       36.4398112275       95.3635606282  LPSA31    27             19.0000000000
     34193      1107  BGLCNA    HT2            21.1194141726       36.6643378470       97.0167906789  LPSA31    27             19.0000000000
     34194      1107  BGLCNA    HT3            22.1824095830       37.0209973337       95.7039804309  LPSA31    27             19.0000000000
     34195      1107  BGLCNA    C3             18.2714628095       40.8532452289       95.7540348103  LPSA31    27             19.0000000000
     34196      1107  BGLCNA    H3             17.2543265910       40.3883656705       95.7401190096  LPSA31    27             19.0000000000
     34197      1107  BGLCNA    O3             18.8873569959       40.6960198167       97.0775356047  LPSA31    27             19.0000000000
     34198      1107  BGLCNA    C4             18.0478599383       42.3232701625       95.3486864533  LPSA31    27             19.0000000000
     34199      1107  BGLCNA    H4             19.0296786015       42.8488315095       95.3090014479  LPSA31    27             19.0000000000
     34200      1107  BGLCNA    O4             17.1883815117       42.9673410417       96.2156872787  LPSA31    27             19.0000000000
     34201      1107  BGLCNA    HO4            16.3575701800       42.5845882796       96.0162444362  LPSA31    27             19.0000000000
     34202      1107  BGLCNA    C6             17.1698639738       43.6313230659       93.2852949846  LPSA31    27             19.0000000000
     34203      1107  BGLCNA    H61            16.3252463994       44.0287914573       93.8557506920  LPSA31    27             19.0000000000
     34204      1107  BGLCNA    H62            17.9950431194       44.3581967928       93.4725180191  LPSA31    27             19.0000000000
     34205      1107  BGLCNA    O6             16.8763146300       43.4694045838       91.9076175409  LPSA31    27             19.0000000000
     34206      1107  BGLCNA    HO6            16.6971548593       44.3572489319       91.5273290588  LPSA31    27             19.0000000000
     34207      1108  AGAL      C1             18.0889171176       40.9300242584       98.2622020222  LPSA31    28             20.0000000000
     34208      1108  AGAL      H1             17.8721435155       41.9634300053       98.3007149491  LPSA31    28             20.0000000000
     34209      1108  AGAL      C5             16.9188320850       38.8084983193       98.1710438288  LPSA31    28             20.0000000000
     34210      1108  AGAL      H5             17.7935915823       38.4097572790       97.4646141937  LPSA31    28             20.0000000000
     34211      1108  AGAL      O5             16.8230264699       40.2904432872       98.1147365872  LPSA31    28             20.0000000000
     34212      1108  AGAL      C2             18.6558744634       40.4793910411       99.6197190629  LPSA31    28             20.0000000000
     34213      1108  AGAL      H2             17.8570160857       40.7751012313      100.2965066153  LPSA31    28             20.0000000000
     34214      1108  AGAL      O2             19.8246098298       41.1413479246      100.0788731798  LPSA31    28             20.0000000000
     34215      1108  AGAL      C3             18.7698399485       38.9921454222       99.7396972452  LPSA31    28             20.0000000000
     34216      1108  AGAL      H3             19.3887974830       38.6271226997       98.8607737785  LPSA31    28             20.0000000000
     34217      1108  AGAL      O3             19.4043062922       38.4287435990      100.9043404272  LPSA31    28             20.0000000000
     34218      1108  AGAL      HO3            20.1947174922       37.9687414799      100.5606486229  LPSA31    28             20.0000000000
     34219      1108  AGAL      C4             17.4418987849       38.3894493519       99.5102226768  LPSA31    28             20.0000000000
     34220      1108  AGAL      H4             17.5637416316       37.3329789690       99.4798298294  LPSA31    28             20.0000000000
     34221      1108  AGAL      O4             16.4967876184       38.7239153778      100.4757933835  LPSA31    28             20.0000000000
     34222      1108  AGAL      HO4            16.4350142859       37.9854215311      101.0376442747  LPSA31    28             20.0000000000
     34223      1108  AGAL      C6             15.6901314816       38.0675889553       97.6362902244  LPSA31    28             20.0000000000
     34224      1108  AGAL      H61            15.5654390186       38.3012840912       96.5809275898  LPSA31    28             20.0000000000
     34225      1108  AGAL      H62            15.6758570705       36.9237403308       97.7651048223  LPSA31    28             20.0000000000
     34226      1108  AGAL      O6             14.5413340382       38.4828852951       98.3456070822  LPSA31    28             20.0000000000
     34227      1108  AGAL      HO6            14.1683551032       39.2674976336       97.9416813930  LPSA31    28             20.0000000000
     34228      1109  ARHM      C1             19.6625612098       41.4610306346      101.4808913342  LPSA31    29             21.0000000000
     34229      1109  ARHM      H1             18.9690915728       40.7206337682      101.9964955809  LPSA31    29             21.0000000000
     34230      1109  ARHM      C5             19.9758315734       43.7642609895      101.1486206043  LPSA31    29             21.0000000000
     34231      1109  ARHM      H5             20.1538995987       43.4755764162      100.0935446791  LPSA31    29             21.0000000000
     34232      1109  ARHM      O5             19.1678479550       42.7545393712      101.6833506475  LPSA31    29             21.0000000000
     34233      1109  ARHM      C2             20.9551237701       41.2787950189      102.1437305515  LPSA31    29             21.0000000000
     34234      1109  ARHM      H2             21.3925755444       40.3306697557      101.9067628034  LPSA31    29             21.0000000000
     34235      1109  ARHM      O2             20.8501792783       41.3765121929      103.5748524404  LPSA31    29             21.0000000000
     34236      1109  ARHM      C3             21.8814047748       42.3437410242      101.6289418068  LPSA31    29             21.0000000000
     34237      1109  ARHM      H3             22.0724623773       42.1602380828      100.4952263366  LPSA31    29             21.0000000000
     34238      1109  ARHM      O3             23.1454187506       42.1393919184      102.1995749427  LPSA31    29             21.0000000000
     34239      1109  ARHM      HO3            23.5373154957       42.9456518319      102.2092645043  LPSA31    29             21.0000000000
     34240      1109  ARHM      C4             21.3834426929       43.7080141618      101.8247918557  LPSA31    29             21.0000000000
     34241      1109  ARHM      H4             21.2863895307       43.9677297191      102.9338171738  LPSA31    29             21.0000000000
     34242      1109  ARHM      O4             22.2074018938       44.7947350822      101.3452167393  LPSA31    29             21.0000000000
     34243      1109  ARHM      HO4            22.6047400412       44.6374610073      100.4362974805  LPSA31    29             21.0000000000
     34244      1109  ARHM      C6             19.1620449161       45.0687105731      101.2162231226  LPSA31    29             21.0000000000
     34245      1109  ARHM      H61            18.1497963300       44.7569949377      100.7685423143  LPSA31    29             21.0000000000
     34246      1109  ARHM      H62            19.0064913738       45.3406702043      102.3013153741  LPSA31    29             21.0000000000
     34247      1109  ARHM      H63            19.6635981643       45.8285976705      100.6072571094  LPSA31    29             21.0000000000
     34248      1110  ARHM      C1             20.7536710693       40.2552992691      104.3945976075  LPSA31    30             22.0000000000
     34249      1110  ARHM      H1             21.6368799492       39.6052296361      104.2094096401  LPSA31    30             22.0000000000
     34250      1110  ARHM      C5             18.3228465402       40.2791780077      104.5143062533  LPSA31    30             22.0000000000
     34251      1110  ARHM      H5             18.4895633684       41.2239272431      103.8668162917  LPSA31    30             22.0000000000
     34252      1110  ARHM      O5             19.5258269621       39.5206732020      104.2052433351  LPSA31    30             22.0000000000
     34253      1110  ARHM      C2             20.8083084637       40.6928898190      105.8471183130  LPSA31    30             22.0000000000
     34254      1110  ARHM      H2             21.6726191204       41.2442719665      106.0289718167  LPSA31    30             22.0000000000
     34255      1110  ARHM      O2             20.7158206815       39.5196051932      106.5813641610  LPSA31    30             22.0000000000
     34256      1110  ARHM      C3             19.6175514652       41.4490696387      106.2079894766  LPSA31    30             22.0000000000
     34257      1110  ARHM      H3             19.5058048960       42.2487437436      105.5270001340  LPSA31    30             22.0000000000
     34258      1110  ARHM      O3             19.6775991956       42.0383716051      107.5373891676  LPSA31    30             22.0000000000
     34259      1110  ARHM      C4             18.3276564264       40.6567148887      105.9708288384  LPSA31    30             22.0000000000
     34260      1110  ARHM      H4             18.2866907645       39.7257744858      106.5400372406  LPSA31    30             22.0000000000
     34261      1110  ARHM      O4             17.1718834733       41.2901190595      106.2997755749  LPSA31    30             22.0000000000
     34262      1110  ARHM      HO4            16.7927388536       41.9422429397      105.6964454668  LPSA31    30             22.0000000000
     34263      1110  ARHM      C6             17.1006734958       39.5084451775      104.0930490251  LPSA31    30             22.0000000000
     34264      1110  ARHM      H61            16.2205486966       40.1993911952      104.2143179997  LPSA31    30             22.0000000000
     34265      1110  ARHM      H62            17.1354889593       39.3579589576      103.0019050467  LPSA31    30             22.0000000000
     34266      1110  ARHM      H63            16.9601766464       38.5279977560      104.6493652223  LPSA31    30             22.0000000000
     34267      1111  BMANNA    C1             21.9389397954       38.9221598475      106.9502319096  LPSA31    31             23.0000000000
     34268      1111  BMANNA    H1             22.6660748956       39.7396424667      107.1550799008  LPSA31    31             23.0000000000
     34269      1111  BMANNA    C5             23.7834356792       37.5199281158      106.2136717625  LPSA31    31             23.0000000000
     34270      1111  BMANNA    H5             24.3936460487       38.3713932888      106.5467054000  LPSA31    31             23.0000000000
     34271      1111  BMANNA    O5             22.4839975780       38.0862928157      105.8742289322  LPSA31    31             23.0000000000
     34272      1111  BMANNA    C2             21.7426798595       38.0716609652      108.0830629221  LPSA31    31             23.0000000000
     34273      1111  BMANNA    H2             21.4413815936       38.7511026302      108.9031915743  LPSA31    31             23.0000000000
     34274      1111  BMANNA    N              20.6599829763       37.1864081309      107.8252935315  LPSA31    31             23.0000000000
     34275      1111  BMANNA    HN             20.4581559750       36.9651834738      106.8111160773  LPSA31    31             23.0000000000
     34276      1111  BMANNA    C              19.8821874482       36.6823831985      108.7868858964  LPSA31    31             23.0000000000
     34277      1111  BMANNA    O              20.0026452604       37.0103633867      109.9536662434  LPSA31    31             23.0000000000
     34278      1111  BMANNA    CT             18.8156588147       35.6781256051      108.3237946568  LPSA31    31             23.0000000000
     34279      1111  BMANNA    HT1            19.2466692899       35.0649079484      107.5739831696  LPSA31    31             23.0000000000
     34280      1111  BMANNA    HT2            17.9673147468       36.2515548600      107.9347099034  LPSA31    31             23.0000000000
     34281      1111  BMANNA    HT3            18.3924418155       35.1247465924      109.1768357935  LPSA31    31             23.0000000000
     34282      1111  BMANNA    C3             23.0498868226       37.4733671994      108.4884560283  LPSA31    31             23.0000000000
     34283      1111  BMANNA    H3             23.8464193399       38.2810239364      108.6988550870  LPSA31    31             23.0000000000
     34284      1111  BMANNA    O3             22.9572919067       36.7930128770      109.7404994872  LPSA31    31             23.0000000000
     34285      1111  BMANNA    HO3            22.1578014813       37.2052625024      110.0111610137  LPSA31    31             23.0000000000
     34286      1111  BMANNA    C4             23.5745401520       36.6011217986      107.4199857710  LPSA31    31             23.0000000000
     34287      1111  BMANNA    H4             22.8684424234       35.7143026424      107.0572414185  LPSA31    31             23.0000000000
     34288      1111  BMANNA    O4             24.7758444334       35.9795836859      107.8525671122  LPSA31    31             23.0000000000
     34289      1111  BMANNA    HO4            25.4298825244       36.6296356212      108.1943429300  LPSA31    31             23.0000000000
     34290      1111  BMANNA    C6             24.4333924993       36.7516418458      105.0512686782  LPSA31    31             23.0000000000
     34291      1111  BMANNA    H61            25.5384910293       36.5327826995      105.3397811046  LPSA31    31             23.0000000000
     34292      1111  BMANNA    H62            23.9647742267       35.7886612409      104.8698551944  LPSA31    31             23.0000000000
     34293      1111  BMANNA    O6             24.4013868332       37.5065594094      103.8241467834  LPSA31    31             23.0000000000
     34294      1111  BMANNA    HO6            25.0157779316       38.2944448883      103.8134147631  LPSA31    31             23.0000000000
     34295      1112  BGLCNA    C1             19.3704453128       41.2117730462      108.6103969990  LPSA31    32             23.0000000000
     34296      1112  BGLCNA    H1             19.7236411889       40.1463285569      108.4325564695  LPSA31    32             23.0000000000
     34297      1112  BGLCNA    C5             17.6335897071       40.1670564341      109.9277617404  LPSA31    32             23.0000000000
     34298      1112  BGLCNA    H5             18.0558429992       39.1712597424      109.5374749077  LPSA31    32             23.0000000000
     34299      1112  BGLCNA    O5             17.9830459984       41.1426002066      108.9423333575  LPSA31    32             23.0000000000
     34300      1112  BGLCNA    C2             20.0822534881       41.6370519775      109.8194522937  LPSA31    32             23.0000000000
     34301      1112  BGLCNA    H2             19.6003917368       42.5421316617      110.1044894257  LPSA31    32             23.0000000000
     34302      1112  BGLCNA    N              21.4703646656       41.8594285560      109.5956973249  LPSA31    32             23.0000000000
     34303      1112  BGLCNA    HN             21.7983788630       41.2091244508      108.8809076996  LPSA31    32             23.0000000000
     34304      1112  BGLCNA    C              22.2809577214       42.8241476068      110.0864625708  LPSA31    32             23.0000000000
     34305      1112  BGLCNA    O              21.9015631410       43.6362040870      110.9304085025  LPSA31    32             23.0000000000
     34306      1112  BGLCNA    CT             23.7416445303       42.8426810782      109.5841031968  LPSA31    32             23.0000000000
     34307      1112  BGLCNA    HT1            23.6301814538       42.1742997705      108.6281101354  LPSA31    32             23.0000000000
     34308      1112  BGLCNA    HT2            24.4615106263       42.3523056130      110.1898124037  LPSA31    32             23.0000000000
     34309      1112  BGLCNA    HT3            24.0921868840       43.8681436077      109.3122359934  LPSA31    32             23.0000000000
     34310      1112  BGLCNA    C3             19.8463104889       40.6165187295      110.8930231790  LPSA31    32             23.0000000000
     34311      1112  BGLCNA    H3             20.1036776323       39.6923177810      110.4606187373  LPSA31    32             23.0000000000
     34312      1112  BGLCNA    O3             20.6584435998       40.7898923454      112.0657798240  LPSA31    32             23.0000000000
     34313      1112  BGLCNA    C4             18.3680141925       40.5966409527      111.1707572500  LPSA31    32             23.0000000000
     34314      1112  BGLCNA    H4             18.0856516851       41.6229118478      111.5318289610  LPSA31    32             23.0000000000
     34315      1112  BGLCNA    O4             18.0477761608       39.7061647951      112.2070236435  LPSA31    32             23.0000000000
     34316      1112  BGLCNA    HO4            18.0559665807       40.1355715605      113.0745323218  LPSA31    32             23.0000000000
     34317      1112  BGLCNA    C6             16.1269983296       40.0460694567      110.0229508171  LPSA31    32             23.0000000000
     34318      1112  BGLCNA    H61            15.8170873649       39.1822262141      110.7194343748  LPSA31    32             23.0000000000
     34319      1112  BGLCNA    H62            15.7064110793       40.9798192674      110.5717638480  LPSA31    32             23.0000000000
     34320      1112  BGLCNA    O6             15.5269974474       39.7838864224      108.7709294272  LPSA31    32             23.0000000000
     34321      1112  BGLCNA    HO6            16.1114750179       39.1883823942      108.2360311317  LPSA31    32             23.0000000000
     34322      1113  AGAL      C1             21.1094903109       39.5551938186      112.6842874521  LPSA31    33             24.0000000000
     34323      1113  AGAL      H1             20.2812350636       38.8476073833      112.5979959475  LPSA31    33             24.0000000000
     34324      1113  AGAL      C5             23.4075845154       39.9174601483      112.2149219831  LPSA31    33             24.0000000000
     34325      1113  AGAL      H5             23.0196217721       40.8956914671      111.8792915250  LPSA31    33             24.0000000000
     34326      1113  AGAL      O5             22.3255946716       39.0205469014      112.0726784748  LPSA31    33             24.0000000000
     34327      1113  AGAL      C2             21.4090201707       39.8699609018      114.1482787662  LPSA31    33             24.0000000000
     34328      1113  AGAL      H2             21.8612828324       38.8930227106      114.5751854976  LPSA31    33             24.0000000000
     34329      1113  AGAL      O2             20.1885547049       40.0212210972      114.8486222260  LPSA31    33             24.0000000000
     34330      1113  AGAL      C3             22.5839081448       40.8047877779      114.2945545625  LPSA31    33             24.0000000000
     34331      1113  AGAL      H3             22.3823905510       41.7845766252      113.7405815065  LPSA31    33             24.0000000000
     34332      1113  AGAL      O3             22.7836235188       41.2639226330      115.5672660328  LPSA31    33             24.0000000000
     34333      1113  AGAL      HO3            22.8495367869       40.6195465108      116.2400186851  LPSA31    33             24.0000000000
     34334      1113  AGAL      C4             23.8244324888       40.2080856832      113.6708488317  LPSA31    33             24.0000000000
     34335      1113  AGAL      H4             24.6553875198       40.9238807527      113.6729875792  LPSA31    33             24.0000000000
     34336      1113  AGAL      O4             24.3637248942       38.9945275083      114.2435538900  LPSA31    33             24.0000000000
     34337      1113  AGAL      HO4            23.8017583018       38.6145711119      114.9085525172  LPSA31    33             24.0000000000
     34338      1113  AGAL      C6             24.5570871191       39.5692037751      111.2992528405  LPSA31    33             24.0000000000
     34339      1113  AGAL      H61            24.1341708788       39.6613988526      110.2783408757  LPSA31    33             24.0000000000
     34340      1113  AGAL      H62            25.4478897374       40.2237602387      111.3458027743  LPSA31    33             24.0000000000
     34341      1113  AGAL      O6             25.1233726298       38.3014555098      111.4129476537  LPSA31    33             24.0000000000
     34342      1113  AGAL      HO6            24.6822139532       37.6203569755      110.8444757795  LPSA31    33             24.0000000000
     34343      1114  ARHM      C1             20.0833435485       39.2643666452      116.0109133884  LPSA31    34             25.0000000000
     34344      1114  ARHM      H1             20.9884551864       39.3268739738      116.6389743656  LPSA31    34             25.0000000000
     34345      1114  ARHM      C5             18.7145419602       37.5051911481      115.0727799907  LPSA31    34             25.0000000000
     34346      1114  ARHM      H5             18.8482823809       37.9671951716      114.0209633333  LPSA31    34             25.0000000000
     34347      1114  ARHM      O5             19.8904492081       37.8399450170      115.8926868953  LPSA31    34             25.0000000000
     34348      1114  ARHM      C2             18.9376995807       39.8852085341      116.7601555753  LPSA31    34             25.0000000000
     34349      1114  ARHM      H2             18.9718701955       41.0030481364      116.8710959342  LPSA31    34             25.0000000000
     34350      1114  ARHM      O2             18.7509957850       39.3746295027      118.1592972339  LPSA31    34             25.0000000000
     34351      1114  ARHM      C3             17.6547574489       39.5846628909      115.9988665506  LPSA31    34             25.0000000000
     34352      1114  ARHM      H3             17.6983654550       39.9791864207      114.9724172480  LPSA31    34             25.0000000000
     34353      1114  ARHM      O3             16.4367004063       40.1015819511      116.5878695042  LPSA31    34             25.0000000000
     34354      1114  ARHM      HO3            15.8059957392       40.4319911656      115.9559434517  LPSA31    34             25.0000000000
     34355      1114  ARHM      C4             17.4364321804       38.0600900617      115.7987835878  LPSA31    34             25.0000000000
     34356      1114  ARHM      H4             17.4707784972       37.5029513871      116.7495315617  LPSA31    34             25.0000000000
     34357      1114  ARHM      O4             16.2632765092       37.7609790889      115.1362621200  LPSA31    34             25.0000000000
     34358      1114  ARHM      HO4            15.4941041331       37.8436142609      115.6953140327  LPSA31    34             25.0000000000
     34359      1114  ARHM      C6             18.5902178629       35.9565226980      114.8413279703  LPSA31    34             25.0000000000
     34360      1114  ARHM      H61            18.4198055359       35.3657190852      115.7172490283  LPSA31    34             25.0000000000
     34361      1114  ARHM      H62            17.5943204300       35.7764585622      114.3996926230  LPSA31    34             25.0000000000
     34362      1114  ARHM      H63            19.3285978000       35.4961583758      114.1590834060  LPSA31    34             25.0000000000
     34363      1115  ARHM      C1             19.8512279810       39.5269250294      119.0795908573  LPSA31    35             26.0000000000
     34364      1115  ARHM      H1             20.3522359688       40.5633455379      118.8787348947  LPSA31    35             26.0000000000
     34365      1115  ARHM      C5             20.3158408662       37.1479222160      119.2408916176  LPSA31    35             26.0000000000
     34366      1115  ARHM      H5             19.4315397668       36.8995812652      118.5254732223  LPSA31    35             26.0000000000
     34367      1115  ARHM      O5             20.8935838593       38.4730513877      118.9290334222  LPSA31    35             26.0000000000
     34368      1115  ARHM      C2             19.3319570099       39.5247318126      120.5365485050  LPSA31    35             26.0000000000
     34369      1115  ARHM      H2             18.6309576931       40.3893753241      120.7134209997  LPSA31    35             26.0000000000
     34370      1115  ARHM      O2             20.3830458202       39.6988633156      121.4126203716  LPSA31    35             26.0000000000
     34371      1115  ARHM      C3             18.6679646385       38.1703932850      120.8720061906  LPSA31    35             26.0000000000
     34372      1115  ARHM      H3             17.8070314501       38.0595481449      120.1344793452  LPSA31    35             26.0000000000
     34373      1115  ARHM      O3             18.0753684014       38.1872725352      122.1540075829  LPSA31    35             26.0000000000
     34374      1115  ARHM      HO3            18.6073084845       38.7418877021      122.7288731339  LPSA31    35             26.0000000000
     34375      1115  ARHM      C4             19.7099695573       37.1031179772      120.6788917534  LPSA31    35             26.0000000000
     34376      1115  ARHM      H4             20.6183478852       37.2270825904      121.3307119103  LPSA31    35             26.0000000000
     34377      1115  ARHM      O4             19.0625380735       35.8450702847      120.9693790153  LPSA31    35             26.0000000000
     34378      1115  ARHM      HO4            18.1717269863       35.7511982296      120.5581709812  LPSA31    35             26.0000000000
     34379      1115  ARHM      C6             21.3473616882       36.0293630345      118.8642347863  LPSA31    35             26.0000000000
     34380      1115  ARHM      H61            21.5278278923       36.0017092812      117.7433556958  LPSA31    35             26.0000000000
     34381      1115  ARHM      H62            22.2217718665       36.3349787997      119.4176110492  LPSA31    35             26.0000000000
     34382      1115  ARHM      H63            20.8425158544       35.0405616288      119.0633705917  LPSA31    35             26.0000000000
     34383      1116  BMANNA    C1             20.9625357810       40.9682463573      121.4471464502  LPSA31    36             27.0000000000
     34384      1116  BMANNA    H1             20.2485511848       41.7513221340      121.0972061898  LPSA31    36             27.0000000000
     34385      1116  BMANNA    C5             22.5755729790       42.6230068869      120.7299884793  LPSA31    36             27.0000000000
     34386      1116  BMANNA    H5             21.7238574357       43.2454390487      120.4610684421  LPSA31    36             27.0000000000
     34387      1116  BMANNA    O5             22.1626159878       41.2207302316      120.6641532654  LPSA31    36             27.0000000000
     34388      1116  BMANNA    C2             21.3004405379       41.3018074640      122.8920138725  LPSA31    36             27.0000000000
     34389      1116  BMANNA    H2             20.3642108313       41.1989362579      123.4719477421  LPSA31    36             27.0000000000
     34390      1116  BMANNA    N              22.2617490146       40.3451074932      123.4395449790  LPSA31    36             27.0000000000
     34391      1116  BMANNA    HN             23.0384942286       40.0503353741      122.8746519580  LPSA31    36             27.0000000000
     34392      1116  BMANNA    C              22.3012992237       40.0823002770      124.7737151700  LPSA31    36             27.0000000000
     34393      1116  BMANNA    O              21.4831197717       40.4587820118      125.6190347561  LPSA31    36             27.0000000000
     34394      1116  BMANNA    CT             23.4491740967       39.3062111276      125.3570716528  LPSA31    36             27.0000000000
     34395      1116  BMANNA    HT1            24.3894283114       39.5998956744      124.8802869227  LPSA31    36             27.0000000000
     34396      1116  BMANNA    HT2            23.3823667079       38.1968698620      125.1731404614  LPSA31    36             27.0000000000
     34397      1116  BMANNA    HT3            23.5576914355       39.3512006353      126.4547536948  LPSA31    36             27.0000000000
     34398      1116  BMANNA    C3             21.7779673816       42.7288245933      122.9763638711  LPSA31    36             27.0000000000
     34399      1116  BMANNA    H3             20.9923413587       43.4175296624      122.6403873786  LPSA31    36             27.0000000000
     34400      1116  BMANNA    O3             22.0646616393       43.1299815847      124.3414054450  LPSA31    36             27.0000000000
     34401      1116  BMANNA    HO3            21.5261770267       43.8184866520      124.7171830083  LPSA31    36             27.0000000000
     34402      1116  BMANNA    C4             22.9618523236       42.9633608827      122.1146940524  LPSA31    36             27.0000000000
     34403      1116  BMANNA    H4             23.8079370457       42.3925384164      122.4263894750  LPSA31    36             27.0000000000
     34404      1116  BMANNA    O4             23.4224208915       44.3092081566      122.2172873890  LPSA31    36             27.0000000000
     34405      1116  BMANNA    HO4            23.5535450300       44.3198937131      123.1985163392  LPSA31    36             27.0000000000
     34406      1116  BMANNA    C6             23.6472419404       42.8525680624      119.7412642597  LPSA31    36             27.0000000000
     34407      1116  BMANNA    H61            23.2957716701       42.6646199482      118.6946701192  LPSA31    36             27.0000000000
     34408      1116  BMANNA    H62            23.7800799415       43.9382725463      119.7045442506  LPSA31    36             27.0000000000
     34409      1116  BMANNA    O6             24.8946179434       42.1516900378      120.0914698020  LPSA31    36             27.0000000000
     34410      1116  BMANNA    HO6            25.3894053157       42.7644443822      120.6476247167  LPSA31    36             27.0000000000
     34411      1117  ECLIPA    HB6S          -33.8820544590       27.3747552196       20.4612168218  LPSA32    1               0.0000000000
     34412      1117  ECLIPA    OB6           -34.2734134370       25.8452770379       21.7140249152  LPSA32    1               0.0000000000
     34413      1117  ECLIPA    CB6           -33.3988591773       26.4670426935       20.7042159014  LPSA32    1               0.0000000000
     34414      1117  ECLIPA    HB6R          -32.3842537510       26.5223730658       21.0541931349  LPSA32    1               0.0000000000
     34415      1117  ECLIPA    CB5           -33.2579836987       25.5765613304       19.3988764877  LPSA32    1               0.0000000000
     34416      1117  ECLIPA    OB5           -34.6580434316       25.3314268543       18.9716901872  LPSA32    1               0.0000000000
     34417      1117  ECLIPA    HB5           -32.8422085608       24.6238821677       19.7771798410  LPSA32    1               0.0000000000
     34418      1117  ECLIPA    CB1           -34.6713692410       24.5235866533       17.7717324898  LPSA32    1               0.0000000000
     34419      1117  ECLIPA    HB1           -34.1906877380       23.5289505765       17.9003641080  LPSA32    1               0.0000000000
     34420      1117  ECLIPA    OA6           -35.9801405876       24.3413109737       17.3217246577  LPSA32    1               0.0000000000
     34421      1117  ECLIPA    CA6           -36.9687367383       25.3623860810       17.5745106853  LPSA32    1               0.0000000000
     34422      1117  ECLIPA    HA6R          -36.4421237067       26.3269727594       17.7226451425  LPSA32    1               0.0000000000
     34423      1117  ECLIPA    HA6S          -37.6289119158       24.9992728607       18.4598965841  LPSA32    1               0.0000000000
     34424      1117  ECLIPA    CB4           -32.4015670592       26.2689227061       18.3206521937  LPSA32    1               0.0000000000
     34425      1117  ECLIPA    HB4           -32.8470411571       27.2368909073       18.0085584641  LPSA32    1               0.0000000000
     34426      1117  ECLIPA    OB4           -31.0793908568       26.2455332972       18.9017319965  LPSA32    1               0.0000000000
     34427      1117  ECLIPA    PB            -30.3748312924       27.6302940903       19.3234616795  LPSA32    1               0.0000000000
     34428      1117  ECLIPA    OPB4          -29.5021286526       27.3368387489       20.5579515876  LPSA32    1               0.0000000000
     34429      1117  ECLIPA    OPB3          -31.6106448254       28.4992804830       19.6614545037  LPSA32    1               0.0000000000
     34430      1117  ECLIPA    OPB2          -29.6438449600       28.1649714705       18.0829495795  LPSA32    1               0.0000000000
     34431      1117  ECLIPA    CB3           -32.4684314517       25.3775062210       17.0955893951  LPSA32    1               0.0000000000
     34432      1117  ECLIPA    OB3           -31.8127400088       25.8817517734       15.9186528231  LPSA32    1               0.0000000000
     34433      1117  ECLIPA    HB3           -32.1936550929       24.3038151696       17.3284540628  LPSA32    1               0.0000000000
     34434      1117  ECLIPA    C71           -30.5902326655       25.5330784759       15.6929469039  LPSA32    1               0.0000000000
     34435      1117  ECLIPA    O71           -29.9614304302       24.6976997077       16.3832172580  LPSA32    1               0.0000000000
     34436      1117  ECLIPA    C72           -30.1542454950       26.1856037050       14.3548430386  LPSA32    1               0.0000000000
     34437      1117  ECLIPA    H72R          -30.8464415623       25.8666212948       13.5774555414  LPSA32    1               0.0000000000
     34438      1117  ECLIPA    H72S          -29.0340026155       25.9170694943       14.1464415926  LPSA32    1               0.0000000000
     34439      1117  ECLIPA    CB2           -33.9417501617       25.2146026175       16.6720734084  LPSA32    1               0.0000000000
     34440      1117  ECLIPA    HB2           -34.3591149905       26.3113113410       16.5298168153  LPSA32    1               0.0000000000
     34441      1117  ECLIPA    NB2           -34.1041920261       24.3868936551       15.4577284722  LPSA32    1               0.0000000000
     34442      1117  ECLIPA    HNB2          -34.1386278494       23.3981535258       15.5965609326  LPSA32    1               0.0000000000
     34443      1117  ECLIPA    CA4           -38.2558394305       24.1655062297       15.7929312798  LPSA32    1               0.0000000000
     34444      1117  ECLIPA    HA4           -37.3442599694       23.5897359314       15.4903430209  LPSA32    1               0.0000000000
     34445      1117  ECLIPA    OA4           -38.9345580928       23.4794841970       16.8012065728  LPSA32    1               0.0000000000
     34446      1117  ECLIPA    HOA4          -38.4780018357       23.4816303267       17.5928838569  LPSA32    1               0.0000000000
     34447      1117  ECLIPA    CA5           -37.8451976033       25.4619857172       16.3547806008  LPSA32    1               0.0000000000
     34448      1117  ECLIPA    HA5           -38.6860525310       26.2378395947       16.5880746347  LPSA32    1               0.0000000000
     34449      1117  ECLIPA    OA5           -37.0434069294       26.1272246210       15.3689671688  LPSA32    1               0.0000000000
     34450      1117  ECLIPA    CA1           -37.7792812163       26.3125134726       14.1076640156  LPSA32    1               0.0000000000
     34451      1117  ECLIPA    HA1           -36.9191237544       26.5159481949       13.4118188108  LPSA32    1               0.0000000000
     34452      1117  ECLIPA    OA1           -38.6491330280       27.4271507118       14.1359876212  LPSA32    1               0.0000000000
     34453      1117  ECLIPA    OPA2          -38.9748767693       28.9550996375       15.9734101064  LPSA32    1               0.0000000000
     34454      1117  ECLIPA    OPA3          -36.6965273298       28.9119876985       14.8300177673  LPSA32    1               0.0000000000
     34455      1117  ECLIPA    OPA4          -38.6324340932       29.8610042729       13.6615320840  LPSA32    1               0.0000000000
     34456      1117  ECLIPA    PA            -38.1871289006       28.8322313061       14.6765383084  LPSA32    1               0.0000000000
     34457      1117  ECLIPA    CA3           -39.0843264393       24.2862142655       14.5219348229  LPSA32    1               0.0000000000
     34458      1117  ECLIPA    HA3           -40.0888197554       24.8245813582       14.7377032538  LPSA32    1               0.0000000000
     34459      1117  ECLIPA    OA3           -39.4974413365       22.9592810754       14.2498111976  LPSA32    1               0.0000000000
     34460      1117  ECLIPA    C31           -38.6366651011       22.1989067406       13.5006246295  LPSA32    1               0.0000000000
     34461      1117  ECLIPA    O31           -38.4809227585       22.2579554720       12.2941239937  LPSA32    1               0.0000000000
     34462      1117  ECLIPA    C32           -38.2988526848       20.9185081071       14.2780289507  LPSA32    1               0.0000000000
     34463      1117  ECLIPA    H32R          -38.7007402214       20.0550558612       13.7149713840  LPSA32    1               0.0000000000
     34464      1117  ECLIPA    H32S          -38.7347206694       20.9624028990       15.2729523512  LPSA32    1               0.0000000000
     34465      1117  ECLIPA    CA2           -38.2252056291       25.0036818210       13.4984733916  LPSA32    1               0.0000000000
     34466      1117  ECLIPA    HA2           -37.2970642794       24.4350170138       13.3982259915  LPSA32    1               0.0000000000
     34467      1117  ECLIPA    NA2           -38.9044215758       25.2206356786       12.2035087571  LPSA32    1               0.0000000000
     34468      1117  ECLIPA    HNA2          -39.7511334741       24.7604621810       12.0865030408  LPSA32    1               0.0000000000
     34469      1117  ECLIPA    C73           -30.1784461965       27.6920381679       14.3319064372  LPSA32    1               0.0000000000
     34470      1117  ECLIPA    H73R          -29.7494150145       28.1356005695       15.2227416964  LPSA32    1               0.0000000000
     34471      1117  ECLIPA    O73           -31.5734388741       28.0791066613       14.2644256719  LPSA32    1               0.0000000000
     34472      1117  ECLIPA    C81           -32.0887525186       29.1699624323       14.8555734565  LPSA32    1               0.0000000000
     34473      1117  ECLIPA    O81           -31.3640783626       29.8246793657       15.6690894779  LPSA32    1               0.0000000000
     34474      1117  ECLIPA    C82           -33.5136019996       29.4758542435       14.3536111794  LPSA32    1               0.0000000000
     34475      1117  ECLIPA    H82R          -33.9359047049       30.3419352608       14.8531840528  LPSA32    1               0.0000000000
     34476      1117  ECLIPA    H82S          -34.2023623805       28.6183365920       14.5323473422  LPSA32    1               0.0000000000
     34477      1117  ECLIPA    C83           -33.4919531639       29.7242185155       12.8301722806  LPSA32    1               0.0000000000
     34478      1117  ECLIPA    H83R          -33.4925752819       28.7349976497       12.2351841548  LPSA32    1               0.0000000000
     34479      1117  ECLIPA    H83S          -32.5166833856       30.1519369451       12.5911296392  LPSA32    1               0.0000000000
     34480      1117  ECLIPA    C84           -34.7240930007       30.4892393199       12.3050927261  LPSA32    1               0.0000000000
     34481      1117  ECLIPA    H84R          -34.6150178938       31.5463718033       12.5767117503  LPSA32    1               0.0000000000
     34482      1117  ECLIPA    H84S          -35.5537195871       29.9712970098       12.7369555497  LPSA32    1               0.0000000000
     34483      1117  ECLIPA    C85           -34.8507959661       30.3578089124       10.7695484051  LPSA32    1               0.0000000000
     34484      1117  ECLIPA    H85R          -34.6459585483       29.3019383990       10.5503608829  LPSA32    1               0.0000000000
     34485      1117  ECLIPA    H85S          -34.0361939478       30.9368606881       10.2367999955  LPSA32    1               0.0000000000
     34486      1117  ECLIPA    C86           -36.3038648603       30.6512571422       10.3034592726  LPSA32    1               0.0000000000
     34487      1117  ECLIPA    H86R          -36.4712230750       31.7358706695        9.9932223571  LPSA32    1               0.0000000000
     34488      1117  ECLIPA    H86S          -37.0182971048       30.4541967869       11.0807540114  LPSA32    1               0.0000000000
     34489      1117  ECLIPA    C87           -36.7682686824       29.6849274231        9.1601018854  LPSA32    1               0.0000000000
     34490      1117  ECLIPA    H87R          -37.7611142017       29.9414877113        8.8049419625  LPSA32    1               0.0000000000
     34491      1117  ECLIPA    H87S          -36.8594697628       28.6317341135        9.5406723883  LPSA32    1               0.0000000000
     34492      1117  ECLIPA    C88           -35.7685073222       29.6223501610        8.0318999685  LPSA32    1               0.0000000000
     34493      1117  ECLIPA    H88R          -34.8596988760       29.0128638890        8.3479828359  LPSA32    1               0.0000000000
     34494      1117  ECLIPA    H88S          -35.2624294003       30.6257247446        7.9254521495  LPSA32    1               0.0000000000
     34495      1117  ECLIPA    C89           -36.3093964476       28.9847858121        6.7101000712  LPSA32    1               0.0000000000
     34496      1117  ECLIPA    H89R          -37.2362193276       28.3940221388        6.8746682686  LPSA32    1               0.0000000000
     34497      1117  ECLIPA    H89S          -35.6325343718       28.3032135506        6.2317001698  LPSA32    1               0.0000000000
     34498      1117  ECLIPA    C810          -36.5681361510       30.1209549726        5.7047246593  LPSA32    1               0.0000000000
     34499      1117  ECLIPA    H810R         -35.8082153268       30.8629138923        6.0108430704  LPSA32    1               0.0000000000
     34500      1117  ECLIPA    H810S         -37.5575006612       30.5080501537        5.8554647029  LPSA32    1               0.0000000000
     34501      1117  ECLIPA    C811          -36.4232854139       29.7524668013        4.2179945741  LPSA32    1               0.0000000000
     34502      1117  ECLIPA    H811R         -36.8834855942       30.3827058123        3.5081125689  LPSA32    1               0.0000000000
     34503      1117  ECLIPA    H811S         -36.7939890442       28.6609565349        4.1819101877  LPSA32    1               0.0000000000
     34504      1117  ECLIPA    C812          -34.9804213781       29.5247329432        3.7413673409  LPSA32    1               0.0000000000
     34505      1117  ECLIPA    H812R         -35.0466514952       29.0979467354        2.6403157337  LPSA32    1               0.0000000000
     34506      1117  ECLIPA    H812S         -34.3812047518       28.9243363361        4.4144737196  LPSA32    1               0.0000000000
     34507      1117  ECLIPA    C813          -34.1228505900       30.8021044699        3.6785234959  LPSA32    1               0.0000000000
     34508      1117  ECLIPA    H813R         -34.6170073433       31.4767150138        2.9398073555  LPSA32    1               0.0000000000
     34509      1117  ECLIPA    H813S         -34.0346112988       31.3986106667        4.6616087352  LPSA32    1               0.0000000000
     34510      1117  ECLIPA    C814          -32.7269174914       30.5707305012        3.1377409857  LPSA32    1               0.0000000000
     34511      1117  ECLIPA    H814R         -32.6475166873       29.9126398546        2.1719074593  LPSA32    1               0.0000000000
     34512      1117  ECLIPA    H814S         -32.1132815782       30.0980940422        3.9166242729  LPSA32    1               0.0000000000
     34513      1117  ECLIPA    H814T         -32.2307647135       31.5382982043        2.8964685373  LPSA32    1               0.0000000000
     34514      1117  ECLIPA    C74           -29.5300660677       28.4217912000       13.1792855021  LPSA32    1               0.0000000000
     34515      1117  ECLIPA    H74R          -28.4643027989       28.3007874696       12.9935747315  LPSA32    1               0.0000000000
     34516      1117  ECLIPA    H74S          -29.7086753917       29.5605333391       13.3086690609  LPSA32    1               0.0000000000
     34517      1117  ECLIPA    C75           -30.2922411427       28.1277696689       11.8151371119  LPSA32    1               0.0000000000
     34518      1117  ECLIPA    H75R          -30.2566111461       29.1051045595       11.2107603889  LPSA32    1               0.0000000000
     34519      1117  ECLIPA    H75S          -31.3557118938       27.8888840395       12.0082837783  LPSA32    1               0.0000000000
     34520      1117  ECLIPA    C76           -29.6901696612       27.0057927445       10.9251453624  LPSA32    1               0.0000000000
     34521      1117  ECLIPA    H76R          -29.9974626196       26.0130637179       11.3555905686  LPSA32    1               0.0000000000
     34522      1117  ECLIPA    H76S          -28.5233177787       26.9714032504       10.9731137071  LPSA32    1               0.0000000000
     34523      1117  ECLIPA    C77           -30.0549644644       27.0076166139        9.4191603634  LPSA32    1               0.0000000000
     34524      1117  ECLIPA    H77R          -29.6990330815       27.9348374508        9.0408775908  LPSA32    1               0.0000000000
     34525      1117  ECLIPA    H77S          -31.1565398514       27.1103926816        9.2852383479  LPSA32    1               0.0000000000
     34526      1117  ECLIPA    C78           -29.5655359146       25.6787822357        8.8297405752  LPSA32    1               0.0000000000
     34527      1117  ECLIPA    H78R          -28.5355618150       25.5392318656        9.1562620580  LPSA32    1               0.0000000000
     34528      1117  ECLIPA    H78S          -30.2206472012       24.9046532742        9.3169442960  LPSA32    1               0.0000000000
     34529      1117  ECLIPA    C79           -29.9131481505       25.5092340695        7.2570767761  LPSA32    1               0.0000000000
     34530      1117  ECLIPA    H79R          -30.8685777966       24.9052453622        7.1763205913  LPSA32    1               0.0000000000
     34531      1117  ECLIPA    H79S          -29.1099626737       24.9325880425        6.7882549413  LPSA32    1               0.0000000000
     34532      1117  ECLIPA    C710          -29.8664910235       26.7634323681        6.3785096220  LPSA32    1               0.0000000000
     34533      1117  ECLIPA    H710R         -30.5987864736       27.4624136899        6.8460783027  LPSA32    1               0.0000000000
     34534      1117  ECLIPA    H710S         -28.9341109767       27.1739502181        6.4843026416  LPSA32    1               0.0000000000
     34535      1117  ECLIPA    C711          -30.2724304236       26.5279343947        4.9384125046  LPSA32    1               0.0000000000
     34536      1117  ECLIPA    H711R         -29.5190155255       25.8303273956        4.5670708729  LPSA32    1               0.0000000000
     34537      1117  ECLIPA    H711S         -31.3132509330       26.1151894238        4.9306188492  LPSA32    1               0.0000000000
     34538      1117  ECLIPA    C712          -30.2642394279       27.8626510014        4.2148670498  LPSA32    1               0.0000000000
     34539      1117  ECLIPA    H712R         -29.2463249849       28.2557453983        4.3130666899  LPSA32    1               0.0000000000
     34540      1117  ECLIPA    H712S         -30.8843843922       28.5150261893        4.8522839389  LPSA32    1               0.0000000000
     34541      1117  ECLIPA    C713          -30.8362018463       27.7376033737        2.7357390519  LPSA32    1               0.0000000000
     34542      1117  ECLIPA    H713R         -31.9001463732       27.3996297322        2.8800411466  LPSA32    1               0.0000000000
     34543      1117  ECLIPA    H713S         -30.7610524634       28.7912364077        2.2750064041  LPSA32    1               0.0000000000
     34544      1117  ECLIPA    C714          -29.9333309598       26.8226514031        1.8879763961  LPSA32    1               0.0000000000
     34545      1117  ECLIPA    H714R         -28.9301039648       27.2538951963        1.7626189762  LPSA32    1               0.0000000000
     34546      1117  ECLIPA    H714S         -29.9819169986       25.7746907422        2.2081901572  LPSA32    1               0.0000000000
     34547      1117  ECLIPA    H714T         -30.4010438179       26.9053234122        0.9249202435  LPSA32    1               0.0000000000
     34548      1117  ECLIPA    C51           -33.9691878376       24.9325893730       14.2380633031  LPSA32    1               0.0000000000
     34549      1117  ECLIPA    O51           -34.0932348807       26.1713564799       14.1304636378  LPSA32    1               0.0000000000
     34550      1117  ECLIPA    C52           -33.5784503485       24.0247488976       13.0157035712  LPSA32    1               0.0000000000
     34551      1117  ECLIPA    H52R          -32.5158285601       23.8703061562       12.8950255930  LPSA32    1               0.0000000000
     34552      1117  ECLIPA    H52S          -34.0727576993       23.1018667593       13.2222025935  LPSA32    1               0.0000000000
     34553      1117  ECLIPA    C53           -34.3069175668       24.6232879730       11.7526064304  LPSA32    1               0.0000000000
     34554      1117  ECLIPA    H53R          -35.2005166131       25.1831538162       12.0082431084  LPSA32    1               0.0000000000
     34555      1117  ECLIPA    O53           -34.4718078143       23.5233873656       10.8431816314  LPSA32    1               0.0000000000
     34556      1117  ECLIPA    C61           -35.6998777898       23.1625691496       10.5090573566  LPSA32    1               0.0000000000
     34557      1117  ECLIPA    O61           -36.7084437404       23.6860291878       10.8659713306  LPSA32    1               0.0000000000
     34558      1117  ECLIPA    C62           -35.6297915386       21.9464074656        9.5765835255  LPSA32    1               0.0000000000
     34559      1117  ECLIPA    H62R          -35.4565467261       21.0546594036       10.2152837125  LPSA32    1               0.0000000000
     34560      1117  ECLIPA    H62S          -34.6560005028       22.0240835886        9.0470049452  LPSA32    1               0.0000000000
     34561      1117  ECLIPA    C63           -36.8897986323       21.8351998525        8.6803029234  LPSA32    1               0.0000000000
     34562      1117  ECLIPA    H63R          -37.0874576153       22.8426672646        8.2798705976  LPSA32    1               0.0000000000
     34563      1117  ECLIPA    H63S          -37.8226386002       21.5224603092        9.3252199642  LPSA32    1               0.0000000000
     34564      1117  ECLIPA    C64           -36.8465112819       20.9081236174        7.5279067597  LPSA32    1               0.0000000000
     34565      1117  ECLIPA    H64R          -37.8425302094       20.8302128746        6.9620099216  LPSA32    1               0.0000000000
     34566      1117  ECLIPA    H64S          -36.5574220439       19.8832517107        7.9657393466  LPSA32    1               0.0000000000
     34567      1117  ECLIPA    C65           -35.7045308261       21.3381767162        6.5414948800  LPSA32    1               0.0000000000
     34568      1117  ECLIPA    H65R          -34.8348649479       21.2643942232        7.2423230371  LPSA32    1               0.0000000000
     34569      1117  ECLIPA    H65S          -35.8959459019       22.3735191743        6.1828980290  LPSA32    1               0.0000000000
     34570      1117  ECLIPA    C66           -35.5030278138       20.4622714645        5.2222643966  LPSA32    1               0.0000000000
     34571      1117  ECLIPA    H66R          -35.2661902527       19.4489664145        5.5395647249  LPSA32    1               0.0000000000
     34572      1117  ECLIPA    H66S          -34.5835136485       20.9751453413        4.8113963288  LPSA32    1               0.0000000000
     34573      1117  ECLIPA    C67           -36.5825248558       20.4731604312        4.1696839457  LPSA32    1               0.0000000000
     34574      1117  ECLIPA    H67R          -37.5738769744       20.2666470308        4.5058181646  LPSA32    1               0.0000000000
     34575      1117  ECLIPA    H67S          -36.3234925506       19.7465174114        3.3478820057  LPSA32    1               0.0000000000
     34576      1117  ECLIPA    C68           -36.7862526223       21.8107820093        3.5077075145  LPSA32    1               0.0000000000
     34577      1117  ECLIPA    H68R          -35.9155389599       22.3018065934        3.0112508411  LPSA32    1               0.0000000000
     34578      1117  ECLIPA    H68S          -37.2033105786       22.3942190521        4.3087918325  LPSA32    1               0.0000000000
     34579      1117  ECLIPA    C69           -37.7039522685       21.6529981247        2.2963532923  LPSA32    1               0.0000000000
     34580      1117  ECLIPA    H69R          -38.4145121744       20.8042683652        2.3203210098  LPSA32    1               0.0000000000
     34581      1117  ECLIPA    H69S          -37.0593177936       21.3621387116        1.4693744207  LPSA32    1               0.0000000000
     34582      1117  ECLIPA    C610          -38.4526758258       22.8849545810        1.9396251084  LPSA32    1               0.0000000000
     34583      1117  ECLIPA    H610R         -37.7918460353       23.7872309317        2.0603347121  LPSA32    1               0.0000000000
     34584      1117  ECLIPA    H610S         -39.2889915510       23.0567470147        2.6933643884  LPSA32    1               0.0000000000
     34585      1117  ECLIPA    C611          -39.1406264608       22.8122781520        0.5312153135  LPSA32    1               0.0000000000
     34586      1117  ECLIPA    H611R         -39.8246123804       21.9422741699        0.5735373188  LPSA32    1               0.0000000000
     34587      1117  ECLIPA    H611S         -39.8753964418       23.5848260652        0.3609598123  LPSA32    1               0.0000000000
     34588      1117  ECLIPA    C612          -38.1031443203       22.8031517822       -0.5788949292  LPSA32    1               0.0000000000
     34589      1117  ECLIPA    H612R         -37.6066173894       23.8136886345       -0.6060949542  LPSA32    1               0.0000000000
     34590      1117  ECLIPA    H612S         -37.2975075231       22.1075340974       -0.3132441764  LPSA32    1               0.0000000000
     34591      1117  ECLIPA    H612T         -38.5471103867       22.5996018333       -1.5574606966  LPSA32    1               0.0000000000
     34592      1117  ECLIPA    C54           -33.2713467451       25.6069274271       11.1776054589  LPSA32    1               0.0000000000
     34593      1117  ECLIPA    H54R          -32.3490059813       25.0209558383       10.8869876633  LPSA32    1               0.0000000000
     34594      1117  ECLIPA    H54S          -32.9289444822       26.3062200408       11.9574517429  LPSA32    1               0.0000000000
     34595      1117  ECLIPA    C55           -33.6600688913       26.4814881522        9.9916770240  LPSA32    1               0.0000000000
     34596      1117  ECLIPA    H55R          -32.9653457969       27.3270402738        9.7856946516  LPSA32    1               0.0000000000
     34597      1117  ECLIPA    H55S          -34.6770042123       26.9506737412       10.2436295858  LPSA32    1               0.0000000000
     34598      1117  ECLIPA    C56           -33.5880362107       25.6309100108        8.7515486822  LPSA32    1               0.0000000000
     34599      1117  ECLIPA    H56R          -34.3058579933       24.7586507446        8.8382497819  LPSA32    1               0.0000000000
     34600      1117  ECLIPA    H56S          -32.6555347696       25.2408127742        8.4741334449  LPSA32    1               0.0000000000
     34601      1117  ECLIPA    C57           -34.2041936970       26.2481167362        7.4395707935  LPSA32    1               0.0000000000
     34602      1117  ECLIPA    H57R          -33.7742375104       27.2178935450        7.1827428724  LPSA32    1               0.0000000000
     34603      1117  ECLIPA    H57S          -35.2934260785       26.4497462393        7.5196553379  LPSA32    1               0.0000000000
     34604      1117  ECLIPA    C58           -34.0820738305       25.2280894633        6.2350750625  LPSA32    1               0.0000000000
     34605      1117  ECLIPA    H58R          -33.0630924380       24.7515892450        6.2095761879  LPSA32    1               0.0000000000
     34606      1117  ECLIPA    H58S          -34.6991256274       24.3329939610        6.5224540661  LPSA32    1               0.0000000000
     34607      1117  ECLIPA    C59           -34.3554593191       25.9130718515        4.8667186835  LPSA32    1               0.0000000000
     34608      1117  ECLIPA    H59R          -33.6682106191       26.7527697318        4.6589989540  LPSA32    1               0.0000000000
     34609      1117  ECLIPA    H59S          -35.3849700081       26.2604984747        5.0825555512  LPSA32    1               0.0000000000
     34610      1117  ECLIPA    C510          -34.1016917496       24.9716077935        3.6752379292  LPSA32    1               0.0000000000
     34611      1117  ECLIPA    H510R         -34.5232935844       23.9149469397        3.7937959224  LPSA32    1               0.0000000000
     34612      1117  ECLIPA    H510S         -32.9474446852       24.8350434994        3.4613250382  LPSA32    1               0.0000000000
     34613      1117  ECLIPA    C511          -34.6050498102       25.4598090095        2.3004848829  LPSA32    1               0.0000000000
     34614      1117  ECLIPA    H511R         -35.6881797404       25.2337827937        2.2679211996  LPSA32    1               0.0000000000
     34615      1117  ECLIPA    H511S         -34.5342003877       26.5812509194        2.1940961976  LPSA32    1               0.0000000000
     34616      1117  ECLIPA    C512          -33.9888499735       24.7872293653        1.0189424135  LPSA32    1               0.0000000000
     34617      1117  ECLIPA    H512R         -34.2638695779       25.3760019556        0.0815295424  LPSA32    1               0.0000000000
     34618      1117  ECLIPA    H512S         -32.8963415489       24.7538463264        1.1129704346  LPSA32    1               0.0000000000
     34619      1117  ECLIPA    C513          -34.5996310081       23.3607018543        0.6457389972  LPSA32    1               0.0000000000
     34620      1117  ECLIPA    H513R         -35.7229763054       23.4192087376        0.5010832175  LPSA32    1               0.0000000000
     34621      1117  ECLIPA    H513S         -34.4504590277       22.6937135240        1.4088770719  LPSA32    1               0.0000000000
     34622      1117  ECLIPA    C514          -34.0341047845       22.8642847220       -0.6567184026  LPSA32    1               0.0000000000
     34623      1117  ECLIPA    H514R         -32.9447392644       22.8564728685       -0.6273993866  LPSA32    1               0.0000000000
     34624      1117  ECLIPA    H514S         -34.3366675936       21.8157696433       -0.7024724270  LPSA32    1               0.0000000000
     34625      1117  ECLIPA    H514T         -34.4012128347       23.4999685226       -1.5427815912  LPSA32    1               0.0000000000
     34626      1117  ECLIPA    C33           -36.7550277865       20.5735853017       14.4880792826  LPSA32    1               0.0000000000
     34627      1117  ECLIPA    H33R          -36.7018329775       19.5050815543       14.8828993596  LPSA32    1               0.0000000000
     34628      1117  ECLIPA    O33           -36.1794091846       21.4155543723       15.4699768821  LPSA32    1               0.0000000000
     34629      1117  ECLIPA    HO33          -36.4950651156       21.1522503128       16.2926205744  LPSA32    1               0.0000000000
     34630      1117  ECLIPA    C34           -35.8549291065       20.6279940542       13.2255459338  LPSA32    1               0.0000000000
     34631      1117  ECLIPA    H34R          -35.8888750386       21.6253498510       12.8010908313  LPSA32    1               0.0000000000
     34632      1117  ECLIPA    H34S          -36.3069715169       19.9817316754       12.3772221142  LPSA32    1               0.0000000000
     34633      1117  ECLIPA    C35           -34.3764596247       20.2479514221       13.4256256262  LPSA32    1               0.0000000000
     34634      1117  ECLIPA    H35R          -34.3339094415       19.1954252652       13.6963698038  LPSA32    1               0.0000000000
     34635      1117  ECLIPA    H35S          -33.9749298881       20.8276523746       14.2668166019  LPSA32    1               0.0000000000
     34636      1117  ECLIPA    C36           -33.4606991930       20.3188414785       12.1865608177  LPSA32    1               0.0000000000
     34637      1117  ECLIPA    H36R          -33.9658771479       21.2014717072       11.7430812241  LPSA32    1               0.0000000000
     34638      1117  ECLIPA    H36S          -33.5146482322       19.4320801051       11.4785220412  LPSA32    1               0.0000000000
     34639      1117  ECLIPA    C37           -32.0582863753       20.7876424166       12.5255831563  LPSA32    1               0.0000000000
     34640      1117  ECLIPA    H37R          -31.4603171638       19.7791275936       12.6765215637  LPSA32    1               0.0000000000
     34641      1117  ECLIPA    H37S          -32.0058486063       21.2830986264       13.5128993321  LPSA32    1               0.0000000000
     34642      1117  ECLIPA    C38           -31.3219100351       21.6100826633       11.4317274953  LPSA32    1               0.0000000000
     34643      1117  ECLIPA    H38R          -31.6222433767       22.6708027437       11.4067421357  LPSA32    1               0.0000000000
     34644      1117  ECLIPA    H38S          -30.2569165705       21.6555634337       11.7230999881  LPSA32    1               0.0000000000
     34645      1117  ECLIPA    C39           -31.5733264576       21.0392086942       10.0213367345  LPSA32    1               0.0000000000
     34646      1117  ECLIPA    H39R          -32.6736593831       20.9652449522        9.8128797222  LPSA32    1               0.0000000000
     34647      1117  ECLIPA    H39S          -31.0163814502       20.0662046986        9.9697980947  LPSA32    1               0.0000000000
     34648      1117  ECLIPA    C310          -30.9412575552       21.8058020006        8.8401719124  LPSA32    1               0.0000000000
     34649      1117  ECLIPA    H310R         -29.8135152154       21.7116475442        9.0626900142  LPSA32    1               0.0000000000
     34650      1117  ECLIPA    H310S         -31.2348218377       22.8947359982        8.8945759064  LPSA32    1               0.0000000000
     34651      1117  ECLIPA    C311          -31.5395995938       21.4162235972        7.5676235846  LPSA32    1               0.0000000000
     34652      1117  ECLIPA    H311R         -31.7397596661       20.3147047369        7.5507520616  LPSA32    1               0.0000000000
     34653      1117  ECLIPA    H311S         -32.5121637102       21.9257613119        7.2851462164  LPSA32    1               0.0000000000
     34654      1117  ECLIPA    C312          -30.6969231199       21.7895376080        6.3280121142  LPSA32    1               0.0000000000
     34655      1117  ECLIPA    H312R         -30.1686235188       22.7634939318        6.4861373960  LPSA32    1               0.0000000000
     34656      1117  ECLIPA    H312S         -29.9364273957       20.9818454992        6.1820758986  LPSA32    1               0.0000000000
     34657      1117  ECLIPA    C313          -31.5001540790       21.8750918139        4.9895779706  LPSA32    1               0.0000000000
     34658      1117  ECLIPA    H313R         -31.7169586816       20.8728296267        4.7825120466  LPSA32    1               0.0000000000
     34659      1117  ECLIPA    H313S         -32.4685403555       22.4243580252        5.1572698764  LPSA32    1               0.0000000000
     34660      1117  ECLIPA    C314          -30.8076743582       22.4774222686        3.8116661598  LPSA32    1               0.0000000000
     34661      1117  ECLIPA    H314R         -29.8627714517       21.9042255455        3.6067793993  LPSA32    1               0.0000000000
     34662      1117  ECLIPA    H314S         -31.3858808986       22.5199805638        2.8849361441  LPSA32    1               0.0000000000
     34663      1117  ECLIPA    H314T         -30.4673221467       23.5468450346        4.0446347774  LPSA32    1               0.0000000000
     34664      1117  ECLIPA    C11           -38.5700279193       26.0980624024       11.2900808200  LPSA32    1               0.0000000000
     34665      1117  ECLIPA    O11           -37.5122429569       26.6970111488       11.1394597694  LPSA32    1               0.0000000000
     34666      1117  ECLIPA    C12           -39.7046686569       26.4572455567       10.2853014675  LPSA32    1               0.0000000000
     34667      1117  ECLIPA    H12R          -40.1142281316       27.4801751213       10.4852637814  LPSA32    1               0.0000000000
     34668      1117  ECLIPA    H12S          -40.4889195516       25.6902402012       10.5222272274  LPSA32    1               0.0000000000
     34669      1117  ECLIPA    C13           -39.3359433344       26.3587105111        8.8110583416  LPSA32    1               0.0000000000
     34670      1117  ECLIPA    H13R          -38.2998900671       26.8152978200        8.5839874118  LPSA32    1               0.0000000000
     34671      1117  ECLIPA    O13           -40.3222212730       27.1782367594        8.1311342176  LPSA32    1               0.0000000000
     34672      1117  ECLIPA    HO13          -39.9813355744       27.4718530990        7.3064966676  LPSA32    1               0.0000000000
     34673      1117  ECLIPA    C14           -39.3143589139       24.8897844400        8.4581579993  LPSA32    1               0.0000000000
     34674      1117  ECLIPA    H14R          -40.1612148103       24.3027734875        8.9706443184  LPSA32    1               0.0000000000
     34675      1117  ECLIPA    H14S          -38.3085335715       24.5031753876        8.7243868424  LPSA32    1               0.0000000000
     34676      1117  ECLIPA    C15           -39.4722414000       24.6048721586        6.9526486677  LPSA32    1               0.0000000000
     34677      1117  ECLIPA    H15R          -40.3329877173       25.1123562513        6.5500123177  LPSA32    1               0.0000000000
     34678      1117  ECLIPA    H15S          -39.5615578242       23.5198756046        6.8782608049  LPSA32    1               0.0000000000
     34679      1117  ECLIPA    C16           -38.2428738652       25.1188500634        6.1622847334  LPSA32    1               0.0000000000
     34680      1117  ECLIPA    H16R          -37.3470280296       24.4050916855        6.2733383262  LPSA32    1               0.0000000000
     34681      1117  ECLIPA    H16S          -37.8309337860       25.9785144981        6.7182496574  LPSA32    1               0.0000000000
     34682      1117  ECLIPA    C17           -38.5320931652       25.3454142002        4.6801229578  LPSA32    1               0.0000000000
     34683      1117  ECLIPA    H17R          -39.1170539717       24.4093668856        4.4246758429  LPSA32    1               0.0000000000
     34684      1117  ECLIPA    H17S          -37.6704678062       25.3631262240        4.0046542873  LPSA32    1               0.0000000000
     34685      1117  ECLIPA    C18           -39.3458003195       26.5897517461        4.4504458171  LPSA32    1               0.0000000000
     34686      1117  ECLIPA    H18R          -40.1752872970       26.4302024706        5.0865821920  LPSA32    1               0.0000000000
     34687      1117  ECLIPA    H18S          -38.7249129714       27.4732269298        4.7749867078  LPSA32    1               0.0000000000
     34688      1117  ECLIPA    C19           -39.7627139832       26.7500256993        3.0097966450  LPSA32    1               0.0000000000
     34689      1117  ECLIPA    H19R          -40.4439014574       27.5849393908        2.9245509529  LPSA32    1               0.0000000000
     34690      1117  ECLIPA    H19S          -40.2612978443       25.8004734722        2.6238151240  LPSA32    1               0.0000000000
     34691      1117  ECLIPA    C110          -38.5571135182       27.1031306806        2.1045801788  LPSA32    1               0.0000000000
     34692      1117  ECLIPA    H110R         -37.9414411811       27.9386729166        2.4416701971  LPSA32    1               0.0000000000
     34693      1117  ECLIPA    H110S         -37.9972019928       26.1435940571        2.1583327743  LPSA32    1               0.0000000000
     34694      1117  ECLIPA    C111          -39.0473526838       27.3244780142        0.7563571155  LPSA32    1               0.0000000000
     34695      1117  ECLIPA    H111R         -39.8209817342       26.5882972597        0.3999767799  LPSA32    1               0.0000000000
     34696      1117  ECLIPA    H111S         -39.5735561756       28.2425633721        0.7977177860  LPSA32    1               0.0000000000
     34697      1117  ECLIPA    C112          -37.9355412034       27.4750013964       -0.2937360943  LPSA32    1               0.0000000000
     34698      1117  ECLIPA    H112R         -37.3560900635       28.2999895800        0.1973446929  LPSA32    1               0.0000000000
     34699      1117  ECLIPA    H112S         -37.2081612442       26.6628338102       -0.2177998937  LPSA32    1               0.0000000000
     34700      1117  ECLIPA    C113          -38.4371148580       27.4934993408       -1.7468031795  LPSA32    1               0.0000000000
     34701      1117  ECLIPA    H113R         -38.8554966016       26.4871886436       -1.9802017524  LPSA32    1               0.0000000000
     34702      1117  ECLIPA    H113S         -39.2987561598       28.1602278738       -1.8531093719  LPSA32    1               0.0000000000
     34703      1117  ECLIPA    C114          -37.5145778921       27.9828991845       -2.8344928043  LPSA32    1               0.0000000000
     34704      1117  ECLIPA    H114R         -36.9953116349       28.9359668519       -2.7829422503  LPSA32    1               0.0000000000
     34705      1117  ECLIPA    H114S         -36.6936830182       27.2292414207       -2.9951089580  LPSA32    1               0.0000000000
     34706      1117  ECLIPA    H114T         -38.1115750871       28.2071177675       -3.7399523103  LPSA32    1               0.0000000000
     34707      1118  AKDO      C1            -32.7734064400       24.2012499817       22.4410509549  LPSA32    2               0.0000000000
     34708      1118  AKDO      O11           -31.5111359427       24.3997685362       22.4913720772  LPSA32    2               0.0000000000
     34709      1118  AKDO      O12           -33.4253094777       23.1813807592       22.0800765534  LPSA32    2               0.0000000000
     34710      1118  AKDO      C2            -33.6314005227       25.3877877200       22.8913181237  LPSA32    2               0.0000000000
     34711      1118  AKDO      C6            -33.4681140514       27.5657603935       23.8039205188  LPSA32    2               0.0000000000
     34712      1118  AKDO      H6            -33.9407960759       27.9729968798       22.9487387861  LPSA32    2               0.0000000000
     34713      1118  AKDO      O6            -32.7546586850       26.3201516081       23.4267274814  LPSA32    2               0.0000000000
     34714      1118  AKDO      C3            -34.5944361465       25.0404246576       23.9587385105  LPSA32    2               0.0000000000
     34715      1118  AKDO      H31           -34.1813353842       24.5475421520       24.7868435866  LPSA32    2               0.0000000000
     34716      1118  AKDO      H32           -35.4182010718       24.3693845299       23.4151264596  LPSA32    2               0.0000000000
     34717      1118  AKDO      C4            -35.3692908626       26.2845045464       24.3842593775  LPSA32    2               0.0000000000
     34718      1118  AKDO      H4            -35.8363482948       26.7887658242       23.5563617270  LPSA32    2               0.0000000000
     34719      1118  AKDO      O4            -36.3594625042       25.9203758457       25.3355834555  LPSA32    2               0.0000000000
     34720      1118  AKDO      C5            -34.5106458938       27.3350591844       24.9292437177  LPSA32    2               0.0000000000
     34721      1118  AKDO      H5            -35.0731743476       28.3023345228       25.0107888161  LPSA32    2               0.0000000000
     34722      1118  AKDO      O5            -33.9311442545       26.8356563278       26.2083878813  LPSA32    2               0.0000000000
     34723      1118  AKDO      C7            -32.4650348680       28.7449475240       24.1981149098  LPSA32    2               0.0000000000
     34724      1118  AKDO      H7            -31.9270914211       28.4412063029       25.0939202098  LPSA32    2               0.0000000000
     34725      1118  AKDO      O7            -33.1555670543       30.0134303631       24.3482682347  LPSA32    2               0.0000000000
     34726      1118  AKDO      HO7           -33.3265786923       30.3070493013       23.4945166536  LPSA32    2               0.0000000000
     34727      1118  AKDO      C8            -31.4826007114       28.8931761518       22.9864433882  LPSA32    2               0.0000000000
     34728      1118  AKDO      H81           -30.9828143913       27.8974977063       22.9153150275  LPSA32    2               0.0000000000
     34729      1118  AKDO      H82           -32.1292104928       29.1736337326       22.0745354517  LPSA32    2               0.0000000000
     34730      1118  AKDO      O8            -30.4752178785       29.9258487636       23.3537996748  LPSA32    2               0.0000000000
     34731      1118  AKDO      HO8           -29.6175578508       29.6824488126       22.9179804014  LPSA32    2               0.0000000000
     34732      1119  AKDO      C1            -38.1478889892       26.1939669898       23.8027969005  LPSA32    3               1.0000000000
     34733      1119  AKDO      O11           -38.0511794152       25.6814284035       22.6471489042  LPSA32    3               1.0000000000
     34734      1119  AKDO      O12           -38.6592265135       27.3084938375       24.0656860145  LPSA32    3               1.0000000000
     34735      1119  AKDO      C2            -37.6436907551       25.4264020845       25.0166033796  LPSA32    3               1.0000000000
     34736      1119  AKDO      C6            -36.9767255439       23.2426713888       25.7688829792  LPSA32    3               1.0000000000
     34737      1119  AKDO      H6            -35.9175960994       23.6024011234       25.9810553331  LPSA32    3               1.0000000000
     34738      1119  AKDO      O6            -37.5352347168       23.9929066684       24.7076657818  LPSA32    3               1.0000000000
     34739      1119  AKDO      C3            -38.4725568427       25.5890326139       26.3187707743  LPSA32    3               1.0000000000
     34740      1119  AKDO      H31           -39.5544332388       25.1850325421       26.1504935106  LPSA32    3               1.0000000000
     34741      1119  AKDO      H32           -38.5686114335       26.6486859043       26.5929217108  LPSA32    3               1.0000000000
     34742      1119  AKDO      C4            -37.8037645951       24.7840528696       27.4036122013  LPSA32    3               1.0000000000
     34743      1119  AKDO      H4            -36.7452503953       25.0616593973       27.4051754129  LPSA32    3               1.0000000000
     34744      1119  AKDO      O4            -38.2966267386       24.9685215266       28.7388570077  LPSA32    3               1.0000000000
     34745      1119  AKDO      HO4           -37.6505958604       25.2574658951       29.3717785514  LPSA32    3               1.0000000000
     34746      1119  AKDO      C5            -37.7718816913       23.4187791950       27.0369167275  LPSA32    3               1.0000000000
     34747      1119  AKDO      H5            -37.3467474923       22.8133895735       27.9236884022  LPSA32    3               1.0000000000
     34748      1119  AKDO      O5            -39.1066758250       22.9119959609       26.8495261943  LPSA32    3               1.0000000000
     34749      1119  AKDO      HO5           -39.5454888358       23.4066291523       26.1887877298  LPSA32    3               1.0000000000
     34750      1119  AKDO      C7            -36.9315587624       21.8017577286       25.3258859863  LPSA32    3               1.0000000000
     34751      1119  AKDO      H7            -37.9673484959       21.3960204736       25.1324849511  LPSA32    3               1.0000000000
     34752      1119  AKDO      O7            -36.2808765557       21.0213738627       26.3661029982  LPSA32    3               1.0000000000
     34753      1119  AKDO      HO7           -36.4010086374       20.0692589342       26.1647669547  LPSA32    3               1.0000000000
     34754      1119  AKDO      C8            -36.0434745026       21.7340763343       24.1539635864  LPSA32    3               1.0000000000
     34755      1119  AKDO      H81           -36.4322511109       22.3625516723       23.3419478721  LPSA32    3               1.0000000000
     34756      1119  AKDO      H82           -34.9894344124       22.0215971937       24.2853144505  LPSA32    3               1.0000000000
     34757      1119  AKDO      O8            -36.0098378492       20.4161736952       23.6541307456  LPSA32    3               1.0000000000
     34758      1119  AKDO      HO8           -36.8963348773       20.4384339279       23.2473452835  LPSA32    3               1.0000000000
     34759      1120  AHEP      C1            -33.7273831862       27.7430033460       27.2793229502  LPSA32    4               2.0000000000
     34760      1120  AHEP      H1            -32.7547027064       28.1531922547       26.8517192453  LPSA32    4               2.0000000000
     34761      1120  AHEP      C5            -35.8835198287       28.5657149122       28.0185271385  LPSA32    4               2.0000000000
     34762      1120  AHEP      H5            -36.2500331641       27.5658124988       27.5619054335  LPSA32    4               2.0000000000
     34763      1120  AHEP      O5            -34.6329594225       28.8432244021       27.3942805697  LPSA32    4               2.0000000000
     34764      1120  AHEP      C2            -33.3936163628       27.3056391839       28.6827861277  LPSA32    4               2.0000000000
     34765      1120  AHEP      H2            -32.7360969984       26.4314062120       28.7442425996  LPSA32    4               2.0000000000
     34766      1120  AHEP      O2            -32.7382956521       28.3288838915       29.3407203943  LPSA32    4               2.0000000000
     34767      1120  AHEP      HO2           -32.0354903934       27.9729397983       29.8507927467  LPSA32    4               2.0000000000
     34768      1120  AHEP      C3            -34.6670252554       26.9715704046       29.4857672188  LPSA32    4               2.0000000000
     34769      1120  AHEP      H3            -35.1668424606       26.0280048954       29.2269906369  LPSA32    4               2.0000000000
     34770      1120  AHEP      O3            -34.3485216364       26.7572047061       30.7882097304  LPSA32    4               2.0000000000
     34771      1120  AHEP      C4            -35.5987248938       28.1558320592       29.4546205599  LPSA32    4               2.0000000000
     34772      1120  AHEP      H4            -35.2333135212       29.0740960273       29.9788637739  LPSA32    4               2.0000000000
     34773      1120  AHEP      O4            -36.8237765837       27.7845761348       30.0145912217  LPSA32    4               2.0000000000
     34774      1120  AHEP      P4            -37.3346944775       28.3332197380       31.4978499249  LPSA32    4               2.0000000000
     34775      1120  AHEP      OP42          -38.1253809627       27.2727822761       32.1560374192  LPSA32    4               2.0000000000
     34776      1120  AHEP      OP43          -38.1749409793       29.4887874617       31.0397938518  LPSA32    4               2.0000000000
     34777      1120  AHEP      OP44          -36.1100491188       28.8593759186       32.3098937101  LPSA32    4               2.0000000000
     34778      1120  AHEP      C6            -36.9138939825       29.7310508217       27.7982482844  LPSA32    4               2.0000000000
     34779      1120  AHEP      H6            -37.9226258265       29.3026583467       28.0833143566  LPSA32    4               2.0000000000
     34780      1120  AHEP      O6            -36.5742501230       30.7787337955       28.7103505027  LPSA32    4               2.0000000000
     34781      1120  AHEP      HO6           -37.3655367928       31.0995119673       29.2203787365  LPSA32    4               2.0000000000
     34782      1120  AHEP      C7            -37.0001269021       30.2297699790       26.3054198206  LPSA32    4               2.0000000000
     34783      1120  AHEP      H71           -37.8713342758       30.9509911081       26.1576126064  LPSA32    4               2.0000000000
     34784      1120  AHEP      H72           -36.9993637898       29.3490386346       25.6323487339  LPSA32    4               2.0000000000
     34785      1120  AHEP      O7            -35.8494113481       31.0021095427       25.9755159574  LPSA32    4               2.0000000000
     34786      1120  AHEP      HO7           -35.9860242025       31.8967471762       26.3256794122  LPSA32    4               2.0000000000
     34787      1121  AHEP      C1            -34.6246798819       25.4936183681       31.4342177374  LPSA32    5               3.0000000000
     34788      1121  AHEP      H1            -35.5166736087       24.9881390217       30.9794447437  LPSA32    5               3.0000000000
     34789      1121  AHEP      C5            -32.3285505460       25.0796819192       31.9165413065  LPSA32    5               3.0000000000
     34790      1121  AHEP      H5            -32.1785369661       26.1682554612       31.6031509785  LPSA32    5               3.0000000000
     34791      1121  AHEP      O5            -33.5106780642       24.5918408379       31.3013865768  LPSA32    5               3.0000000000
     34792      1121  AHEP      C2            -34.8987625035       25.6031830402       32.9718957084  LPSA32    5               3.0000000000
     34793      1121  AHEP      H2            -35.7333310348       26.3666394480       33.0921707216  LPSA32    5               3.0000000000
     34794      1121  AHEP      O2            -35.3483253402       24.3566349844       33.4691025827  LPSA32    5               3.0000000000
     34795      1121  AHEP      HO2           -36.2841623013       24.3896161942       33.6403503244  LPSA32    5               3.0000000000
     34796      1121  AHEP      C3            -33.6593681503       26.1628617332       33.7004304811  LPSA32    5               3.0000000000
     34797      1121  AHEP      H3            -33.4173029087       27.1678842476       33.3375632548  LPSA32    5               3.0000000000
     34798      1121  AHEP      O3            -33.7698192865       26.2905630240       35.1462238331  LPSA32    5               3.0000000000
     34799      1121  AHEP      C4            -32.5473446231       25.2024845556       33.4524658705  LPSA32    5               3.0000000000
     34800      1121  AHEP      H4            -32.7848169723       24.1740435384       33.8188816395  LPSA32    5               3.0000000000
     34801      1121  AHEP      O4            -31.3422841535       25.7331560442       34.0881196202  LPSA32    5               3.0000000000
     34802      1121  AHEP      P4            -30.6376758995       24.9441005349       35.2810123301  LPSA32    5               3.0000000000
     34803      1121  AHEP      OP42          -29.5795863170       25.8774879898       35.8202965042  LPSA32    5               3.0000000000
     34804      1121  AHEP      OP43          -30.0191618435       23.6888220182       34.6107506294  LPSA32    5               3.0000000000
     34805      1121  AHEP      OP44          -31.7268066403       24.5461865207       36.2417033353  LPSA32    5               3.0000000000
     34806      1121  AHEP      C6            -31.0723720360       24.2747700207       31.5493607386  LPSA32    5               3.0000000000
     34807      1121  AHEP      H6            -30.1561183482       24.7368811824       31.9533288164  LPSA32    5               3.0000000000
     34808      1121  AHEP      O6            -31.1800837614       22.9438460286       32.0428602265  LPSA32    5               3.0000000000
     34809      1121  AHEP      HO6           -31.7807208704       22.3349130504       31.5367188277  LPSA32    5               3.0000000000
     34810      1121  AHEP      C7            -30.8202428838       24.3685404449       30.0822725317  LPSA32    5               3.0000000000
     34811      1121  AHEP      H71           -29.7207684749       24.3441114626       29.9169108581  LPSA32    5               3.0000000000
     34812      1121  AHEP      H72           -31.1952120741       25.2999230016       29.6179339851  LPSA32    5               3.0000000000
     34813      1121  AHEP      O7            -31.3334655825       23.1537996910       29.4957736452  LPSA32    5               3.0000000000
     34814      1122  AHEP      C1            -32.5272230507       23.3242677071       28.7926622005  LPSA32    6               4.0000000000
     34815      1122  AHEP      H1            -32.9947999864       24.3393029706       29.0422981953  LPSA32    6               4.0000000000
     34816      1122  AHEP      C5            -31.7537671776       22.0569977775       26.9237617191  LPSA32    6               4.0000000000
     34817      1122  AHEP      H5            -30.8248464125       21.8747715807       27.4818042043  LPSA32    6               4.0000000000
     34818      1122  AHEP      O5            -32.3460588243       23.2924981985       27.3547530115  LPSA32    6               4.0000000000
     34819      1122  AHEP      C2            -33.5063038451       22.2743973956       29.2397872647  LPSA32    6               4.0000000000
     34820      1122  AHEP      H2            -33.6593204556       22.4173825913       30.3523091474  LPSA32    6               4.0000000000
     34821      1122  AHEP      O2            -34.7960804651       22.4872012421       28.7267108980  LPSA32    6               4.0000000000
     34822      1122  AHEP      HO2           -35.2957109516       22.7715125995       29.4669064354  LPSA32    6               4.0000000000
     34823      1122  AHEP      C3            -32.9299907473       20.8909766604       28.8468391403  LPSA32    6               4.0000000000
     34824      1122  AHEP      H3            -32.0118450919       20.7525830287       29.4311808254  LPSA32    6               4.0000000000
     34825      1122  AHEP      O3            -33.8257212709       19.7342710065       29.2225362108  LPSA32    6               4.0000000000
     34826      1122  AHEP      HO3           -33.6121120572       19.2706754222       29.9865592523  LPSA32    6               4.0000000000
     34827      1122  AHEP      C4            -32.7166955915       20.9211867061       27.2761740859  LPSA32    6               4.0000000000
     34828      1122  AHEP      H4            -33.6843204148       20.9268891305       26.7944950683  LPSA32    6               4.0000000000
     34829      1122  AHEP      O4            -32.1540675451       19.6916516587       26.7938835778  LPSA32    6               4.0000000000
     34830      1122  AHEP      HO4           -31.1886435583       19.7386325630       27.1589530594  LPSA32    6               4.0000000000
     34831      1122  AHEP      C6            -31.3124374624       22.0785905432       25.4906533340  LPSA32    6               4.0000000000
     34832      1122  AHEP      H6            -30.7993004957       21.1344631450       25.3442628137  LPSA32    6               4.0000000000
     34833      1122  AHEP      O6            -32.4552497643       21.9889285479       24.6375675438  LPSA32    6               4.0000000000
     34834      1122  AHEP      HO6           -32.4689948033       22.7067552495       23.9977784313  LPSA32    6               4.0000000000
     34835      1122  AHEP      C7            -30.3268691088       23.1671305828       25.1799756221  LPSA32    6               4.0000000000
     34836      1122  AHEP      H71           -29.9415300062       22.9823904451       24.1408078076  LPSA32    6               4.0000000000
     34837      1122  AHEP      H72           -29.5179093727       23.0650545436       25.9252229174  LPSA32    6               4.0000000000
     34838      1122  AHEP      O7            -30.8591401475       24.4567774154       25.2517430265  LPSA32    6               4.0000000000
     34839      1122  AHEP      HO7           -30.7985014306       24.6881410497       26.2011285002  LPSA32    6               4.0000000000
     34840      1123  AGLC      C1            -34.3137456226       27.5010984729       35.6520976122  LPSA32    7               4.0000000000
     34841      1123  AGLC      H1            -33.7359241438       28.3816489049       35.2047739589  LPSA32    7               4.0000000000
     34842      1123  AGLC      C5            -36.4845716518       26.6934731693       36.0987679218  LPSA32    7               4.0000000000
     34843      1123  AGLC      H5            -36.1916171478       25.6676531723       35.8327124756  LPSA32    7               4.0000000000
     34844      1123  AGLC      O5            -35.6902936919       27.6209657193       35.4366254460  LPSA32    7               4.0000000000
     34845      1123  AGLC      C2            -34.1279829325       27.6068981461       37.1582745954  LPSA32    7               4.0000000000
     34846      1123  AGLC      H2            -34.6552507264       28.5727539665       37.4887389927  LPSA32    7               4.0000000000
     34847      1123  AGLC      O2            -32.7580260370       27.8912237778       37.5024056006  LPSA32    7               4.0000000000
     34848      1123  AGLC      HO2           -32.3530286237       27.0383803729       37.6430208865  LPSA32    7               4.0000000000
     34849      1123  AGLC      C3            -34.8608268773       26.6737040731       37.9903802326  LPSA32    7               4.0000000000
     34850      1123  AGLC      H3            -34.4954538385       25.6963062370       37.6727250444  LPSA32    7               4.0000000000
     34851      1123  AGLC      O3            -34.5838642187       26.6907974451       39.4204481292  LPSA32    7               4.0000000000
     34852      1123  AGLC      C4            -36.2907261204       26.8973991199       37.5928595998  LPSA32    7               4.0000000000
     34853      1123  AGLC      H4            -36.6494391052       27.9299012625       37.9560286200  LPSA32    7               4.0000000000
     34854      1123  AGLC      O4            -37.0235878388       25.8255058098       38.2243117391  LPSA32    7               4.0000000000
     34855      1123  AGLC      HO4           -37.8272928083       26.0968711532       38.6132003238  LPSA32    7               4.0000000000
     34856      1123  AGLC      C6            -37.9230152850       26.7302373924       35.5245160098  LPSA32    7               4.0000000000
     34857      1123  AGLC      H61           -37.8223419167       26.6311151528       34.4135318240  LPSA32    7               4.0000000000
     34858      1123  AGLC      H62           -38.6428491273       25.9586972703       35.8722646349  LPSA32    7               4.0000000000
     34859      1123  AGLC      O6            -38.4288784450       28.0899451289       35.6892983147  LPSA32    7               4.0000000000
     34860      1123  AGLC      HO6           -38.9466943549       27.9629565777       36.4386090630  LPSA32    7               4.0000000000
     34861      1124  AGLC      C1            -33.9727476948       25.5603598328       39.9328324507  LPSA32    8               5.0000000000
     34862      1124  AGLC      H1            -34.5025989433       24.6551233696       39.5884769495  LPSA32    8               5.0000000000
     34863      1124  AGLC      C5            -31.6667892911       26.4359884759       40.2153373402  LPSA32    8               5.0000000000
     34864      1124  AGLC      H5            -32.0177524339       27.4049088099       39.8400606936  LPSA32    8               5.0000000000
     34865      1124  AGLC      O5            -32.5429557886       25.4403724882       39.6195505863  LPSA32    8               5.0000000000
     34866      1124  AGLC      C2            -34.0751569372       25.5275847898       41.4170311384  LPSA32    8               5.0000000000
     34867      1124  AGLC      H2            -33.7068407955       24.5036250077       41.6529594578  LPSA32    8               5.0000000000
     34868      1124  AGLC      O2            -35.3961111753       25.4782560450       41.9438754185  LPSA32    8               5.0000000000
     34869      1124  AGLC      C3            -33.2557907166       26.5420518887       42.1297388169  LPSA32    8               5.0000000000
     34870      1124  AGLC      H3            -33.6947467072       27.4734918586       41.6567950186  LPSA32    8               5.0000000000
     34871      1124  AGLC      O3            -33.5182016083       26.4900793150       43.5370978028  LPSA32    8               5.0000000000
     34872      1124  AGLC      C4            -31.8658980941       26.3144286475       41.7603093222  LPSA32    8               5.0000000000
     34873      1124  AGLC      H4            -31.5525544378       25.3256897471       42.0401368658  LPSA32    8               5.0000000000
     34874      1124  AGLC      O4            -31.0172532084       27.2441941860       42.3914819843  LPSA32    8               5.0000000000
     34875      1124  AGLC      HO4           -31.4347775263       28.0704709492       42.3800652601  LPSA32    8               5.0000000000
     34876      1124  AGLC      C6            -30.1960619757       26.4296839975       39.7357334439  LPSA32    8               5.0000000000
     34877      1124  AGLC      H61           -30.0790416999       26.3302239292       38.6468043611  LPSA32    8               5.0000000000
     34878      1124  AGLC      H62           -29.6213922310       27.2889008167       40.0276014644  LPSA32    8               5.0000000000
     34879      1124  AGLC      O6            -29.4153791715       25.4198730560       40.3040784562  LPSA32    8               5.0000000000
     34880      1124  AGLC      HO6           -29.1271084250       25.6378108412       41.2121845210  LPSA32    8               5.0000000000
     34881      1125  AGAL      C1            -36.2958464361       24.5287992505       41.4573847493  LPSA32    9               6.0000000000
     34882      1125  AGAL      H1            -36.2581220981       24.4989894493       40.3420235153  LPSA32    9               6.0000000000
     34883      1125  AGAL      C5            -36.2878719093       22.9937722348       43.2125447641  LPSA32    9               6.0000000000
     34884      1125  AGAL      H5            -35.7071490372       23.8462970440       43.7424973645  LPSA32    9               6.0000000000
     34885      1125  AGAL      O5            -36.1008939343       23.1336638308       41.8451689838  LPSA32    9               6.0000000000
     34886      1125  AGAL      C2            -37.6867064702       24.9610225447       41.8393925249  LPSA32    9               6.0000000000
     34887      1125  AGAL      H2            -38.4013599262       24.2725845420       41.4115621152  LPSA32    9               6.0000000000
     34888      1125  AGAL      O2            -38.0836884334       26.1675349960       41.1608705954  LPSA32    9               6.0000000000
     34889      1125  AGAL      C3            -37.9297789577       24.8223979960       43.3264191845  LPSA32    9               6.0000000000
     34890      1125  AGAL      H3            -37.2463248508       25.5537554538       43.9424563891  LPSA32    9               6.0000000000
     34891      1125  AGAL      O3            -39.1713566847       25.3001352124       43.7491515633  LPSA32    9               6.0000000000
     34892      1125  AGAL      HO3           -39.3850993732       26.0373406115       43.1585960960  LPSA32    9               6.0000000000
     34893      1125  AGAL      C4            -37.7027480392       23.4004166141       43.6505755014  LPSA32    9               6.0000000000
     34894      1125  AGAL      H4            -37.7510209649       23.1880993357       44.7734818408  LPSA32    9               6.0000000000
     34895      1125  AGAL      O4            -38.5897986657       22.5080886956       43.0499075873  LPSA32    9               6.0000000000
     34896      1125  AGAL      HO4           -38.6843051437       21.7620608250       43.6622427513  LPSA32    9               6.0000000000
     34897      1125  AGAL      C6            -35.6641955038       21.7437200572       43.8349081587  LPSA32    9               6.0000000000
     34898      1125  AGAL      H61           -34.5646240350       21.6480141815       43.6417203355  LPSA32    9               6.0000000000
     34899      1125  AGAL      H62           -35.7242448802       21.6970800347       44.9292747136  LPSA32    9               6.0000000000
     34900      1125  AGAL      O6            -36.3105846657       20.5833051591       43.4062227539  LPSA32    9               6.0000000000
     34901      1125  AGAL      HO6           -35.7659290649       20.2033675435       42.6923548993  LPSA32    9               6.0000000000
     34902      1126  AGAL      C1            -38.6738400997       27.3491988145       41.7517281777  LPSA32    10              7.0000000000
     34903      1126  AGAL      H1            -39.7340160776       27.0771270580       41.8429972083  LPSA32    10              7.0000000000
     34904      1126  AGAL      C5            -36.8987049467       28.3105625291       43.0613392294  LPSA32    10              7.0000000000
     34905      1126  AGAL      H5            -36.2416720991       27.4358434388       42.6233508762  LPSA32    10              7.0000000000
     34906      1126  AGAL      O5            -38.2713522107       27.8739543796       43.0470213554  LPSA32    10              7.0000000000
     34907      1126  AGAL      C2            -38.4934086912       28.4803415081       40.7227968417  LPSA32    10              7.0000000000
     34908      1126  AGAL      H2            -39.2485959126       29.2981488292       41.0433947026  LPSA32    10              7.0000000000
     34909      1126  AGAL      O2            -39.1525184911       28.2555614534       39.5532095562  LPSA32    10              7.0000000000
     34910      1126  AGAL      HO2           -39.7266716271       28.9804687435       39.3379401176  LPSA32    10              7.0000000000
     34911      1126  AGAL      C3            -37.0966535765       28.9894516351       40.6928251787  LPSA32    10              7.0000000000
     34912      1126  AGAL      H3            -36.5117037214       28.0999573808       40.4679648945  LPSA32    10              7.0000000000
     34913      1126  AGAL      O3            -36.8518117369       30.0109349612       39.7732034444  LPSA32    10              7.0000000000
     34914      1126  AGAL      HO3           -36.3517284466       29.6192197113       39.0151094934  LPSA32    10              7.0000000000
     34915      1126  AGAL      C4            -36.7255564094       29.4745794062       42.0524071915  LPSA32    10              7.0000000000
     34916      1126  AGAL      H4            -35.6587411856       29.7649937113       42.1099272557  LPSA32    10              7.0000000000
     34917      1126  AGAL      O4            -37.4718820532       30.5700354660       42.4965010455  LPSA32    10              7.0000000000
     34918      1126  AGAL      HO4           -38.3464074426       30.2318269682       42.5675127347  LPSA32    10              7.0000000000
     34919      1126  AGAL      C6            -36.2937278337       28.6078656853       44.3959537205  LPSA32    10              7.0000000000
     34920      1126  AGAL      H61           -36.4407042906       27.7983976259       45.1044438806  LPSA32    10              7.0000000000
     34921      1126  AGAL      H62           -35.1076741974       28.6498228779       44.2564473849  LPSA32    10              7.0000000000
     34922      1126  AGAL      O6            -36.6559498418       29.8080037055       45.1112340130  LPSA32    10              7.0000000000
     34923      1126  AGAL      HO6           -37.1230924020       29.5411506064       45.9237589285  LPSA32    10              7.0000000000
     34924      1127  BGLC      C1            -32.7718506164       25.7705408724       44.5018065681  LPSA32    11              6.0000000000
     34925      1127  BGLC      H1            -31.8761968489       26.3677104976       44.5883763758  LPSA32    11              6.0000000000
     34926      1127  BGLC      C5            -31.7912557348       23.5504940772       45.1248117688  LPSA32    11              6.0000000000
     34927      1127  BGLC      H5            -30.7640306959       23.9856752569       45.3871201921  LPSA32    11              6.0000000000
     34928      1127  BGLC      O5            -32.5524725016       24.3646925012       44.0830650888  LPSA32    11              6.0000000000
     34929      1127  BGLC      C2            -33.5414348654       25.7409616767       45.7977571702  LPSA32    11              6.0000000000
     34930      1127  BGLC      H2            -34.5721788924       25.3102042381       45.7293388291  LPSA32    11              6.0000000000
     34931      1127  BGLC      O2            -33.7983164341       27.1070770058       46.0886391483  LPSA32    11              6.0000000000
     34932      1127  BGLC      HO2           -34.7108914706       27.2099947815       46.2788110113  LPSA32    11              6.0000000000
     34933      1127  BGLC      C3            -32.8863694394       24.9787787752       46.8736276645  LPSA32    11              6.0000000000
     34934      1127  BGLC      H3            -31.9212946011       25.5560904790       47.1984917368  LPSA32    11              6.0000000000
     34935      1127  BGLC      O3            -33.7482365108       25.0023510045       48.0056213318  LPSA32    11              6.0000000000
     34936      1127  BGLC      C4            -32.6268667428       23.6219731527       46.4390836423  LPSA32    11              6.0000000000
     34937      1127  BGLC      H4            -33.6479693938       23.1695382335       46.2001611147  LPSA32    11              6.0000000000
     34938      1127  BGLC      O4            -32.0796686936       22.8252024062       47.4766894645  LPSA32    11              6.0000000000
     34939      1127  BGLC      HO4           -32.7746019677       22.6596279288       48.1247908570  LPSA32    11              6.0000000000
     34940      1127  BGLC      C6            -31.4399340946       22.1762193698       44.5291127165  LPSA32    11              6.0000000000
     34941      1127  BGLC      H61           -31.1958770772       21.4060208176       45.2481190913  LPSA32    11              6.0000000000
     34942      1127  BGLC      H62           -32.3068620871       21.8712394335       43.8913252379  LPSA32    11              6.0000000000
     34943      1127  BGLC      O6            -30.3532512466       22.1922535200       43.5637942269  LPSA32    11              6.0000000000
     34944      1127  BGLC      HO6           -29.6804263132       21.7299604223       44.0054369298  LPSA32    11              6.0000000000
     34945      1128  BGLCNA    C1            -33.3003916853       25.3931773085       49.3238540420  LPSA32    12              7.0000000000
     34946      1128  BGLCNA    H1            -33.3913877685       26.5297972899       49.3874222992  LPSA32    12              7.0000000000
     34947      1128  BGLCNA    C5            -31.4772544149       25.5051255220       50.8763077070  LPSA32    12              7.0000000000
     34948      1128  BGLCNA    H5            -31.5674958682       26.6781408891       50.9814236466  LPSA32    12              7.0000000000
     34949      1128  BGLCNA    O5            -31.9302127516       25.0167842082       49.5875345322  LPSA32    12              7.0000000000
     34950      1128  BGLCNA    C2            -34.1830170539       24.7242943646       50.3245054808  LPSA32    12              7.0000000000
     34951      1128  BGLCNA    H2            -33.8707946453       23.5948422992       50.3375086743  LPSA32    12              7.0000000000
     34952      1128  BGLCNA    N             -35.6015810519       25.0106506904       50.0347611965  LPSA32    12              7.0000000000
     34953      1128  BGLCNA    HN            -35.7109022086       25.9482928452       49.9972643287  LPSA32    12              7.0000000000
     34954      1128  BGLCNA    C             -36.4629597742       24.0499308647       49.8903426450  LPSA32    12              7.0000000000
     34955      1128  BGLCNA    O             -36.1222979673       22.8917404919       50.0855928044  LPSA32    12              7.0000000000
     34956      1128  BGLCNA    CT            -37.8714066846       24.4469183817       49.5677689528  LPSA32    12              7.0000000000
     34957      1128  BGLCNA    HT1           -38.5700405221       24.2153631510       50.3918503408  LPSA32    12              7.0000000000
     34958      1128  BGLCNA    HT2           -38.2936689930       23.7552915302       48.7104760971  LPSA32    12              7.0000000000
     34959      1128  BGLCNA    HT3           -37.8329771122       25.5126399239       49.2316245990  LPSA32    12              7.0000000000
     34960      1128  BGLCNA    C3            -33.8403656456       25.1551924057       51.6995695120  LPSA32    12              7.0000000000
     34961      1128  BGLCNA    H3            -34.0588862269       26.3096109606       51.8605307917  LPSA32    12              7.0000000000
     34962      1128  BGLCNA    O3            -34.6934842880       24.5809078504       52.7272334264  LPSA32    12              7.0000000000
     34963      1128  BGLCNA    C4            -32.4045748467       24.8270362780       51.9591692987  LPSA32    12              7.0000000000
     34964      1128  BGLCNA    H4            -32.1546565411       23.7005565255       51.9037868612  LPSA32    12              7.0000000000
     34965      1128  BGLCNA    O4            -32.0024977093       25.2187987989       53.2294962294  LPSA32    12              7.0000000000
     34966      1128  BGLCNA    HO4           -31.8648871826       26.2094856265       53.2834945119  LPSA32    12              7.0000000000
     34967      1128  BGLCNA    C6            -29.9640857281       25.2173624179       50.9528560558  LPSA32    12              7.0000000000
     34968      1128  BGLCNA    H61           -29.5838020558       25.4742408544       51.9144325068  LPSA32    12              7.0000000000
     34969      1128  BGLCNA    H62           -29.9133843423       24.1412541723       50.8287962869  LPSA32    12              7.0000000000
     34970      1128  BGLCNA    O6            -29.2977592078       25.7970877624       49.8597561973  LPSA32    12              7.0000000000
     34971      1128  BGLCNA    HO6           -29.0678163812       26.6547398230       50.1903398796  LPSA32    12              7.0000000000
     34972      1129  AGAL      C1            -35.0921911540       25.4782613662       53.8132743488  LPSA32    13              8.0000000000
     34973      1129  AGAL      H1            -34.1925818933       26.0099211664       54.1959401301  LPSA32    13              8.0000000000
     34974      1129  AGAL      C5            -37.4457605752       25.5145111834       53.2950732168  LPSA32    13              8.0000000000
     34975      1129  AGAL      H5            -37.1834403335       24.7527426205       52.5641412600  LPSA32    13              8.0000000000
     34976      1129  AGAL      O5            -36.2648419350       26.3082171967       53.4918445955  LPSA32    13              8.0000000000
     34977      1129  AGAL      C2            -35.5510380897       24.7399487251       55.1010141246  LPSA32    13              8.0000000000
     34978      1129  AGAL      H2            -35.9952268885       25.4845295497       55.7917211299  LPSA32    13              8.0000000000
     34979      1129  AGAL      O2            -34.4823876826       24.1036934334       55.7701983428  LPSA32    13              8.0000000000
     34980      1129  AGAL      C3            -36.8321836724       23.8953915854       54.8979691660  LPSA32    13              8.0000000000
     34981      1129  AGAL      H3            -36.6757133960       23.2391434780       54.0477453328  LPSA32    13              8.0000000000
     34982      1129  AGAL      O3            -37.0826027945       22.9963628276       55.9888739531  LPSA32    13              8.0000000000
     34983      1129  AGAL      HO3           -37.3989748429       22.1517652299       55.6848713412  LPSA32    13              8.0000000000
     34984      1129  AGAL      C4            -37.9244329407       24.7346283596       54.5514025965  LPSA32    13              8.0000000000
     34985      1129  AGAL      H4            -38.8314188778       24.1124972177       54.1954731349  LPSA32    13              8.0000000000
     34986      1129  AGAL      O4            -38.3070346397       25.6279367924       55.5743212917  LPSA32    13              8.0000000000
     34987      1129  AGAL      HO4           -37.5958342042       26.0820849909       56.0499681296  LPSA32    13              8.0000000000
     34988      1129  AGAL      C6            -38.5663703864       26.1911067391       52.5301443486  LPSA32    13              8.0000000000
     34989      1129  AGAL      H61           -38.1608179902       26.6649130138       51.6253596531  LPSA32    13              8.0000000000
     34990      1129  AGAL      H62           -39.3791019763       25.4399399909       52.3684678279  LPSA32    13              8.0000000000
     34991      1129  AGAL      O6            -39.1655965431       27.2140623472       53.2985910507  LPSA32    13              8.0000000000
     34992      1129  AGAL      HO6           -39.7784826304       26.8059996983       53.9299633642  LPSA32    13              8.0000000000
     34993      1130  ARHM      C1            -34.0441292342       24.5784141003       57.0117786358  LPSA32    14              9.0000000000
     34994      1130  ARHM      H1            -34.2855525991       25.6615265098       56.9981767125  LPSA32    14              9.0000000000
     34995      1130  ARHM      C5            -32.2387617447       23.1199966083       57.1930138837  LPSA32    14              9.0000000000
     34996      1130  ARHM      H5            -32.5876229236       22.6518581889       56.1976867078  LPSA32    14              9.0000000000
     34997      1130  ARHM      O5            -32.6413883915       24.4384856604       57.1718909996  LPSA32    14              9.0000000000
     34998      1130  ARHM      C2            -34.7849951474       23.8295637945       58.1413490634  LPSA32    14              9.0000000000
     34999      1130  ARHM      H2            -35.8314096710       23.9426075755       57.8875987320  LPSA32    14              9.0000000000
     35000      1130  ARHM      O2            -34.5151081214       24.2824168737       59.4330148990  LPSA32    14              9.0000000000
     35001      1130  ARHM      C3            -34.3889126519       22.3817607562       58.1095432995  LPSA32    14              9.0000000000
     35002      1130  ARHM      H3            -34.4922170676       22.0204596451       57.0440121713  LPSA32    14              9.0000000000
     35003      1130  ARHM      O3            -35.2047343854       21.5329615052       58.8567888868  LPSA32    14              9.0000000000
     35004      1130  ARHM      HO3           -34.9580177654       21.7114137674       59.8104957846  LPSA32    14              9.0000000000
     35005      1130  ARHM      C4            -32.9234130710       22.3329414898       58.3490442956  LPSA32    14              9.0000000000
     35006      1130  ARHM      H4            -32.5544608875       22.8039688915       59.2902338481  LPSA32    14              9.0000000000
     35007      1130  ARHM      O4            -32.5040263934       20.9438044210       58.4446785014  LPSA32    14              9.0000000000
     35008      1130  ARHM      HO4           -32.1889932450       20.6473886525       59.2969967688  LPSA32    14              9.0000000000
     35009      1130  ARHM      C6            -30.7036501957       23.0429951697       57.2492155848  LPSA32    14              9.0000000000
     35010      1130  ARHM      H61           -30.1619631830       23.7593941269       56.5358243550  LPSA32    14              9.0000000000
     35011      1130  ARHM      H62           -30.4393169407       23.1835711724       58.3170764683  LPSA32    14              9.0000000000
     35012      1130  ARHM      H63           -30.1976591803       22.1245854428       56.9421594120  LPSA32    14              9.0000000000
     35013      1131  ARHM      C1            -34.6156979443       25.5865702709       59.7267990175  LPSA32    15             10.0000000000
     35014      1131  ARHM      H1            -35.3281997979       26.1003170276       59.0458905905  LPSA32    15             10.0000000000
     35015      1131  ARHM      C5            -32.3331839919       25.9197293341       60.6468530148  LPSA32    15             10.0000000000
     35016      1131  ARHM      H5            -31.9459109422       24.8715395630       60.4457705401  LPSA32    15             10.0000000000
     35017      1131  ARHM      O5            -33.3523431191       26.2952247437       59.6688136410  LPSA32    15             10.0000000000
     35018      1131  ARHM      C2            -35.1693233692       25.7495630991       61.1407671534  LPSA32    15             10.0000000000
     35019      1131  ARHM      H2            -36.1149595984       25.0888885161       61.2133420761  LPSA32    15             10.0000000000
     35020      1131  ARHM      O2            -35.4681325670       27.1652691080       61.3234079317  LPSA32    15             10.0000000000
     35021      1131  ARHM      C3            -34.1538359073       25.2465728056       62.1677656617  LPSA32    15             10.0000000000
     35022      1131  ARHM      H3            -33.8906914808       24.1955682164       61.8628392879  LPSA32    15             10.0000000000
     35023      1131  ARHM      O3            -34.8964641306       25.1140180005       63.4092175029  LPSA32    15             10.0000000000
     35024      1131  ARHM      C4            -32.9472883552       26.0459827654       62.0487117432  LPSA32    15             10.0000000000
     35025      1131  ARHM      H4            -33.2434687302       27.1661092981       62.1496903561  LPSA32    15             10.0000000000
     35026      1131  ARHM      O4            -31.8791597728       25.7863581982       62.9635513464  LPSA32    15             10.0000000000
     35027      1131  ARHM      HO4           -31.3003543939       26.5337823693       62.9565205260  LPSA32    15             10.0000000000
     35028      1131  ARHM      C6            -31.1089919530       26.7831115518       60.4460959132  LPSA32    15             10.0000000000
     35029      1131  ARHM      H61           -30.2349516097       26.5119941002       61.0956562646  LPSA32    15             10.0000000000
     35030      1131  ARHM      H62           -30.8955390679       26.8722189169       59.3910198679  LPSA32    15             10.0000000000
     35031      1131  ARHM      H63           -31.2497479821       27.8219324555       60.8578185328  LPSA32    15             10.0000000000
     35032      1132  BMANNA    C1            -36.1017919591       27.6043597686       62.5145562334  LPSA32    16             11.0000000000
     35033      1132  BMANNA    H1            -35.3026633152       27.5369890855       63.3432051365  LPSA32    16             11.0000000000
     35034      1132  BMANNA    C5            -37.7320467314       27.3202753774       64.1851548173  LPSA32    16             11.0000000000
     35035      1132  BMANNA    H5            -36.9748843523       27.3080992386       64.9800677769  LPSA32    16             11.0000000000
     35036      1132  BMANNA    O5            -37.2258453823       26.8300447717       62.9158851071  LPSA32    16             11.0000000000
     35037      1132  BMANNA    C2            -36.5045152183       29.0787534948       62.2781089586  LPSA32    16             11.0000000000
     35038      1132  BMANNA    H2            -35.5458410194       29.5853654788       61.9912908466  LPSA32    16             11.0000000000
     35039      1132  BMANNA    N             -37.4818382335       29.3738143063       61.2264456342  LPSA32    16             11.0000000000
     35040      1132  BMANNA    HN            -38.3920462177       29.3435122615       61.5688724990  LPSA32    16             11.0000000000
     35041      1132  BMANNA    C             -37.1897597165       29.6042497556       59.9704010620  LPSA32    16             11.0000000000
     35042      1132  BMANNA    O             -35.9992315753       29.6695642969       59.5582221915  LPSA32    16             11.0000000000
     35043      1132  BMANNA    CT            -38.3629532856       29.7936957377       59.1331689300  LPSA32    16             11.0000000000
     35044      1132  BMANNA    HT1           -38.5707021016       30.8092331447       58.8344492748  LPSA32    16             11.0000000000
     35045      1132  BMANNA    HT2           -39.3050530617       29.3914285918       59.5043001239  LPSA32    16             11.0000000000
     35046      1132  BMANNA    HT3           -38.2285629809       29.2874215655       58.1231520073  LPSA32    16             11.0000000000
     35047      1132  BMANNA    C3            -36.9905801008       29.5879595566       63.6119771117  LPSA32    16             11.0000000000
     35048      1132  BMANNA    H3            -36.1844826123       29.4804476908       64.3839812837  LPSA32    16             11.0000000000
     35049      1132  BMANNA    O3            -37.2982534495       30.9522644652       63.6122488842  LPSA32    16             11.0000000000
     35050      1132  BMANNA    HO3           -36.8210629308       31.4049458692       64.2950500102  LPSA32    16             11.0000000000
     35051      1132  BMANNA    C4            -38.2017403269       28.7856742315       64.1045846713  LPSA32    16             11.0000000000
     35052      1132  BMANNA    H4            -39.0616922995       28.8645495906       63.4124605202  LPSA32    16             11.0000000000
     35053      1132  BMANNA    O4            -38.7556037895       29.1512984174       65.3816866120  LPSA32    16             11.0000000000
     35054      1132  BMANNA    HO4           -39.6722905204       28.8847210635       65.4353184152  LPSA32    16             11.0000000000
     35055      1132  BMANNA    C6            -38.8605692092       26.4433330711       64.7427751243  LPSA32    16             11.0000000000
     35056      1132  BMANNA    H61           -38.8063667774       26.5136212241       65.8875394407  LPSA32    16             11.0000000000
     35057      1132  BMANNA    H62           -39.8410817741       26.8160832922       64.4389269682  LPSA32    16             11.0000000000
     35058      1132  BMANNA    O6            -38.7720560075       25.0547240820       64.3660927576  LPSA32    16             11.0000000000
     35059      1132  BMANNA    HO6           -39.6289897379       24.9218415175       63.9036969990  LPSA32    16             11.0000000000
     35060      1133  BGLCNA    C1            -34.5697385428       24.0527924283       64.1715778089  LPSA32    17             11.0000000000
     35061      1133  BGLCNA    H1            -33.4794512985       23.7406213088       63.9082176002  LPSA32    17             11.0000000000
     35062      1133  BGLCNA    C5            -35.0473820439       21.6873313231       64.5563394407  LPSA32    17             11.0000000000
     35063      1133  BGLCNA    H5            -33.9834153690       21.3345083209       64.2825289487  LPSA32    17             11.0000000000
     35064      1133  BGLCNA    O5            -35.3218149489       22.8665962515       63.7849982893  LPSA32    17             11.0000000000
     35065      1133  BGLCNA    C2            -34.8062368878       24.4225874003       65.5899343931  LPSA32    17             11.0000000000
     35066      1133  BGLCNA    H2            -35.8895004517       24.6978421009       65.8249043900  LPSA32    17             11.0000000000
     35067      1133  BGLCNA    N             -34.1452200895       25.6291177791       65.8849826081  LPSA32    17             11.0000000000
     35068      1133  BGLCNA    HN            -33.2642428772       25.8261597978       65.4150135415  LPSA32    17             11.0000000000
     35069      1133  BGLCNA    C             -34.4083587246       26.5406863742       66.8043620798  LPSA32    17             11.0000000000
     35070      1133  BGLCNA    O             -35.4346063913       26.5085756176       67.4729873017  LPSA32    17             11.0000000000
     35071      1133  BGLCNA    CT            -33.3952097446       27.6082743641       66.9728872304  LPSA32    17             11.0000000000
     35072      1133  BGLCNA    HT1           -33.5785922324       28.6138293267       66.5529393721  LPSA32    17             11.0000000000
     35073      1133  BGLCNA    HT2           -32.4115899104       27.1767546188       66.7043805047  LPSA32    17             11.0000000000
     35074      1133  BGLCNA    HT3           -33.2312764091       27.8276064471       68.1408097225  LPSA32    17             11.0000000000
     35075      1133  BGLCNA    C3            -34.4014132828       23.2165463713       66.4076579941  LPSA32    17             11.0000000000
     35076      1133  BGLCNA    H3            -33.3329005674       23.0460760758       66.0441361901  LPSA32    17             11.0000000000
     35077      1133  BGLCNA    O3            -34.3605853474       23.6334228018       67.8205355914  LPSA32    17             11.0000000000
     35078      1133  BGLCNA    C4            -35.3142606665       22.0520536351       66.0496966154  LPSA32    17             11.0000000000
     35079      1133  BGLCNA    H4            -36.4193106552       22.3493516186       66.1123142204  LPSA32    17             11.0000000000
     35080      1133  BGLCNA    O4            -35.1498628003       20.9497788571       66.9186044206  LPSA32    17             11.0000000000
     35081      1133  BGLCNA    HO4           -35.6704840588       20.1806701699       66.7204061560  LPSA32    17             11.0000000000
     35082      1133  BGLCNA    C6            -35.9942392332       20.5521029570       64.1200051697  LPSA32    17             11.0000000000
     35083      1133  BGLCNA    H61           -35.4723636547       19.6150486024       64.1272946536  LPSA32    17             11.0000000000
     35084      1133  BGLCNA    H62           -36.8803800295       20.4626009468       64.8212395067  LPSA32    17             11.0000000000
     35085      1133  BGLCNA    O6            -36.5031944461       20.7420397272       62.7926115083  LPSA32    17             11.0000000000
     35086      1133  BGLCNA    HO6           -35.7728123593       20.7847286979       62.1856770532  LPSA32    17             11.0000000000
     35087      1134  AGAL      C1            -33.3155330166       23.0229753653       68.6198653987  LPSA32    18             12.0000000000
     35088      1134  AGAL      H1            -33.6237276750       21.9520391950       68.8082567594  LPSA32    18             12.0000000000
     35089      1134  AGAL      C5            -31.5050447035       24.4078392977       67.8636918791  LPSA32    18             12.0000000000
     35090      1134  AGAL      H5            -32.2722868092       25.0393148296       67.4068928888  LPSA32    18             12.0000000000
     35091      1134  AGAL      O5            -32.0566244244       23.0469779270       67.9834320655  LPSA32    18             12.0000000000
     35092      1134  AGAL      C2            -33.1231311935       23.7594164888       70.0000206359  LPSA32    18             12.0000000000
     35093      1134  AGAL      H2            -32.2790637394       23.1458018956       70.3908489884  LPSA32    18             12.0000000000
     35094      1134  AGAL      O2            -34.2066920453       23.5161461274       70.8342757016  LPSA32    18             12.0000000000
     35095      1134  AGAL      C3            -32.6026783748       25.1483281594       69.8682924558  LPSA32    18             12.0000000000
     35096      1134  AGAL      H3            -33.2669912506       25.7134602800       69.0958348126  LPSA32    18             12.0000000000
     35097      1134  AGAL      O3            -32.6246285996       25.8480134075       71.0758896640  LPSA32    18             12.0000000000
     35098      1134  AGAL      HO3           -32.9890666599       26.7283158721       70.9682873819  LPSA32    18             12.0000000000
     35099      1134  AGAL      C4            -31.3076523563       25.1089155701       69.1634745928  LPSA32    18             12.0000000000
     35100      1134  AGAL      H4            -30.8639830350       26.0987809659       68.9039691178  LPSA32    18             12.0000000000
     35101      1134  AGAL      O4            -30.3058944238       24.4397222065       69.9734134928  LPSA32    18             12.0000000000
     35102      1134  AGAL      HO4           -30.0150035871       25.0658492803       70.7236544006  LPSA32    18             12.0000000000
     35103      1134  AGAL      C6            -30.4954594882       24.3793407858       66.8042742825  LPSA32    18             12.0000000000
     35104      1134  AGAL      H61           -31.0125840305       24.0909271362       65.8877991861  LPSA32    18             12.0000000000
     35105      1134  AGAL      H62           -30.1645001997       25.4421909099       66.6499463921  LPSA32    18             12.0000000000
     35106      1134  AGAL      O6            -29.4769347933       23.5343924560       66.9803033045  LPSA32    18             12.0000000000
     35107      1134  AGAL      HO6           -29.5547319564       22.8839801056       67.6707071977  LPSA32    18             12.0000000000
     35108      1135  ARHM      C1            -33.7428607926       23.2383940008       72.1803514454  LPSA32    19             13.0000000000
     35109      1135  ARHM      H1            -32.7466115967       23.6078675295       72.3185909119  LPSA32    19             13.0000000000
     35110      1135  ARHM      C5            -34.7021746352       21.0709205459       72.2512180912  LPSA32    19             13.0000000000
     35111      1135  ARHM      H5            -35.0734761930       21.2721326128       71.2133247196  LPSA32    19             13.0000000000
     35112      1135  ARHM      O5            -33.5110840369       21.8423081617       72.4162684983  LPSA32    19             13.0000000000
     35113      1135  ARHM      C2            -34.7567483314       23.7949353003       73.1100514097  LPSA32    19             13.0000000000
     35114      1135  ARHM      H2            -35.0364175229       24.8030505788       72.9420985559  LPSA32    19             13.0000000000
     35115      1135  ARHM      O2            -34.2966213153       23.6947503916       74.4131644751  LPSA32    19             13.0000000000
     35116      1135  ARHM      C3            -36.0463733688       22.9256869302       72.9859276785  LPSA32    19             13.0000000000
     35117      1135  ARHM      H3            -36.3626901063       22.9749180420       71.9471750908  LPSA32    19             13.0000000000
     35118      1135  ARHM      O3            -37.0689996209       23.4332975356       73.7644258584  LPSA32    19             13.0000000000
     35119      1135  ARHM      HO3           -36.7053549849       23.5696723541       74.6464134549  LPSA32    19             13.0000000000
     35120      1135  ARHM      C4            -35.8065149475       21.4982304265       73.2443334127  LPSA32    19             13.0000000000
     35121      1135  ARHM      H4            -35.4215174936       21.4405548219       74.2703943704  LPSA32    19             13.0000000000
     35122      1135  ARHM      O4            -36.9313376443       20.6801157173       73.1708570575  LPSA32    19             13.0000000000
     35123      1135  ARHM      HO4           -37.2256856146       20.7123999718       72.2126258713  LPSA32    19             13.0000000000
     35124      1135  ARHM      C6            -34.4037251374       19.5617196839       72.3031700958  LPSA32    19             13.0000000000
     35125      1135  ARHM      H61           -33.6688417657       19.4753323169       71.5186681997  LPSA32    19             13.0000000000
     35126      1135  ARHM      H62           -33.9716363497       19.1803364363       73.2001761489  LPSA32    19             13.0000000000
     35127      1135  ARHM      H63           -35.2756103836       18.9376921652       72.0875448643  LPSA32    19             13.0000000000
     35128      1136  ARHM      C1            -33.3370663422       24.6585713035       74.6981797177  LPSA32    20             14.0000000000
     35129      1136  ARHM      H1            -33.2668888234       25.4613837231       73.8936196974  LPSA32    20             14.0000000000
     35130      1136  ARHM      C5            -31.8202482731       23.3325518428       75.9960310464  LPSA32    20             14.0000000000
     35131      1136  ARHM      H5            -32.5602664720       22.5133437089       75.8071112250  LPSA32    20             14.0000000000
     35132      1136  ARHM      O5            -31.9935493169       24.2069115199       74.8741575474  LPSA32    20             14.0000000000
     35133      1136  ARHM      C2            -33.7505870489       25.4386901237       75.9438944127  LPSA32    20             14.0000000000
     35134      1136  ARHM      H2            -34.8729192853       25.7260009649       75.7904987900  LPSA32    20             14.0000000000
     35135      1136  ARHM      O2            -32.9281623148       26.5967061629       76.2145535291  LPSA32    20             14.0000000000
     35136      1136  ARHM      C3            -33.5705065750       24.5201433471       77.0746584307  LPSA32    20             14.0000000000
     35137      1136  ARHM      H3            -34.2556408379       23.6005153136       76.9570890266  LPSA32    20             14.0000000000
     35138      1136  ARHM      O3            -34.0571304229       25.2266585560       78.2431898216  LPSA32    20             14.0000000000
     35139      1136  ARHM      C4            -32.1636314581       24.0434987272       77.2147849866  LPSA32    20             14.0000000000
     35140      1136  ARHM      H4            -31.4556279677       24.8431733046       77.2882629629  LPSA32    20             14.0000000000
     35141      1136  ARHM      O4            -32.0514848814       23.2659173267       78.4294019453  LPSA32    20             14.0000000000
     35142      1136  ARHM      HO4           -31.3829258030       22.7146734810       78.0714846557  LPSA32    20             14.0000000000
     35143      1136  ARHM      C6            -30.4654961455       22.7580068770       75.9818768401  LPSA32    20             14.0000000000
     35144      1136  ARHM      H61           -29.5693385938       23.4450204128       76.0487105533  LPSA32    20             14.0000000000
     35145      1136  ARHM      H62           -30.3781793814       21.9867193471       76.7492574554  LPSA32    20             14.0000000000
     35146      1136  ARHM      H63           -30.1961898039       22.2123156595       75.0059134709  LPSA32    20             14.0000000000
     35147      1137  BMANNA    C1            -33.4494672134       27.6225281303       75.4501725836  LPSA32    21             15.0000000000
     35148      1137  BMANNA    H1            -34.1975378636       27.2285186686       74.6495731600  LPSA32    21             15.0000000000
     35149      1137  BMANNA    C5            -33.0682117312       29.1399506333       73.6578092950  LPSA32    21             15.0000000000
     35150      1137  BMANNA    H5            -33.9916059481       28.7549787623       73.0422409194  LPSA32    21             15.0000000000
     35151      1137  BMANNA    O5            -32.4255234757       28.1622700653       74.5460975074  LPSA32    21             15.0000000000
     35152      1137  BMANNA    C2            -34.0140487854       28.6929852000       76.3268603500  LPSA32    21             15.0000000000
     35153      1137  BMANNA    H2            -34.7843643964       28.1389633132       76.8663433126  LPSA32    21             15.0000000000
     35154      1137  BMANNA    N             -33.0212193317       29.2184397374       77.2602735953  LPSA32    21             15.0000000000
     35155      1137  BMANNA    HN            -32.1881555540       29.5214337206       76.8630196157  LPSA32    21             15.0000000000
     35156      1137  BMANNA    C             -33.2696441573       29.5731665466       78.6142451918  LPSA32    21             15.0000000000
     35157      1137  BMANNA    O             -34.4258053581       29.6293525227       79.0340579138  LPSA32    21             15.0000000000
     35158      1137  BMANNA    CT            -32.0672392563       29.9393801115       79.5125915666  LPSA32    21             15.0000000000
     35159      1137  BMANNA    HT1           -31.7855472478       30.9976980096       79.3040814335  LPSA32    21             15.0000000000
     35160      1137  BMANNA    HT2           -31.2908289649       29.1796785396       79.3224353366  LPSA32    21             15.0000000000
     35161      1137  BMANNA    HT3           -32.3620965800       29.8760976132       80.6000991146  LPSA32    21             15.0000000000
     35162      1137  BMANNA    C3            -34.6480099576       29.7084747573       75.4428482744  LPSA32    21             15.0000000000
     35163      1137  BMANNA    H3            -35.4453967118       29.1214004369       75.0091666053  LPSA32    21             15.0000000000
     35164      1137  BMANNA    O3            -35.2469863067       30.7654649674       76.1769203835  LPSA32    21             15.0000000000
     35165      1137  BMANNA    HO3           -34.5859058346       31.1288814556       76.7354970047  LPSA32    21             15.0000000000
     35166      1137  BMANNA    C4            -33.6318684193       30.2781458500       74.4866217523  LPSA32    21             15.0000000000
     35167      1137  BMANNA    H4            -32.7589046271       30.9157096403       75.0002820064  LPSA32    21             15.0000000000
     35168      1137  BMANNA    O4            -34.1896335033       31.2196560792       73.6152290754  LPSA32    21             15.0000000000
     35169      1137  BMANNA    HO4           -33.8106598775       32.1130701796       73.7703874424  LPSA32    21             15.0000000000
     35170      1137  BMANNA    C6            -32.1684161588       29.6065154474       72.6348027846  LPSA32    21             15.0000000000
     35171      1137  BMANNA    H61           -32.6666943861       30.2120591360       71.8494922130  LPSA32    21             15.0000000000
     35172      1137  BMANNA    H62           -31.5099688467       30.4142550501       73.0558617198  LPSA32    21             15.0000000000
     35173      1137  BMANNA    O6            -31.2977580197       28.6760776315       72.0654385618  LPSA32    21             15.0000000000
     35174      1137  BMANNA    HO6           -30.8248872640       28.2483159281       72.7784055652  LPSA32    21             15.0000000000
     35175      1138  BGLCNA    C1            -34.7566244687       24.5471177829       79.2248726046  LPSA32    22             15.0000000000
     35176      1138  BGLCNA    H1            -34.5309412968       23.4416933658       79.2753119810  LPSA32    22             15.0000000000
     35177      1138  BGLCNA    C5            -36.8859680961       23.8640636046       80.1145289529  LPSA32    22             15.0000000000
     35178      1138  BGLCNA    H5            -36.4694323163       22.7706189980       80.0727605020  LPSA32    22             15.0000000000
     35179      1138  BGLCNA    O5            -36.1459097060       24.6012219852       79.0803056561  LPSA32    22             15.0000000000
     35180      1138  BGLCNA    C2            -34.3886042111       25.1403462912       80.5602818744  LPSA32    22             15.0000000000
     35181      1138  BGLCNA    H2            -34.7650859110       26.2197150461       80.4633107900  LPSA32    22             15.0000000000
     35182      1138  BGLCNA    N             -32.9489887017       25.0906051401       80.7025670875  LPSA32    22             15.0000000000
     35183      1138  BGLCNA    HN            -32.5223905591       24.2487521500       80.4501896382  LPSA32    22             15.0000000000
     35184      1138  BGLCNA    C             -32.2249797454       25.9947845494       81.3295640408  LPSA32    22             15.0000000000
     35185      1138  BGLCNA    O             -32.7511497619       26.9982105263       81.8448112003  LPSA32    22             15.0000000000
     35186      1138  BGLCNA    CT            -30.7614652242       25.7537626502       81.4359073222  LPSA32    22             15.0000000000
     35187      1138  BGLCNA    HT1           -30.3910299378       26.2296397829       80.5353412834  LPSA32    22             15.0000000000
     35188      1138  BGLCNA    HT2           -30.5926187163       24.6643081046       81.2752873926  LPSA32    22             15.0000000000
     35189      1138  BGLCNA    HT3           -30.3061783903       26.0150133856       82.3679651303  LPSA32    22             15.0000000000
     35190      1138  BGLCNA    C3            -35.1184353658       24.4431615643       81.6855161512  LPSA32    22             15.0000000000
     35191      1138  BGLCNA    H3            -34.8593923957       23.3554647666       81.6419517197  LPSA32    22             15.0000000000
     35192      1138  BGLCNA    O3            -34.5951398338       24.9945684270       82.8729300216  LPSA32    22             15.0000000000
     35193      1138  BGLCNA    C4            -36.6334027027       24.5166926939       81.4704242134  LPSA32    22             15.0000000000
     35194      1138  BGLCNA    H4            -36.8641487932       25.5479167285       81.4144045074  LPSA32    22             15.0000000000
     35195      1138  BGLCNA    O4            -37.3678164484       23.9157890900       82.5140850489  LPSA32    22             15.0000000000
     35196      1138  BGLCNA    HO4           -38.1420365549       24.4700897213       82.7130071916  LPSA32    22             15.0000000000
     35197      1138  BGLCNA    C6            -38.3574037070       23.9182881538       79.7284495560  LPSA32    22             15.0000000000
     35198      1138  BGLCNA    H61           -38.8906434180       23.6675345450       80.6924177192  LPSA32    22             15.0000000000
     35199      1138  BGLCNA    H62           -38.6699202020       24.9509563290       79.4648784538  LPSA32    22             15.0000000000
     35200      1138  BGLCNA    O6            -38.7525790905       22.9561609106       78.8100863794  LPSA32    22             15.0000000000
     35201      1138  BGLCNA    HO6           -38.2264792593       23.0534820680       78.0328486455  LPSA32    22             15.0000000000
     35202      1139  AGAL      C1            -34.7204769116       24.3042569537       84.0628261254  LPSA32    23             16.0000000000
     35203      1139  AGAL      H1            -35.7498875772       24.3802874011       84.5106287163  LPSA32    23             16.0000000000
     35204      1139  AGAL      C5            -33.0018832279       22.6842792195       83.7583018441  LPSA32    23             16.0000000000
     35205      1139  AGAL      H5            -32.6801684066       23.2976583988       82.8366412438  LPSA32    23             16.0000000000
     35206      1139  AGAL      O5            -34.3709899421       22.9178799154       83.9976212264  LPSA32    23             16.0000000000
     35207      1139  AGAL      C2            -33.8681237107       24.9442692381       85.1427633740  LPSA32    23             16.0000000000
     35208      1139  AGAL      H2            -34.0468624469       24.3472532646       86.0076373284  LPSA32    23             16.0000000000
     35209      1139  AGAL      O2            -34.2736668715       26.2438682187       85.5000844886  LPSA32    23             16.0000000000
     35210      1139  AGAL      C3            -32.4063168076       24.7645299669       84.9194901020  LPSA32    23             16.0000000000
     35211      1139  AGAL      H3            -32.2192904990       25.1328099200       83.8641570193  LPSA32    23             16.0000000000
     35212      1139  AGAL      O3            -31.5675010355       25.5224085615       85.7108298168  LPSA32    23             16.0000000000
     35213      1139  AGAL      HO3           -31.9248038268       25.4096917383       86.6206525111  LPSA32    23             16.0000000000
     35214      1139  AGAL      C4            -32.1310156534       23.2908603425       84.8901212015  LPSA32    23             16.0000000000
     35215      1139  AGAL      H4            -31.0689436017       23.0565492707       84.6506069022  LPSA32    23             16.0000000000
     35216      1139  AGAL      O4            -32.3115647482       22.5936032274       86.1132943683  LPSA32    23             16.0000000000
     35217      1139  AGAL      HO4           -32.6170817957       21.7926264575       85.8278371007  LPSA32    23             16.0000000000
     35218      1139  AGAL      C6            -32.7617161439       21.2619618276       83.3278962909  LPSA32    23             16.0000000000
     35219      1139  AGAL      H61           -33.4840391579       20.9802689531       82.6074235255  LPSA32    23             16.0000000000
     35220      1139  AGAL      H62           -31.8330334997       21.1440133918       82.7620574208  LPSA32    23             16.0000000000
     35221      1139  AGAL      O6            -32.9113048782       20.3953043596       84.3845202183  LPSA32    23             16.0000000000
     35222      1139  AGAL      HO6           -32.8150853240       19.4783455025       84.1740981585  LPSA32    23             16.0000000000
     35223      1140  ARHM      C1            -35.4147534562       26.5460602440       86.2818185944  LPSA32    24             17.0000000000
     35224      1140  ARHM      H1            -35.9935905229       25.6467975931       86.3680542693  LPSA32    24             17.0000000000
     35225      1140  ARHM      C5            -35.7227645404       28.8327930394       85.6157638072  LPSA32    24             17.0000000000
     35226      1140  ARHM      H5            -34.8488039979       28.7364201960       85.0070975499  LPSA32    24             17.0000000000
     35227      1140  ARHM      O5            -36.3717191935       27.5895653621       85.8657410059  LPSA32    24             17.0000000000
     35228      1140  ARHM      C2            -34.8132992501       26.9320902202       87.5921581840  LPSA32    24             17.0000000000
     35229      1140  ARHM      H2            -34.0385468886       26.2540459624       87.8984046741  LPSA32    24             17.0000000000
     35230      1140  ARHM      O2            -35.8103197414       27.1546511116       88.6075763533  LPSA32    24             17.0000000000
     35231      1140  ARHM      C3            -34.1351560734       28.2989375925       87.4133527752  LPSA32    24             17.0000000000
     35232      1140  ARHM      H3            -33.3543508722       28.1334125408       86.6640279609  LPSA32    24             17.0000000000
     35233      1140  ARHM      O3            -33.3651307566       28.7421822855       88.5620392964  LPSA32    24             17.0000000000
     35234      1140  ARHM      HO3           -34.0026946310       29.2062147556       89.1463757531  LPSA32    24             17.0000000000
     35235      1140  ARHM      C4            -35.1217041798       29.3581792395       86.9402325015  LPSA32    24             17.0000000000
     35236      1140  ARHM      H4            -35.9946526866       29.3877257001       87.7071552895  LPSA32    24             17.0000000000
     35237      1140  ARHM      O4            -34.5867020094       30.6599997146       86.8379508285  LPSA32    24             17.0000000000
     35238      1140  ARHM      HO4           -35.2014887712       31.3516924639       87.0219124236  LPSA32    24             17.0000000000
     35239      1140  ARHM      C6            -36.6672547537       29.8959536008       84.9175891319  LPSA32    24             17.0000000000
     35240      1140  ARHM      H61           -36.0456143653       30.6141892239       84.3853494017  LPSA32    24             17.0000000000
     35241      1140  ARHM      H62           -37.2670947958       29.3437097259       84.2649634992  LPSA32    24             17.0000000000
     35242      1140  ARHM      H63           -37.3842826593       30.3476416947       85.6811466487  LPSA32    24             17.0000000000
     35243      1141  ARHM      C1            -36.2547118691       25.9200160802       89.1588742089  LPSA32    25             18.0000000000
     35244      1141  ARHM      H1            -36.0632055217       25.1329112250       88.4722246341  LPSA32    25             18.0000000000
     35245      1141  ARHM      C5            -38.2290808886       26.8195200682       90.1670531641  LPSA32    25             18.0000000000
     35246      1141  ARHM      H5            -38.0200554167       27.8173895949       89.8870230824  LPSA32    25             18.0000000000
     35247      1141  ARHM      O5            -37.6928568600       25.8585105776       89.2315309535  LPSA32    25             18.0000000000
     35248      1141  ARHM      C2            -35.6014611858       25.7129374776       90.4685713243  LPSA32    25             18.0000000000
     35249      1141  ARHM      H2            -34.4820194224       25.8990632373       90.3413143991  LPSA32    25             18.0000000000
     35250      1141  ARHM      O2            -35.8472953563       24.3494723940       90.9328696740  LPSA32    25             18.0000000000
     35251      1141  ARHM      C3            -36.2452488097       26.7394219304       91.4562257518  LPSA32    25             18.0000000000
     35252      1141  ARHM      H3            -35.9930814261       27.7581904758       91.0689171631  LPSA32    25             18.0000000000
     35253      1141  ARHM      O3            -35.5884372329       26.5490566003       92.6920647463  LPSA32    25             18.0000000000
     35254      1141  ARHM      C4            -37.6653364863       26.6233596983       91.5960769721  LPSA32    25             18.0000000000
     35255      1141  ARHM      H4            -37.9894673380       25.5397479610       91.8876801091  LPSA32    25             18.0000000000
     35256      1141  ARHM      O4            -38.0645536794       27.5712690884       92.5862492282  LPSA32    25             18.0000000000
     35257      1141  ARHM      HO4           -38.7816962075       27.1402384306       93.0149361445  LPSA32    25             18.0000000000
     35258      1141  ARHM      C6            -39.7560826350       26.7860712187       90.2083352735  LPSA32    25             18.0000000000
     35259      1141  ARHM      H61           -40.2026499065       26.8255845903       89.1912344565  LPSA32    25             18.0000000000
     35260      1141  ARHM      H62           -40.1703668043       25.8486011174       90.6686969550  LPSA32    25             18.0000000000
     35261      1141  ARHM      H63           -40.2169096808       27.6491335178       90.8233913566  LPSA32    25             18.0000000000
     35262      1142  BMANNA    C1            -35.0370473984       23.3787363765       90.3138108879  LPSA32    26             19.0000000000
     35263      1142  BMANNA    H1            -34.1193066143       23.8352187989       89.8388342826  LPSA32    26             19.0000000000
     35264      1142  BMANNA    C5            -34.7426191402       21.7118117577       88.6312665858  LPSA32    26             19.0000000000
     35265      1142  BMANNA    H5            -33.9495708996       22.3064873286       88.1771240033  LPSA32    26             19.0000000000
     35266      1142  BMANNA    O5            -35.6616568830       22.6314975131       89.2346891933  LPSA32    26             19.0000000000
     35267      1142  BMANNA    C2            -34.6040920331       22.4595969906       91.3475147821  LPSA32    26             19.0000000000
     35268      1142  BMANNA    H2            -34.0688956744       23.1176430464       92.1081287357  LPSA32    26             19.0000000000
     35269      1142  BMANNA    N             -35.8010873404       21.8075650732       91.9238920796  LPSA32    26             19.0000000000
     35270      1142  BMANNA    HN            -36.3727169988       21.3490471895       91.3050515894  LPSA32    26             19.0000000000
     35271      1142  BMANNA    C             -36.0749677878       21.7307091162       93.1798471680  LPSA32    26             19.0000000000
     35272      1142  BMANNA    O             -35.4135513820       22.3910947282       94.0003587425  LPSA32    26             19.0000000000
     35273      1142  BMANNA    CT            -37.1932381548       20.8149526336       93.6758917343  LPSA32    26             19.0000000000
     35274      1142  BMANNA    HT1           -37.8379003304       20.6519809547       92.8666282051  LPSA32    26             19.0000000000
     35275      1142  BMANNA    HT2           -37.7339805001       20.9844357369       94.6620984389  LPSA32    26             19.0000000000
     35276      1142  BMANNA    HT3           -36.7057355002       19.8478365972       93.8484898219  LPSA32    26             19.0000000000
     35277      1142  BMANNA    C3            -33.5930833693       21.5022783400       90.7100883268  LPSA32    26             19.0000000000
     35278      1142  BMANNA    H3            -32.7329070790       22.1131957600       90.3384445889  LPSA32    26             19.0000000000
     35279      1142  BMANNA    O3            -33.0608885516       20.6544231632       91.7636866611  LPSA32    26             19.0000000000
     35280      1142  BMANNA    HO3           -32.4804405498       21.2468266021       92.2265744207  LPSA32    26             19.0000000000
     35281      1142  BMANNA    C4            -34.2331520575       20.7948349435       89.6481622736  LPSA32    26             19.0000000000
     35282      1142  BMANNA    H4            -35.1281956990       20.1561073947       89.9013799111  LPSA32    26             19.0000000000
     35283      1142  BMANNA    O4            -33.3470564747       19.8647323261       89.0416847738  LPSA32    26             19.0000000000
     35284      1142  BMANNA    HO4           -33.3551748775       19.0606611893       89.5591157304  LPSA32    26             19.0000000000
     35285      1142  BMANNA    C6            -35.5046057846       21.1569014049       87.3900617492  LPSA32    26             19.0000000000
     35286      1142  BMANNA    H61           -36.1403872939       21.9274320070       86.9191763972  LPSA32    26             19.0000000000
     35287      1142  BMANNA    H62           -34.8426092193       20.7883704804       86.6504270337  LPSA32    26             19.0000000000
     35288      1142  BMANNA    O6            -36.3519946160       20.0658936990       87.7329108337  LPSA32    26             19.0000000000
     35289      1142  BMANNA    HO6           -35.8550433243       19.4050564784       88.1688153196  LPSA32    26             19.0000000000
     35290      1143  BGLCNA    C1            -35.1119154266       27.5519799850       93.4616184899  LPSA32    27             19.0000000000
     35291      1143  BGLCNA    H1            -35.7831659590       28.4048017411       93.4392217979  LPSA32    27             19.0000000000
     35292      1143  BGLCNA    C5            -33.4199824271       29.1410657676       93.9656603721  LPSA32    27             19.0000000000
     35293      1143  BGLCNA    H5            -34.2328982518       29.9116937869       93.9564344452  LPSA32    27             19.0000000000
     35294      1143  BGLCNA    O5            -33.8457847757       28.1131219105       93.0607755266  LPSA32    27             19.0000000000
     35295      1143  BGLCNA    C2            -35.0356272121       26.9838680661       94.8806799918  LPSA32    27             19.0000000000
     35296      1143  BGLCNA    H2            -34.2530746126       26.2054519208       94.8757458582  LPSA32    27             19.0000000000
     35297      1143  BGLCNA    N             -36.3028504554       26.3814974074       95.2501113516  LPSA32    27             19.0000000000
     35298      1143  BGLCNA    HN            -37.1586710101       26.9737089148       95.0827132934  LPSA32    27             19.0000000000
     35299      1143  BGLCNA    C             -36.2227857876       25.1831620311       95.9523160909  LPSA32    27             19.0000000000
     35300      1143  BGLCNA    O             -35.1879697388       24.7234160350       96.5238801166  LPSA32    27             19.0000000000
     35301      1143  BGLCNA    CT            -37.5743668462       24.4076330202       96.0293745529  LPSA32    27             19.0000000000
     35302      1143  BGLCNA    HT1           -38.3431184747       24.8861203368       95.3635606282  LPSA32    27             19.0000000000
     35303      1143  BGLCNA    HT2           -37.9518974518       24.2605725208       97.0167906789  LPSA32    27             19.0000000000
     35304      1143  BGLCNA    HT3           -37.3436455280       23.3186623184       95.7039804309  LPSA32    27             19.0000000000
     35305      1143  BGLCNA    C3            -34.5965616900       28.0552390339       95.7540348103  LPSA32    27             19.0000000000
     35306      1143  BGLCNA    H3            -35.2983470092       28.9259723206       95.7401190096  LPSA32    27             19.0000000000
     35307      1143  BGLCNA    O3            -34.5967333403       27.4195933389       97.0775356047  LPSA32    27             19.0000000000
     35308      1143  BGLCNA    C4            -33.2273660794       28.6351312045       95.3486864533  LPSA32    27             19.0000000000
     35309      1143  BGLCNA    H4            -32.4755069662       27.8136140161       95.3090014479  LPSA32    27             19.0000000000
     35310      1143  BGLCNA    O4            -32.8156305258       29.6271011119       96.2156872787  LPSA32    27             19.0000000000
     35311      1143  BGLCNA    HO4           -33.3917972555       30.3375791519       96.0162444362  LPSA32    27             19.0000000000
     35312      1143  BGLCNA    C6            -32.1768116283       29.8091050787       93.2852949846  LPSA32    27             19.0000000000
     35313      1143  BGLCNA    H61           -32.0003603957       30.7257429197       93.8557506920  LPSA32    27             19.0000000000
     35314      1143  BGLCNA    H62           -31.2685855262       29.1891120267       93.4725180191  LPSA32    27             19.0000000000
     35315      1143  BGLCNA    O6            -32.4062415001       30.0535447360       91.9076175409  LPSA32    27             19.0000000000
     35316      1143  BGLCNA    HO6           -31.5901938770       30.4465232174       91.5273290588  LPSA32    27             19.0000000000
     35317      1144  AGAL      C1            -34.5672677685       28.2510956529       98.2622020222  LPSA32    28             20.0000000000
     35318      1144  AGAL      H1            -33.6194659314       28.7164878638       98.3007149491  LPSA32    28             20.0000000000
     35319      1144  AGAL      C5            -36.9121242922       28.8607014084       98.1710438288  LPSA32    28             20.0000000000
     35320      1144  AGAL      H5            -37.0823610694       27.9145417839       97.4646141937  LPSA32    28             20.0000000000
     35321      1144  AGAL      O5            -35.4998013457       29.3197041303       98.1147365872  LPSA32    28             20.0000000000
     35322      1144  AGAL      C2            -34.8638413017       27.5903725127       99.6197190629  LPSA32    28             20.0000000000
     35323      1144  AGAL      H2            -34.7746866609       28.4375269699      100.2965066153  LPSA32    28             20.0000000000
     35324      1144  AGAL      O2            -33.9336313084       26.6214356516      100.0788731798  LPSA32    28             20.0000000000
     35325      1144  AGAL      C3            -36.2768134972       27.1124632772       99.7396972452  LPSA32    28             20.0000000000
     35326      1144  AGAL      H3            -36.4775824973       26.4225054336       98.8607737785  LPSA32    28             20.0000000000
     35327      1144  AGAL      O3            -36.6659785647       26.3584608198      100.9043404272  LPSA32    28             20.0000000000
     35328      1144  AGAL      HO3           -36.9164182085       25.4788974056      100.5606486229  LPSA32    28             20.0000000000
     35329      1144  AGAL      C4            -37.1889376494       28.2503120450       99.5102226768  LPSA32    28             20.0000000000
     35330      1144  AGAL      H4            -38.1825450211       27.8712081805       99.4798298294  LPSA32    28             20.0000000000
     35331      1144  AGAL      O4            -37.0983658535       29.2487605361      100.4757933835  LPSA32    28             20.0000000000
     35332      1144  AGAL      HO4           -37.8292249701       29.1261470871      101.0376442747  LPSA32    28             20.0000000000
     35333      1144  AGAL      C6            -37.9336552963       29.8682361551       97.6362902244  LPSA32    28             20.0000000000
     35334      1144  AGAL      H61           -37.7380159581       30.0468051228       96.5809275898  LPSA32    28             20.0000000000
     35335      1144  AGAL      H62           -39.0455642776       29.5994391090       97.7651048223  LPSA32    28             20.0000000000
     35336      1144  AGAL      O6            -37.8150874507       31.0840273714       98.3456070822  LPSA32    28             20.0000000000
     35337      1144  AGAL      HO6           -37.1469609638       31.6393082059       97.9416813930  LPSA32    28             20.0000000000
     35338      1145  ARHM      C1            -33.6639007423       26.8574488122      101.4808913342  LPSA32    29             21.0000000000
     35339      1145  ARHM      H1            -34.5526871183       27.3464748186      101.9964955809  LPSA32    29             21.0000000000
     35340      1145  ARHM      C5            -31.3546806235       27.1229875696      101.1486206043  LPSA32    29             21.0000000000
     35341      1145  ARHM      H5            -31.5904160252       26.8791109103      100.0935446791  LPSA32    29             21.0000000000
     35342      1145  ARHM      O5            -32.5327357449       27.6564305422      101.6833506475  LPSA32    29             21.0000000000
     35343      1145  ARHM      C2            -33.5211119097       25.5599361374      102.1437305515  LPSA32    29             21.0000000000
     35344      1145  ARHM      H2            -34.3317510422       24.9017797985      101.9067628034  LPSA32    29             21.0000000000
     35345      1145  ARHM      O2            -33.4523548988       25.6857712116      103.5748524404  LPSA32    29             21.0000000000
     35346      1145  ARHM      C3            -32.2603150965       24.9255089237      101.6289418068  LPSA32    29             21.0000000000
     35347      1145  ARHM      H3            -32.3909206305       24.6950343450      100.4952263366  LPSA32    29             21.0000000000
     35348      1145  ARHM      O3            -32.1460080464       23.6501957126      102.1995749427  LPSA32    29             21.0000000000
     35349      1145  ARHM      HO3           -31.2679152077       23.4696657326      102.2092645043  LPSA32    29             21.0000000000
     35350      1145  ARHM      C4            -31.0613825880       25.7451236315      101.8247918557  LPSA32    29             21.0000000000
     35351      1145  ARHM      H4            -30.8337003472       25.9033395732      102.9338171738  LPSA32    29             21.0000000000
     35352      1145  ARHM      O4            -29.8047682961       25.2152258633      101.3452167393  LPSA32    29             21.0000000000
     35353      1145  ARHM      HO4           -29.8589892143       24.7913475435      100.4362974805  LPSA32    29             21.0000000000
     35354      1145  ARHM      C6            -30.2917525522       28.2338527076      101.2162231226  LPSA32    29             21.0000000000
     35355      1145  ARHM      H61           -30.8439153481       29.1376945546      100.7685423143  LPSA32    29             21.0000000000
     35356      1145  ARHM      H62           -30.0666605010       28.4517804801      102.3013153741  LPSA32    29             21.0000000000
     35357      1145  ARHM      H63           -29.4315000998       27.9356082113      100.6072571094  LPSA32    29             21.0000000000
     35358      1146  ARHM      C1            -34.5626488427       25.5022511502      104.3945976075  LPSA32    30             22.0000000000
     35359      1146  ARHM      H1            -34.9743336900       24.4858043784      104.2094096401  LPSA32    30             22.0000000000
     35360      1146  ARHM      C5            -35.1401329478       27.8636046167      104.5143062533  LPSA32    30             22.0000000000
     35361      1146  ARHM      H5            -34.1834836259       27.9354912887      103.8668162917  LPSA32    30             22.0000000000
     35362      1146  ARHM      O5            -35.5778797444       26.5105084716      104.2052433351  LPSA32    30             22.0000000000
     35363      1146  ARHM      C2            -34.1251262790       25.5574303175      105.8471183130  LPSA32    30             22.0000000000
     35364      1146  ARHM      H2            -33.3772815466       24.8561575888      106.0289718167  LPSA32    30             22.0000000000
     35365      1146  ARHM      O2            -35.2848839773       25.3571483053      106.5813641610  LPSA32    30             22.0000000000
     35366      1146  ARHM      C3            -33.6866121434       26.8981075725      106.2079894766  LPSA32    30             22.0000000000
     35367      1146  ARHM      H3            -32.9393440692       27.2039774711      105.5270001340  LPSA32    30             22.0000000000
     35368      1146  ARHM      O3            -33.1007453732       26.9855299097      107.5373891676  LPSA32    30             22.0000000000
     35369      1146  ARHM      C4            -34.7731136782       27.9522279053      105.9708288384  LPSA32    30             22.0000000000
     35370      1146  ARHM      H4            -35.6853109908       27.7619011279      106.5400372406  LPSA32    30             22.0000000000
     35371      1146  ARHM      O4            -34.4449242942       29.2286697139      106.2997755749  LPSA32    30             22.0000000000
     35372      1146  ARHM      HO4           -33.9067017268       29.7571890282      105.6964454668  LPSA32    30             22.0000000000
     35373      1146  ARHM      C6            -36.1889498316       28.8574452429      104.0930490251  LPSA32    30             22.0000000000
     35374      1146  ARHM      H61           -35.7368939971       29.8810035383      104.2143179997  LPSA32    30             22.0000000000
     35375      1146  ARHM      H62           -36.3261676030       28.7865262602      103.0019050467  LPSA32    30             22.0000000000
     35376      1146  ARHM      H63           -37.1737118798       28.7513310615      104.6493652223  LPSA32    30             22.0000000000
     35377      1147  BMANNA    C1            -35.5615892042       24.0243334174      106.9502319096  LPSA32    31             23.0000000000
     35378      1147  BMANNA    H1            -34.5897889674       23.5217325953      107.1550799008  LPSA32    31             23.0000000000
     35379      1147  BMANNA    C5            -36.4645938397       21.8905570648      106.2136717625  LPSA32    31             23.0000000000
     35380      1147  BMANNA    H5            -35.4887551779       21.5096521659      106.5467054000  LPSA32    31             23.0000000000
     35381      1147  BMANNA    O5            -36.2368629042       23.2896449725      105.8742289322  LPSA32    31             23.0000000000
     35382      1147  BMANNA    C2            -36.4342102240       24.0043617599      108.0830629221  LPSA32    31             23.0000000000
     35383      1147  BMANNA    H2            -35.8502821624       24.4641982962      108.9031915743  LPSA32    31             23.0000000000
     35384      1147  BMANNA    N             -37.5595336649       24.8347546035      107.8252935315  LPSA32    31             23.0000000000
     35385      1147  BMANNA    HN            -37.8237675426       24.9756621805      106.8111160773  LPSA32    31             23.0000000000
     35386      1147  BMANNA    C             -38.2401128921       25.4638960277      108.7868858964  LPSA32    31             23.0000000000
     35387      1147  BMANNA    O             -37.8925387687       25.4282124585      109.9536662434  LPSA32    31             23.0000000000
     35388      1147  BMANNA    CT            -39.4767562343       26.2492175440      108.3237946568  LPSA32    31             23.0000000000
     35389      1147  BMANNA    HT1           -39.9644635997       25.6800537276      107.5739831696  LPSA32    31             23.0000000000
     35390      1147  BMANNA    HT2           -39.1307208183       27.2129437804      107.9347099034  LPSA32    31             23.0000000000
     35391      1147  BMANNA    HT3           -40.1175478961       26.5225799524      109.1768357935  LPSA32    31             23.0000000000
     35392      1147  BMANNA    C3            -36.6909606432       22.5898566532      108.4884560283  LPSA32    31             23.0000000000
     35393      1147  BMANNA    H3            -35.7115345004       22.0175823424      108.6988550870  LPSA32    31             23.0000000000
     35394      1147  BMANNA    O3            -37.3730985124       22.5114745771      109.7404994872  LPSA32    31             23.0000000000
     35395      1147  BMANNA    HO3           -37.1711740770       23.3880367348      110.0111610137  LPSA32    31             23.0000000000
     35396      1147  BMANNA    C4            -37.4065264018       21.8659514106      107.4199857710  LPSA32    31             23.0000000000
     35397      1147  BMANNA    H4            -38.4403152602       22.3310350745      107.0572414185  LPSA32    31             23.0000000000
     35398      1147  BMANNA    O4            -37.7119675027       20.5483219726      107.8525671122  LPSA32    31             23.0000000000
     35399      1147  BMANNA    HO4           -36.9204677639       20.0751819231      108.1943429300  LPSA32    31             23.0000000000
     35400      1147  BMANNA    C6            -37.0484631430       21.0709203786      105.0512686782  LPSA32    31             23.0000000000
     35401      1147  BMANNA    H61           -36.9874819939       19.9460099883      105.3397811046  LPSA32    31             23.0000000000
     35402      1147  BMANNA    H62           -38.0973741329       21.2870695543      104.8698551944  LPSA32    31             23.0000000000
     35403      1147  BMANNA    O6            -36.3248610177       21.2884631441      103.8241467834  LPSA32    31             23.0000000000
     35404      1147  BMANNA    HO6           -35.4095976723       20.8877975001      103.8134147631  LPSA32    31             23.0000000000
     35405      1148  BGLCNA    C1            -33.9776074629       27.0789192077      108.6103969990  LPSA32    32             23.0000000000
     35406      1148  BGLCNA    H1            -34.9227466163       26.4734183675      108.4325564695  LPSA32    32             23.0000000000
     35407      1148  BGLCNA    C5            -35.4190836731       28.5037864050      109.9277617404  LPSA32    32             23.0000000000
     35408      1148  BGLCNA    H5            -36.2796714443       27.8485783603      109.5374749077  LPSA32    32             23.0000000000
     35409      1148  BGLCNA    O5            -34.3874422990       28.4062086059      108.9423333575  LPSA32    32             23.0000000000
     35410      1148  BGLCNA    C2            -33.3896371493       26.4942620789      109.8194522937  LPSA32    32             23.0000000000
     35411      1148  BGLCNA    H2            -32.6316819855       27.1848154452      110.1044894257  LPSA32    32             23.0000000000
     35412      1148  BGLCNA    N             -32.8311729822       25.2041373726      109.5956973249  LPSA32    32             23.0000000000
     35413      1148  BGLCNA    HN            -33.3802658054       24.7256127501      108.8809076996  LPSA32    32             23.0000000000
     35414      1148  BGLCNA    C             -31.6960803047       24.6570463723      110.0864625708  LPSA32    32             23.0000000000
     35415      1148  BGLCNA    O             -31.0029458360       25.2253249863      110.9304085025  LPSA32    32             23.0000000000
     35416      1148  BGLCNA    CT            -31.3172063852       23.2462295889      109.5841031968  LPSA32    32             23.0000000000
     35417      1148  BGLCNA    HT1           -31.9924045364       23.1890890023      108.6281101354  LPSA32    32             23.0000000000
     35418      1148  BGLCNA    HT2           -31.6145083065       22.4275191025      110.1898124037  LPSA32    32             23.0000000000
     35419      1148  BGLCNA    HT3           -30.2369257053       23.1599336229      109.3122359934  LPSA32    32             23.0000000000
     35420      1148  BGLCNA    C3            -34.4368255032       26.4707299619      110.8930231790  LPSA32    32             23.0000000000
     35421      1148  BGLCNA    H3            -35.2687785002       25.9929858351      110.4606187373  LPSA32    32             23.0000000000
     35422      1148  BGLCNA    O3            -34.0681609473       25.7266163646      112.0657798240  LPSA32    32             23.0000000000
     35423      1148  BGLCNA    C4            -34.8213531019       27.8982780668      111.1707572500  LPSA32    32             23.0000000000
     35424      1148  BGLCNA    H4            -33.8966709837       28.4254625848      111.5318289610  LPSA32    32             23.0000000000
     35425      1148  BGLCNA    O4            -35.7633450834       27.9885625675      112.2070236435  LPSA32    32             23.0000000000
     35426      1148  BGLCNA    HO4           -35.3452289465       28.0867264573      113.0745323218  LPSA32    32             23.0000000000
     35427      1148  BGLCNA    C6            -35.9085767536       29.9337696048      110.0229508171  LPSA32    32             23.0000000000
     35428      1148  BGLCNA    H61           -36.8222099388       30.0206278615      110.7194343748  LPSA32    32             23.0000000000
     35429      1148  BGLCNA    H62           -35.1077003564       30.5720323567      110.5717638480  LPSA32    32             23.0000000000
     35430      1148  BGLCNA    O6            -36.3108821848       30.4503848795      108.7709294272  LPSA32    32             23.0000000000
     35431      1148  BGLCNA    HO6           -36.7435056036       29.7368892204      108.2360311317  LPSA32    32             23.0000000000
     35432      1149  AGAL      C1            -35.1531286157       24.9844784083      112.6842874521  LPSA32    33             24.0000000000
     35433      1149  AGAL      H1            -36.0434255175       25.6122178008      112.5979959475  LPSA32    33             24.0000000000
     35434      1149  AGAL      C5            -34.2342682086       22.8471507735      112.2149219831  LPSA32    33             24.0000000000
     35435      1149  AGAL      H5            -33.3822284602       23.4647913408      111.8792915250  LPSA32    33             24.0000000000
     35436      1149  AGAL      O5            -35.3707158151       23.6739773772      112.0726784748  LPSA32    33             24.0000000000
     35437      1149  AGAL      C2            -34.7741117295       24.7720104026      114.1482787662  LPSA32    33             24.0000000000
     35438      1149  AGAL      H2            -35.6090108429       24.0923831407      114.5751854976  LPSA32    33             24.0000000000
     35439      1149  AGAL      O2            -34.9291013705       25.9920078661      114.8486222260  LPSA32    33             24.0000000000
     35440      1149  AGAL      C3            -33.5779722422       23.8645340299      114.2945545625  LPSA32    33             24.0000000000
     35441      1149  AGAL      H3            -32.6783552923       24.3018952872      113.7405815065  LPSA32    33             24.0000000000
     35442      1149  AGAL      O3            -33.0837266630       23.7844568599      115.5672660328  LPSA32    33             24.0000000000
     35443      1149  AGAL      HO3           -33.6918367509       23.5613710766      116.2400186851  LPSA32    33             24.0000000000
     35444      1149  AGAL      C4            -33.8496566769       22.5150372326      113.6708488317  LPSA32    33             24.0000000000
     35445      1149  AGAL      H4            -32.9507385828       21.8867100047      113.6729875792  LPSA32    33             24.0000000000
     35446      1149  AGAL      O4            -34.8923352138       21.6926132477      114.2435538900  LPSA32    33             24.0000000000
     35447      1149  AGAL      HO4           -35.3993645407       22.1432734034      114.9085525172  LPSA32    33             24.0000000000
     35448      1149  AGAL      C6            -34.2877005218       21.6472408914      111.2992528405  LPSA32    33             24.0000000000
     35449      1149  AGAL      H61           -34.3028607202       22.0798241169      110.2783408757  LPSA32    33             24.0000000000
     35450      1149  AGAL      H62           -33.4333347492       20.9457905399      111.3458027743  LPSA32    33             24.0000000000
     35451      1149  AGAL      O6            -35.3762192929       20.7852711538      111.4129476537  LPSA32    33             24.0000000000
     35452      1149  AGAL      HO6           -36.1452034868       21.0444612404      110.8444757795  LPSA32    33             24.0000000000
     35453      1150  ARHM      C1            -35.6884846693       25.9069487433      116.0109133884  LPSA32    34             25.0000000000
     35454      1150  ARHM      H1            -35.4042751517       25.0453460544      116.6389743656  LPSA32    34             25.0000000000
     35455      1150  ARHM      C5            -37.7313259980       26.7986412483      115.0727799907  LPSA32    34             25.0000000000
     35456      1150  ARHM      H5            -37.2506016932       26.7832023157      114.0209633333  LPSA32    34             25.0000000000
     35457      1150  ARHM      O5            -37.1164015551       25.7419076310      115.8926868953  LPSA32    34             25.0000000000
     35458      1150  ARHM      C2            -35.3699653265       27.1704716675      116.7601555753  LPSA32    34             25.0000000000
     35459      1150  ARHM      H2            -34.2783428497       27.4135629575      116.8710959342  LPSA32    34             25.0000000000
     35460      1150  ARHM      O2            -35.9108450050       27.2252295713      118.1592972339  LPSA32    34             25.0000000000
     35461      1150  ARHM      C3            -35.9781890282       28.3393737703      115.9988665506  LPSA32    34             25.0000000000
     35462      1150  ARHM      H3            -35.5851233368       28.3945990911      114.9724172480  LPSA32    34             25.0000000000
     35463      1150  ARHM      O3            -35.7782624886       29.6473866345      116.5878695042  LPSA32    34             25.0000000000
     35464      1150  ARHM      HO3           -35.6139363063       30.3401748647      115.9559434517  LPSA32    34             25.0000000000
     35465      1150  ARHM      C4            -37.5094354085       28.1742291153      115.7987835878  LPSA32    34             25.0000000000
     35466      1150  ARHM      H4            -38.0408127179       28.0032866478      116.7495315617  LPSA32    34             25.0000000000
     35467      1150  ARHM      O4            -38.0891422380       29.2371033292      115.1362621200  LPSA32    34             25.0000000000
     35468      1150  ARHM      HO4           -38.1991209301       30.0028444102      115.6953140327  LPSA32    34             25.0000000000
     35469      1150  ARHM      C6            -39.2626945170       26.5364563737      114.8413279703  LPSA32    34             25.0000000000
     35470      1150  ARHM      H61           -39.8772859078       26.5556055866      115.7172490283  LPSA32    34             25.0000000000
     35471      1150  ARHM      H62           -39.6832477154       27.4569832864      114.3996926230  LPSA32    34             25.0000000000
     35472      1150  ARHM      H63           -39.5263413243       25.7072214241      114.1590834060  LPSA32    34             25.0000000000
     35473      1151  ARHM      C1            -35.4914197625       26.1967417112      119.0795908573  LPSA32    35             26.0000000000
     35474      1151  ARHM      H1            -34.3633429357       25.9673530734      118.8787348947  LPSA32    35             26.0000000000
     35475      1151  ARHM      C5            -37.6818589299       25.1587167729      119.2408916176  LPSA32    35             26.0000000000
     35476      1151  ARHM      H5            -38.1409980443       25.9542373169      118.5254732223  LPSA32    35             26.0000000000
     35477      1151  ARHM      O5            -36.2550651242       24.9263082453      118.9290334222  LPSA32    35             26.0000000000
     35478      1151  ARHM      C2            -35.6218495071       26.6993700365      120.5365485050  LPSA32    35             26.0000000000
     35479      1151  ARHM      H2            -34.9572225361       27.5922750895      120.7134209997  LPSA32    35             26.0000000000
     35480      1151  ARHM      O2            -35.1934079810       25.7238971633      121.4126203716  LPSA32    35             26.0000000000
     35481      1151  ARHM      C3            -37.0982579959       27.0081364381      120.8720061906  LPSA32    35             26.0000000000
     35482      1151  ARHM      H3            -37.4183906709       27.8149869016      120.1344793452  LPSA32    35             26.0000000000
     35483      1151  ARHM      O3            -37.2283242812       27.5865290131      122.1540075829  LPSA32    35             26.0000000000
     35484      1151  ARHM      HO3           -36.5594708537       27.2081200704      122.7288731339  LPSA32    35             26.0000000000
     35485      1151  ARHM      C4            -37.8749762032       25.7347316871      120.6788917534  LPSA32    35             26.0000000000
     35486      1151  ARHM      H4            -37.5304078183       24.8851488247      121.3307119103  LPSA32    35             26.0000000000
     35487      1151  ARHM      O4            -39.2539875291       26.0512428020      120.9693790153  LPSA32    35             26.0000000000
     35488      1151  ARHM      HO4           -39.5650558010       26.8912385675      120.5581709812  LPSA32    35             26.0000000000
     35489      1151  ARHM      C6            -38.5108613541       23.8827995226      118.8642347863  LPSA32    35             26.0000000000
     35490      1151  ARHM      H61           -38.4930670105       23.7010960767      117.7433556958  LPSA32    35             26.0000000000
     35491      1151  ARHM      H62           -37.9986672194       23.1110150163      119.4176110492  LPSA32    35             26.0000000000
     35492      1151  ARHM      H63           -39.5937438536       24.1276730170      119.0633705917  LPSA32    35             26.0000000000
     35493      1152  BMANNA    C1            -33.8202001663       25.4760217530      121.4471464502  LPSA32    36             27.0000000000
     35494      1152  BMANNA    H1            -33.2378202862       26.3613552219      121.0972061898  LPSA32    36             27.0000000000
     35495      1152  BMANNA    C5            -31.8181890973       24.3218670443      120.7299884793  LPSA32    36             27.0000000000
     35496      1152  BMANNA    H5            -31.4255032230       25.3009681457      120.4610684421  LPSA32    36             27.0000000000
     35497      1152  BMANNA    O5            -33.2790220230       24.3755369387      120.6641532654  LPSA32    36             27.0000000000
     35498      1152  BMANNA    C2            -33.4134900962       25.2310124563      122.8920138725  LPSA32    36             27.0000000000
     35499      1152  BMANNA    H2            -33.7445007878       26.1127950092      123.4719477421  LPSA32    36             27.0000000000
     35500      1152  BMANNA    N             -34.1030004642       24.0631236456      123.4395449790  LPSA32    36             27.0000000000
     35501      1152  BMANNA    HN            -34.1967099708       23.2376284863      122.8746519580  LPSA32    36             27.0000000000
     35502      1152  BMANNA    C             -34.3478866711       23.9598637912      124.7737151700  LPSA32    36             27.0000000000
     35503      1152  BMANNA    O             -34.1852388870       24.8456977545      125.6190347561  LPSA32    36             27.0000000000
     35504      1152  BMANNA    CT            -34.8162883877       22.6558197261      125.3570716528  LPSA32    36             27.0000000000
     35505      1152  BMANNA    HT1           -34.2993863945       21.8172847353      124.8802869227  LPSA32    36             27.0000000000
     35506      1152  BMANNA    HT2           -35.9077401173       22.4464530798      125.1731404614  LPSA32    36             27.0000000000
     35507      1152  BMANNA    HT3           -34.7458807400       22.5617833939      126.4547536948  LPSA32    36             27.0000000000
     35508      1152  BMANNA    C3            -31.9127295103       25.1208878113      122.9763638711  LPSA32    36             27.0000000000
     35509      1152  BMANNA    H3            -31.4394958260       26.0523236923      122.6403873786  LPSA32    36             27.0000000000
     35510      1152  BMANNA    O3            -31.4531728536       24.9422031492      124.3414054450  LPSA32    36             27.0000000000
     35511      1152  BMANNA    HO3           -30.9190678137       25.6341111720      124.7171830083  LPSA32    36             27.0000000000
     35512      1152  BMANNA    C4            -31.3929440830       24.0316615095      122.1146940524  LPSA32    36             27.0000000000
     35513      1152  BMANNA    H4            -31.7370117901       23.0707686654      122.4263894750  LPSA32    36             27.0000000000
     35514      1152  BMANNA    O4            -29.9750267167       23.9179133988      122.2172873890  LPSA32    36             27.0000000000
     35515      1152  BMANNA    HO4           -29.9322735562       23.7934952004      123.1985163392  LPSA32    36             27.0000000000
     35516      1152  BMANNA    C6            -31.3309515093       23.3401480270      119.7412642597  LPSA32    36             27.0000000000
     35517      1152  BMANNA    H61           -31.5999153712       23.6342811354      118.6946701192  LPSA32    36             27.0000000000
     35518      1152  BMANNA    H62           -30.2460884365       23.4796911184      119.7045442506  LPSA32    36             27.0000000000
     35519      1152  BMANNA    O6            -31.7018888031       21.9582716134      120.0914698020  LPSA32    36             27.0000000000
     35520      1152  BMANNA    HO6           -30.9858787964       21.6302287797      120.6476247167  LPSA32    36             27.0000000000
     35521      1153  ECLIPA    HB6S          -38.9625624340      -27.8588175750       20.4612168218  LPSA33    1               0.0000000000
     35522      1153  ECLIPA    OB6           -40.0747836973      -28.9792769537       21.7140249152  LPSA33    1               0.0000000000
     35523      1153  ECLIPA    CB6           -39.0057758507      -28.8862183298       20.7042159014  LPSA33    1               0.0000000000
     35524      1153  ECLIPA    HB6R          -38.1029572916      -29.3524846384       21.0541931349  LPSA33    1               0.0000000000
     35525      1153  ECLIPA    CB5           -39.3354075001      -29.7253523681       19.3988764877  LPSA33    1               0.0000000000
     35526      1153  ECLIPA    OB5           -40.6667132593      -29.2274737256       18.9716901872  LPSA33    1               0.0000000000
     35527      1153  ECLIPA    HB5           -39.4595292530      -30.7573699759       19.7771798410  LPSA33    1               0.0000000000
     35528      1153  ECLIPA    CB1           -41.0874329806      -29.9172405585       17.7717324898  LPSA33    1               0.0000000000
     35529      1153  ECLIPA    HB1           -41.1768469166      -31.0183131176       17.9003641080  LPSA33    1               0.0000000000
     35530      1153  ECLIPA    OA6           -42.3081875885      -29.4114095115       17.3217246577  LPSA33    1               0.0000000000
     35531      1153  ECLIPA    CA6           -42.6433027904      -28.0302453194       17.5745106853  LPSA33    1               0.0000000000
     35532      1153  ECLIPA    HA6R          -41.7006248330      -27.4653497416       17.7226451425  LPSA33    1               0.0000000000
     35533      1153  ECLIPA    HA6S          -43.3964472441      -28.0088933227       18.4598965841  LPSA33    1               0.0000000000
     35534      1153  ECLIPA    CB4           -38.2462759492      -29.5622382983       18.3206521937  LPSA33    1               0.0000000000
     35535      1153  ECLIPA    HB4           -38.1400155298      -28.5019938295       18.0085584641  LPSA33    1               0.0000000000
     35536      1153  ECLIPA    OB4           -37.1181481516      -30.2521836924       18.9017319965  LPSA33    1               0.0000000000
     35537      1153  ECLIPA    PB            -35.8091962681      -29.4151582443       19.3234616795  LPSA33    1               0.0000000000
     35538      1153  ECLIPA    OPB4          -35.2054113725      -30.1102623622       20.5579515876  LPSA33    1               0.0000000000
     35539      1153  ECLIPA    OPB3          -36.4345056121      -28.0398907564       19.6614545037  LPSA33    1               0.0000000000
     35540      1153  ECLIPA    OPB2          -34.9080888381      -29.3244591891       18.0829495795  LPSA33    1               0.0000000000
     35541      1153  ECLIPA    CB3           -38.7554939831      -30.2969431308       17.0955893951  LPSA33    1               0.0000000000
     35542      1153  ECLIPA    OB3           -37.9347215251      -30.1943399256       15.9186528231  LPSA33    1               0.0000000000
     35543      1153  ECLIPA    HB3           -39.0624858365      -31.3618706040       17.3284540628  LPSA33    1               0.0000000000
     35544      1153  ECLIPA    C71           -37.0573080326      -31.1142545064       15.6929469039  LPSA33    1               0.0000000000
     35545      1153  ECLIPA    O71           -36.9383372347      -32.1530499083       16.3832172580  LPSA33    1               0.0000000000
     35546      1153  ECLIPA    C72           -36.3508494011      -30.7725087100       14.3548430386  LPSA33    1               0.0000000000
     35547      1153  ECLIPA    H72R          -37.1092466785      -30.6968863382       13.5774555414  LPSA33    1               0.0000000000
     35548      1153  ECLIPA    H72S          -35.5210116951      -31.5715231738       14.1464415926  LPSA33    1               0.0000000000
     35549      1153  ECLIPA    CB2           -40.1083074448      -29.6910542440       16.6720734084  LPSA33    1               0.0000000000
     35550      1153  ECLIPA    HB2           -39.9125947933      -28.5340494980       16.5298168153  LPSA33    1               0.0000000000
     35551      1153  ECLIPA    NB2           -40.6676595524      -30.3224136547       15.4577284722  LPSA33    1               0.0000000000
     35552      1153  ECLIPA    HNB2          -41.1982193303      -31.1574580795       15.5965609326  LPSA33    1               0.0000000000
     35553      1153  ECLIPA    CA4           -44.3593461009      -28.4101796234       15.7929312798  LPSA33    1               0.0000000000
     35554      1153  ECLIPA    HA4           -43.8650549397      -29.3683887854       15.4903430209  LPSA33    1               0.0000000000
     35555      1153  ECLIPA    OA4           -45.2920556619      -28.6578449758       16.8012065728  LPSA33    1               0.0000000000
     35556      1153  ECLIPA    HOA4          -44.8973270921      -28.8872737840       17.5928838569  LPSA33    1               0.0000000000
     35557      1153  ECLIPA    CA5           -43.3485301340      -27.5003791766       16.3547806008  LPSA33    1               0.0000000000
     35558      1153  ECLIPA    HA5           -43.6804858282      -26.4054857271       16.5880746347  LPSA33    1               0.0000000000
     35559      1153  ECLIPA    OA5           -42.3202364414      -27.3329779647       15.3689671688  LPSA33    1               0.0000000000
     35560      1153  ECLIPA    CA1           -42.8608426049      -26.8004482466       14.1076640156  LPSA33    1               0.0000000000
     35561      1153  ECLIPA    HA1           -42.0161629004      -27.0607802313       13.4118188108  LPSA33    1               0.0000000000
     35562      1153  ECLIPA    OA1           -43.0461807289      -25.3987677805       14.1359876212  LPSA33    1               0.0000000000
     35563      1153  ECLIPA    OPA2          -42.5530179004      -23.9163618546       15.9734101064  LPSA33    1               0.0000000000
     35564      1153  ECLIPA    OPA3          -40.6104713910      -25.1076837535       14.8300177673  LPSA33    1               0.0000000000
     35565      1153  ECLIPA    OPA4          -41.7988578100      -23.3087659749       13.6615320840  LPSA33    1               0.0000000000
     35566      1153  ECLIPA    PA            -41.9360659277      -24.4213505624       14.6765383084  LPSA33    1               0.0000000000
     35567      1153  ECLIPA    CA3           -45.0125175826      -27.8864161566       14.5219348229  LPSA33    1               0.0000000000
     35568      1153  ECLIPA    HA3           -45.6058662473      -26.9133882480       14.7377032538  LPSA33    1               0.0000000000
     35569      1153  ECLIPA    OA3           -46.0408928544      -28.8212209007       14.2498111976  LPSA33    1               0.0000000000
     35570      1153  ECLIPA    C31           -45.6839195477      -29.9128595380       13.5006246295  LPSA33    1               0.0000000000
     35571      1153  ECLIPA    O31           -45.5197264710      -29.9408428111       12.2941239937  LPSA33    1               0.0000000000
     35572      1153  ECLIPA    C32           -46.0412744417      -31.1879420330       14.2780289507  LPSA33    1               0.0000000000
     35573      1153  ECLIPA    H32R          -46.8251824619      -31.7288224162       13.7149713840  LPSA33    1               0.0000000000
     35574      1153  ECLIPA    H32S          -46.3948425466      -30.9292970100       15.2729523512  LPSA33    1               0.0000000000
     35575      1153  ECLIPA    CA2           -43.9083363845      -27.7030254765       13.4984733916  LPSA33    1               0.0000000000
     35576      1153  ECLIPA    HA2           -43.3961661621      -28.6634981160       13.3982259915  LPSA33    1               0.0000000000
     35577      1153  ECLIPA    NA2           -44.3840512561      -27.1718958883       12.2035087571  LPSA33    1               0.0000000000
     35578      1153  ECLIPA    HNA2          -45.3471952372      -27.1397344476       12.0865030408  LPSA33    1               0.0000000000
     35579      1153  ECLIPA    C73           -35.6085957446      -29.4614061304       14.3319064372  LPSA33    1               0.0000000000
     35580      1153  ECLIPA    H73R          -35.0139895269      -29.2963037221       15.2227416964  LPSA33    1               0.0000000000
     35581      1153  ECLIPA    O73           -36.6152755810      -28.4210108708       14.2644256719  LPSA33    1               0.0000000000
     35582      1153  ECLIPA    C81           -36.5069790458      -27.2194342707       14.8555734565  LPSA33    1               0.0000000000
     35583      1153  ECLIPA    O81           -35.5505051262      -27.0220399029       15.6690894779  LPSA33    1               0.0000000000
     35584      1153  ECLIPA    C82           -37.5805232630      -26.2339046379       14.3536111794  LPSA33    1               0.0000000000
     35585      1153  ECLIPA    H82R          -37.5058978641      -25.2732449930       14.8531840528  LPSA33    1               0.0000000000
     35586      1153  ECLIPA    H82S          -38.6087658587      -26.6243461182       14.5323473422  LPSA33    1               0.0000000000
     35587      1153  ECLIPA    C83           -37.4360430031      -26.0307324495       12.8301722806  LPSA33    1               0.0000000000
     35588      1153  ECLIPA    H83R          -37.9376922366      -26.8833204829       12.2351841548  LPSA33    1               0.0000000000
     35589      1153  ECLIPA    H83S          -36.3784976839      -26.1560005350       12.5911296392  LPSA33    1               0.0000000000
     35590      1153  ECLIPA    C84           -38.1108510852      -24.7469647676       12.3050927261  LPSA33    1               0.0000000000
     35591      1153  ECLIPA    H84R          -37.4812918089      -23.8907629315       12.5767117503  LPSA33    1               0.0000000000
     35592      1153  ECLIPA    H84S          -39.0885282991      -24.7732663813       12.7369555497  LPSA33    1               0.0000000000
     35593      1153  ECLIPA    C85           -38.2866731223      -24.7960993248       10.7695484051  LPSA33    1               0.0000000000
     35594      1153  ECLIPA    H85R          -38.6449387071      -25.8102327872       10.5503608829  LPSA33    1               0.0000000000
     35595      1153  ECLIPA    H85S          -37.2909936231      -24.7094982738       10.2367999955  LPSA33    1               0.0000000000
     35596      1153  ECLIPA    C86           -39.3908516164      -23.8070033092       10.3034592726  LPSA33    1               0.0000000000
     35597      1153  ECLIPA    H86R          -38.9857111358      -22.7870736711        9.9932223571  LPSA33    1               0.0000000000
     35598      1153  ECLIPA    H86S          -40.1066584037      -23.6149958644       11.0807540114  LPSA33    1               0.0000000000
     35599      1153  ECLIPA    C87           -40.2807759629      -24.4049152537        9.1601018854  LPSA33    1               0.0000000000
     35600      1153  ECLIPA    H87R          -41.0068377266      -23.6807607660        8.8049419625  LPSA33    1               0.0000000000
     35601      1153  ECLIPA    H87S          -40.8929288285      -25.2667752502        9.5406723883  LPSA33    1               0.0000000000
     35602      1153  ECLIPA    C88           -39.4504847674      -24.9653215543        8.0318999685  LPSA33    1               0.0000000000
     35603      1153  ECLIPA    H88R          -38.9756623776      -25.9511968028        8.3479828359  LPSA33    1               0.0000000000
     35604      1153  ECLIPA    H88S          -38.5058632024      -24.3565806266        7.9254521495  LPSA33    1               0.0000000000
     35605      1153  ECLIPA    C89           -40.2398107592      -25.2410275999        6.7101000712  LPSA33    1               0.0000000000
     35606      1153  ECLIPA    H89R          -41.3381796737      -25.2808785245        6.8746682686  LPSA33    1               0.0000000000
     35607      1153  ECLIPA    H89S          -40.0014886504      -26.1715573359        6.2317001698  LPSA33    1               0.0000000000
     35608      1153  ECLIPA    C810          -39.8873424111      -24.1303554345        5.7047246593  LPSA33    1               0.0000000000
     35609      1153  ECLIPA    H810R         -38.8562844649      -23.8755963148        6.0108430704  LPSA33    1               0.0000000000
     35610      1153  ECLIPA    H810S         -40.5442773723      -23.2954175506        5.8554647029  LPSA33    1               0.0000000000
     35611      1153  ECLIPA    C811          -39.9491188086      -24.5214423112        4.2179945741  LPSA33    1               0.0000000000
     35612      1153  ECLIPA    H811R         -40.0266397512      -23.7449270696        3.5081125689  LPSA33    1               0.0000000000
     35613      1153  ECLIPA    H811S         -40.8216682574      -25.2747505501        4.1819101877  LPSA33    1               0.0000000000
     35614      1153  ECLIPA    C812          -38.8204497681      -25.4487100896        3.7413673409  LPSA33    1               0.0000000000
     35615      1153  ECLIPA    H812R         -39.0937516543      -25.7831334359        2.6403157337  LPSA33    1               0.0000000000
     35616      1153  ECLIPA    H812S         -38.6079519101      -26.2699173177        4.4144737196  LPSA33    1               0.0000000000
     35617      1153  ECLIPA    C813          -37.4339726106      -24.7817867315        3.6785234959  LPSA33    1               0.0000000000
     35618      1153  ECLIPA    H813R         -37.5182933735      -23.9498129989        2.9398073555  LPSA33    1               0.0000000000
     35619      1153  ECLIPA    H813S         -37.0557188730      -24.3121805929        4.6616087352  LPSA33    1               0.0000000000
     35620      1153  ECLIPA    C814          -36.3476112623      -25.6884190439        3.1377409857  LPSA33    1               0.0000000000
     35621      1153  ECLIPA    H814R         -36.6125232622      -26.2960450959        2.1719074593  LPSA33    1               0.0000000000
     35622      1153  ECLIPA    H814S         -36.0579612640      -26.4067762912        3.9166242729  LPSA33    1               0.0000000000
     35623      1153  ECLIPA    H814T         -35.4296859342      -25.1055228856        2.8964685373  LPSA33    1               0.0000000000
     35624      1153  ECLIPA    C74           -34.6798910185      -29.1606673549       13.1792855021  LPSA33    1               0.0000000000
     35625      1153  ECLIPA    H74R          -33.8222904677      -29.8048835788       12.9935747315  LPSA33    1               0.0000000000
     35626      1153  ECLIPA    H74S          -34.2570311020      -28.0883686835       13.3086690609  LPSA33    1               0.0000000000
     35627      1153  ECLIPA    C75           -35.4859794667      -29.0280742955       11.8151371119  LPSA33    1               0.0000000000
     35628      1153  ECLIPA    H75R          -34.9601676654      -28.2034683686       11.2107603889  LPSA33    1               0.0000000000
     35629      1153  ECLIPA    H75S          -36.5239137444      -28.6953148968       12.0082837783  LPSA33    1               0.0000000000
     35630      1153  ECLIPA    C76           -35.5352388065      -30.3004326590       10.9251453624  LPSA33    1               0.0000000000
     35631      1153  ECLIPA    H76R          -36.3030758339      -31.0006941685       11.3555905686  LPSA33    1               0.0000000000
     35632      1153  ECLIPA    H76S          -34.5466035078      -30.9211791446       10.9731137071  LPSA33    1               0.0000000000
     35633      1153  ECLIPA    C77           -35.8488398380      -30.1140648294        9.4191603634  LPSA33    1               0.0000000000
     35634      1153  ECLIPA    H77R          -35.0722516084      -29.4949232047        9.0408775908  LPSA33    1               0.0000000000
     35635      1153  ECLIPA    H77S          -36.7465511334      -29.4674229784        9.2852383479  LPSA33    1               0.0000000000
     35636      1153  ECLIPA    C78           -36.1000080225      -31.5077131541        8.8297405752  LPSA33    1               0.0000000000
     35637      1153  ECLIPA    H78R          -35.2826600148      -32.1497903973        9.1562620580  LPSA33    1               0.0000000000
     35638      1153  ECLIPA    H78S          -37.0569959916      -31.8433028946        9.3169442960  LPSA33    1               0.0000000000
     35639      1153  ECLIPA    C79           -36.4856067893      -31.4778059947        7.2570767761  LPSA33    1               0.0000000000
     35640      1153  ECLIPA    H79R          -37.6153398181      -31.5145680799        7.1763205913  LPSA33    1               0.0000000000
     35641      1153  ECLIPA    H79S          -36.0852162081      -32.3818607126        6.7882549413  LPSA33    1               0.0000000000
     35642      1153  ECLIPA    C710          -35.8100358292      -30.4200753402        6.3785096220  LPSA33    1               0.0000000000
     35643      1153  ECLIPA    H710R         -36.0873334580      -29.4464545004        6.8460783027  LPSA33    1               0.0000000000
     35644      1153  ECLIPA    H710S         -34.7981832580      -30.5384469210        6.4843026416  LPSA33    1               0.0000000000
     35645      1153  ECLIPA    C711          -36.2793325065      -30.4174829191        4.9384125046  LPSA33    1               0.0000000000
     35646      1153  ECLIPA    H711R         -35.9831295597      -31.4006173697        4.5670708729  LPSA33    1               0.0000000000
     35647      1153  ECLIPA    H711S         -37.3858103102      -30.2460985156        4.9306188492  LPSA33    1               0.0000000000
     35648      1153  ECLIPA    C712          -35.5961385039      -29.2708437137        4.2148670498  LPSA33    1               0.0000000000
     35649      1153  ECLIPA    H712R         -34.5193646955      -29.4475671806        4.3130666899  LPSA33    1               0.0000000000
     35650      1153  ECLIPA    H712S         -35.8003497510      -28.3942189769        4.8522839389  LPSA33    1               0.0000000000
     35651      1153  ECLIPA    C713          -36.1526285236      -29.0889185223        2.7357390519  LPSA33    1               0.0000000000
     35652      1153  ECLIPA    H713R         -37.2411666273      -28.8413525000        2.8800411466  LPSA33    1               0.0000000000
     35653      1153  ECLIPA    H713S         -35.5540926294      -28.2185480359        2.2750064041  LPSA33    1               0.0000000000
     35654      1153  ECLIPA    C714          -35.8376662363      -30.3351575459        1.8879763961  LPSA33    1               0.0000000000
     35655      1153  ECLIPA    H714R         -34.7542304360      -30.4715484523        1.7626189762  LPSA33    1               0.0000000000
     35656      1153  ECLIPA    H714S         -36.4104258244      -31.2140936096        2.2081901572  LPSA33    1               0.0000000000
     35657      1153  ECLIPA    H714T         -36.1990473914      -30.0269471640        0.9249202435  LPSA33    1               0.0000000000
     35658      1153  ECLIPA    C51           -40.2748244949      -29.9203060013       14.2380633031  LPSA33    1               0.0000000000
     35659      1153  ECLIPA    O51           -39.7542511732      -28.7894059036       14.1304636378  LPSA33    1               0.0000000000
     35660      1153  ECLIPA    C52           -40.3978195511      -30.9009804275       13.0157035712  LPSA33    1               0.0000000000
     35661      1153  ECLIPA    H52R          -39.5598668840      -31.5724362736       12.8950255930  LPSA33    1               0.0000000000
     35662      1153  ECLIPA    H52S          -41.2915172450      -31.4462836736       13.2222025935  LPSA33    1               0.0000000000
     35663      1153  ECLIPA    C53           -40.7226978471      -30.0158998630       11.7526064304  LPSA33    1               0.0000000000
     35664      1153  ECLIPA    H53R          -41.2095431218      -29.0805118705       12.0082431084  LPSA33    1               0.0000000000
     35665      1153  ECLIPA    O53           -41.4220459539      -30.8807017856       10.8431816314  LPSA33    1               0.0000000000
     35666      1153  ECLIPA    C61           -42.6636649643      -30.5696907204       10.5090573566  LPSA33    1               0.0000000000
     35667      1153  ECLIPA    O61           -43.2680765571      -29.6074525405       10.8659713306  LPSA33    1               0.0000000000
     35668      1153  ECLIPA    C62           -43.2193118114      -31.6537653975        9.5765835255  LPSA33    1               0.0000000000
     35669      1153  ECLIPA    H62R          -43.5216763967      -32.5103890189       10.2152837125  LPSA33    1               0.0000000000
     35670      1153  ECLIPA    H62S          -42.3403635340      -32.0800897896        9.0470049452  LPSA33    1               0.0000000000
     35671      1153  ECLIPA    C63           -44.3620208483      -31.1113623494        8.6803029234  LPSA33    1               0.0000000000
     35672      1153  ECLIPA    H63R          -44.0220857563      -30.1425982949        8.2798705976  LPSA33    1               0.0000000000
     35673      1153  ECLIPA    H63S          -45.3247380857      -30.9084536302        9.3252199642  LPSA33    1               0.0000000000
     35674      1153  ECLIPA    C64           -44.7943306649      -31.9326128367        7.5279067597  LPSA33    1               0.0000000000
     35675      1153  ECLIPA    H64R          -45.6925626140      -31.4952306774        6.9620099216  LPSA33    1               0.0000000000
     35676      1153  ECLIPA    H64S          -45.0642515244      -32.9626991157        7.9657393466  LPSA33    1               0.0000000000
     35677      1153  ECLIPA    C65           -43.5918652323      -32.1403191501        6.5414948800  LPSA33    1               0.0000000000
     35678      1153  ECLIPA    H65R          -42.8794182308      -32.6444836729        7.2423230371  LPSA33    1               0.0000000000
     35679      1153  ECLIPA    H65S          -43.2324259098      -31.1506843133        6.1828980290  LPSA33    1               0.0000000000
     35680      1153  ECLIPA    C66           -43.8618401406      -32.9975979978        5.2222643966  LPSA33    1               0.0000000000
     35681      1153  ECLIPA    H66R          -44.1709527746      -33.9912420660        5.5395647249  LPSA33    1               0.0000000000
     35682      1153  ECLIPA    H66S          -42.8092296660      -33.0212010163        4.8113963288  LPSA33    1               0.0000000000
     35683      1153  ECLIPA    C67           -44.7870631039      -32.4413652215        4.1696839457  LPSA33    1               0.0000000000
     35684      1153  ECLIPA    H67R          -45.7464180132      -32.1172279579        4.5058181646  LPSA33    1               0.0000000000
     35685      1153  ECLIPA    H67S          -44.9318241769      -33.1990934347        3.3478820057  LPSA33    1               0.0000000000
     35686      1153  ECLIPA    C68           -44.2851132242      -31.1848689791        3.5077075145  LPSA33    1               0.0000000000
     35687      1153  ECLIPA    H68R          -43.2856466604      -31.2025893602        3.0112508411  LPSA33    1               0.0000000000
     35688      1153  ECLIPA    H68S          -44.3491457002      -30.4705609476        4.3087918325  LPSA33    1               0.0000000000
     35689      1153  ECLIPA    C69           -45.1562801287      -30.8560276507        2.2963532923  LPSA33    1               0.0000000000
     35690      1153  ECLIPA    H69R          -46.1988664964      -31.2278491810        2.3203210098  LPSA33    1               0.0000000000
     35691      1153  ECLIPA    H69S          -44.7478198742      -31.4333603319        1.4693744207  LPSA33    1               0.0000000000
     35692      1153  ECLIPA    C610          -45.1777510660      -29.4145552526        1.9396251084  LPSA33    1               0.0000000000
     35693      1153  ECLIPA    H610R         -44.1509165789      -28.9713740694        2.0603347121  LPSA33    1               0.0000000000
     35694      1153  ECLIPA    H610S         -45.8117944525      -28.8427811568        2.6933643884  LPSA33    1               0.0000000000
     35695      1153  ECLIPA    C611          -45.8077159194      -29.1287192453        0.5312153135  LPSA33    1               0.0000000000
     35696      1153  ECLIPA    H611R         -46.8381672303      -29.5323450158        0.5735373188  LPSA33    1               0.0000000000
     35697      1153  ECLIPA    H611S         -46.0498802125      -28.0904159859        0.3609598123  LPSA33    1               0.0000000000
     35698      1153  ECLIPA    C612          -44.9178251901      -29.6621486901       -0.5788949292  LPSA33    1               0.0000000000
     35699      1153  ECLIPA    H612R         -43.9778102463      -29.0423941998       -0.6060949542  LPSA33    1               0.0000000000
     35700      1153  ECLIPA    H612S         -44.5755889493      -30.6700221781       -0.3132441764  LPSA33    1               0.0000000000
     35701      1153  ECLIPA    H612T         -45.4037243269      -29.6127474883       -1.5574606966  LPSA33    1               0.0000000000
     35702      1153  ECLIPA    C54           -39.3315464248      -29.6924014510       11.1776054589  LPSA33    1               0.0000000000
     35703      1153  ECLIPA    H54R          -38.8331446025      -30.6648575226       10.8869876633  LPSA33    1               0.0000000000
     35704      1153  ECLIPA    H54S          -38.6820853052      -29.2629253474       11.9574517429  LPSA33    1               0.0000000000
     35705      1153  ECLIPA    C55           -39.2236723778      -28.7414416418        9.9916770240  LPSA33    1               0.0000000000
     35706      1153  ECLIPA    H55R          -38.1963501667      -28.3643373557        9.7856946516  LPSA33    1               0.0000000000
     35707      1153  ECLIPA    H55S          -39.8627940010      -27.8217590254       10.2436295858  LPSA33    1               0.0000000000
     35708      1153  ECLIPA    C56           -39.5924461702      -29.5112973242        8.7515486822  LPSA33    1               0.0000000000
     35709      1153  ECLIPA    H56R          -40.6532131247      -29.8997272501        8.8382497819  LPSA33    1               0.0000000000
     35710      1153  ECLIPA    H56S          -38.9860591330      -30.3200182605        8.4741334449  LPSA33    1               0.0000000000
     35711      1153  ECLIPA    C57           -39.8110348289      -28.6670146772        7.4395707935  LPSA33    1               0.0000000000
     35712      1153  ECLIPA    H57R          -38.9490649241      -28.0486804112        7.1827428724  LPSA33    1               0.0000000000
     35713      1153  ECLIPA    H57S          -40.6480275153      -27.9413943354        7.5196553379  LPSA33    1               0.0000000000
     35714      1153  ECLIPA    C58           -40.2224620041      -29.6083417080        6.2350750625  LPSA33    1               0.0000000000
     35715      1153  ECLIPA    H58R          -39.5852816599      -30.5353674601        6.2095761879  LPSA33    1               0.0000000000
     35716      1153  ECLIPA    H58S          -41.2079136141      -30.0675083471        6.5224540661  LPSA33    1               0.0000000000
     35717      1153  ECLIPA    C59           -40.1111803638      -28.8792622239        4.8667186835  LPSA33    1               0.0000000000
     35718      1153  ECLIPA    H59R          -39.0932681545      -28.5034191182        4.6589989540  LPSA33    1               0.0000000000
     35719      1153  ECLIPA    H59S          -40.8228242676      -28.0581894674        5.0825555512  LPSA33    1               0.0000000000
     35720      1153  ECLIPA    C510          -40.3693032707      -29.8195414998        3.6752379292  LPSA33    1               0.0000000000
     35721      1153  ECLIPA    H510R         -41.2680832137      -30.5170190128        3.7937959224  LPSA33    1               0.0000000000
     35722      1153  ECLIPA    H510S         -39.4432948295      -30.5219975191        3.4613250382  LPSA33    1               0.0000000000
     35723      1153  ECLIPA    C511          -40.5559873544      -29.1436281790        2.3004848829  LPSA33    1               0.0000000000
     35724      1153  ECLIPA    H511R         -41.6043574807      -28.7898226188        2.2679211996  LPSA33    1               0.0000000000
     35725      1153  ECLIPA    H511S         -39.9268087092      -28.2126148438        2.1940961976  LPSA33    1               0.0000000000
     35726      1153  ECLIPA    C512          -40.3654126217      -30.0356746395        1.0189424135  LPSA33    1               0.0000000000
     35727      1153  ECLIPA    H512R         -40.3042772228      -29.3887191473        0.0815295424  LPSA33    1               0.0000000000
     35728      1153  ECLIPA    H512S         -39.4403661801      -30.6178929542        1.1129704346  LPSA33    1               0.0000000000
     35729      1153  ECLIPA    C513          -41.6146668485      -30.9562169192        0.6457389972  LPSA33    1               0.0000000000
     35730      1153  ECLIPA    H513R         -42.5535736789      -30.3367157680        0.5010832175  LPSA33    1               0.0000000000
     35731      1153  ECLIPA    H513S         -41.8239296840      -31.6068587394        1.4088770719  LPSA33    1               0.0000000000
     35732      1153  ECLIPA    C514          -41.3785435296      -31.6707067073       -0.6567184026  LPSA33    1               0.0000000000
     35733      1153  ECLIPA    H514R         -40.4432532117      -32.2292855132       -0.6273993866  LPSA33    1               0.0000000000
     35734      1153  ECLIPA    H514S         -42.1705619597      -32.4214629461       -0.7024724270  LPSA33    1               0.0000000000
     35735      1153  ECLIPA    H514T         -41.3730425398      -30.9366549693       -1.5427815912  LPSA33    1               0.0000000000
     35736      1153  ECLIPA    C33           -44.8849220445      -32.2673938346       14.4880792826  LPSA33    1               0.0000000000
     35737      1153  ECLIPA    H33R          -45.3803330777      -33.2156015407       14.8828993596  LPSA33    1               0.0000000000
     35738      1153  ECLIPA    O33           -43.9621064375      -31.8330436922       15.4699768821  LPSA33    1               0.0000000000
     35739      1153  ECLIPA    HO33          -44.3676468059      -31.9001607848       16.2926205744  LPSA33    1               0.0000000000
     35740      1153  ECLIPA    C34           -44.0812977171      -32.6764487043       13.2255459338  LPSA33    1               0.0000000000
     35741      1153  ECLIPA    H34R          -43.6053320112      -31.7993355085       12.8010908313  LPSA33    1               0.0000000000
     35742      1153  ECLIPA    H34S          -44.7984265345      -33.0046615352       12.3772221142  LPSA33    1               0.0000000000
     35743      1153  ECLIPA    C35           -42.9990853239      -33.7530734055       13.4256256262  LPSA33    1               0.0000000000
     35744      1153  ECLIPA    H35R          -43.4955803005      -34.6821129995       13.6963698038  LPSA33    1               0.0000000000
     35745      1153  ECLIPA    H35S          -42.3592266174      -33.4566612610       14.2668166019  LPSA33    1               0.0000000000
     35746      1153  ECLIPA    C36           -42.1736084946      -34.1558519706       12.1865608177  LPSA33    1               0.0000000000
     35747      1153  ECLIPA    H36R          -42.1620544922      -33.1389412608       11.7430812241  LPSA33    1               0.0000000000
     35748      1153  ECLIPA    H36S          -42.6693327955      -34.8930857528       11.4785220412  LPSA33    1               0.0000000000
     35749      1153  ECLIPA    C37           -40.7269704626      -34.4620780886       12.5255831563  LPSA33    1               0.0000000000
     35750      1153  ECLIPA    H37R          -40.7222898996      -35.6345316777       12.6765215637  LPSA33    1               0.0000000000
     35751      1153  ECLIPA    H37S          -40.4307739092      -34.0614608434       13.5128993321  LPSA33    1               0.0000000000
     35752      1153  ECLIPA    C38           -39.6754428092      -34.1260012106       11.4317274953  LPSA33    1               0.0000000000
     35753      1153  ECLIPA    H38R          -39.3970568547      -33.0593107845       11.4067421357  LPSA33    1               0.0000000000
     35754      1153  ECLIPA    H38S          -38.7341693838      -34.6262850488       11.7230999881  LPSA33    1               0.0000000000
     35755      1153  ECLIPA    C39           -40.1814027652      -34.4908461490       10.0213367345  LPSA33    1               0.0000000000
     35756      1153  ECLIPA    H39R          -41.1675744769      -33.9972182151        9.8128797222  LPSA33    1               0.0000000000
     35757      1153  ECLIPA    H39S          -40.1941043087      -35.6119006471        9.9697980947  LPSA33    1               0.0000000000
     35758      1153  ECLIPA    C310          -39.2480992302      -34.1500809714        8.8401719124  LPSA33    1               0.0000000000
     35759      1153  ECLIPA    H310R         -38.3234593909      -34.8025447744        9.0626900142  LPSA33    1               0.0000000000
     35760      1153  ECLIPA    H310S         -38.9495845976      -33.0624936171        8.8945759064  LPSA33    1               0.0000000000
     35761      1153  ECLIPA    C311          -39.9613378962      -34.1828701892        7.5676235846  LPSA33    1               0.0000000000
     35762      1153  ECLIPA    H311R         -40.6919153009      -35.0312006141        7.5507520616  LPSA33    1               0.0000000000
     35763      1153  ECLIPA    H311S         -40.5417614955      -33.2508733605        7.2851462164  LPSA33    1               0.0000000000
     35764      1153  ECLIPA    C312          -39.0456739395      -34.2878773736        6.3280121142  LPSA33    1               0.0000000000
     35765      1153  ECLIPA    H312R         -38.0967954152      -33.7157576875        6.4861373960  LPSA33    1               0.0000000000
     35766      1153  ECLIPA    H312S         -38.7991320998      -35.3695138238        6.1820758986  LPSA33    1               0.0000000000
     35767      1153  ECLIPA    C313          -39.6948777235      -33.8072174702        4.9895779706  LPSA33    1               0.0000000000
     35768      1153  ECLIPA    H313R         -40.3895252138      -34.5615374234        4.7825120466  LPSA33    1               0.0000000000
     35769      1153  ECLIPA    H313S         -40.2515738077      -32.8430832362        5.1572698764  LPSA33    1               0.0000000000
     35770      1153  ECLIPA    C314          -38.7926993363      -33.6386817226        3.8116661598  LPSA33    1               0.0000000000
     35771      1153  ECLIPA    H314R         -38.2683730988      -34.6115527227        3.6067793993  LPSA33    1               0.0000000000
     35772      1153  ECLIPA    H314S         -39.2696683389      -33.3090841158        2.8849361441  LPSA33    1               0.0000000000
     35773      1153  ECLIPA    H314T         -37.9575077247      -32.8890420412        4.0446347774  LPSA33    1               0.0000000000
     35774      1153  ECLIPA    C11           -43.6512571544      -26.5847761581       11.2900808200  LPSA33    1               0.0000000000
     35775      1153  ECLIPA    O11           -42.4358267969      -26.6042099785       11.1394597694  LPSA33    1               0.0000000000
     35776      1153  ECLIPA    C12           -44.4475883178      -25.7003108846       10.2853014675  LPSA33    1               0.0000000000
     35777      1153  ECLIPA    H12R          -44.2825204636      -24.6108722856       10.4852637814  LPSA33    1               0.0000000000
     35778      1153  ECLIPA    H12S          -45.5123114306      -25.9643400007       10.5222272274  LPSA33    1               0.0000000000
     35779      1153  ECLIPA    C13           -44.1795897010      -25.9720538883        8.8110583416  LPSA33    1               0.0000000000
     35780      1153  ECLIPA    H13R          -43.0550128424      -26.1032226057        8.5839874118  LPSA33    1               0.0000000000
     35781      1153  ECLIPA    O13           -44.6148054114      -24.7658388456        8.1311342176  LPSA33    1               0.0000000000
     35782      1153  ECLIPA    HO13          -44.1721566245      -24.6853673244        7.3064966676  LPSA33    1               0.0000000000
     35783      1153  ECLIPA    C14           -44.9050983584      -27.2494915101        8.4581579993  LPSA33    1               0.0000000000
     35784      1153  ECLIPA    H14R          -45.9326189580      -27.3266159865        8.9706443184  LPSA33    1               0.0000000000
     35785      1153  ECLIPA    H14S          -44.2337246586      -28.0923488729        8.7243868424  LPSA33    1               0.0000000000
     35786      1153  ECLIPA    C15           -45.1855530964      -27.4151629543        6.9526486677  LPSA33    1               0.0000000000
     35787      1153  ECLIPA    H15R          -45.6706080438      -26.5415806600        6.5500123177  LPSA33    1               0.0000000000
     35788      1153  ECLIPA    H15S          -45.8121916906      -28.3053983266        6.8782608049  LPSA33    1               0.0000000000
     35789      1153  ECLIPA    C16           -43.8652287304      -27.5947775168        6.1622847334  LPSA33    1               0.0000000000
     35790      1153  ECLIPA    H16R          -43.4544041250      -28.6639893418        6.2733383262  LPSA33    1               0.0000000000
     35791      1153  ECLIPA    H16S          -43.0745722429      -27.0622553221        6.7182496574  LPSA33    1               0.0000000000
     35792      1153  ECLIPA    C17           -43.9998213847      -27.2529238507        4.6801229578  LPSA33    1               0.0000000000
     35793      1153  ECLIPA    H17R          -44.9783493352      -27.7636554540        4.4246758429  LPSA33    1               0.0000000000
     35794      1153  ECLIPA    H17S          -43.2479582179      -27.6741289710        4.0046542873  LPSA33    1               0.0000000000
     35795      1153  ECLIPA    C18           -44.0710490501      -25.7678575624        4.4504458171  LPSA33    1               0.0000000000
     35796      1153  ECLIPA    H18R          -44.8670535633      -25.4852245282        5.0865821920  LPSA33    1               0.0000000000
     35797      1153  ECLIPA    H18S          -43.0881769823      -25.3206529138        4.7749867078  LPSA33    1               0.0000000000
     35798      1153  ECLIPA    C19           -44.3493202260      -25.4184725374        3.0097966450  LPSA33    1               0.0000000000
     35799      1153  ECLIPA    H19R          -44.5136930109      -24.3535411617        2.9245509529  LPSA33    1               0.0000000000
     35800      1153  ECLIPA    H19S          -45.2602154679      -25.9846042860        2.6238151240  LPSA33    1               0.0000000000
     35801      1153  ECLIPA    C110          -43.1309816767      -25.7247514764        2.1045801788  LPSA33    1               0.0000000000
     35802      1153  ECLIPA    H110R         -42.1768875253      -25.3162326826        2.4416701971  LPSA33    1               0.0000000000
     35803      1153  ECLIPA    H110S         -43.1343032870      -26.8356972065        2.1583327743  LPSA33    1               0.0000000000
     35804      1153  ECLIPA    C111          -43.4415357327      -25.2855644321        0.7563571155  LPSA33    1               0.0000000000
     35805      1153  ECLIPA    H111R         -44.4814858053      -25.5283974146        0.3999767799  LPSA33    1               0.0000000000
     35806      1153  ECLIPA    H111S         -43.4301492629      -24.2274334442        0.7977177860  LPSA33    1               0.0000000000
     35807      1153  ECLIPA    C112          -42.4066841794      -25.7189976092       -0.2937360943  LPSA33    1               0.0000000000
     35808      1153  ECLIPA    H112R         -41.4891662333      -25.3012297966        0.1973446929  LPSA33    1               0.0000000000
     35809      1153  ECLIPA    H112S         -42.1909618074      -26.7877172410       -0.2177998937  LPSA33    1               0.0000000000
     35810      1153  ECLIPA    C113          -42.8297688744      -25.4489649339       -1.7468031795  LPSA33    1               0.0000000000
     35811      1153  ECLIPA    H113R         -43.7002664214      -26.1046619092       -1.9802017524  LPSA33    1               0.0000000000
     35812      1153  ECLIPA    H113S         -43.2349264986      -24.4376291988       -1.8531093719  LPSA33    1               0.0000000000
     35813      1153  ECLIPA    C114          -41.7864434681      -25.4943384614       -2.8344928043  LPSA33    1               0.0000000000
     35814      1153  ECLIPA    H114R         -40.8559351000      -24.9356528599       -2.7829422503  LPSA33    1               0.0000000000
     35815      1153  ECLIPA    H114S         -41.4604533130      -26.5599832603       -2.9951089580  LPSA33    1               0.0000000000
     35816      1153  ECLIPA    H114T         -42.1875894697      -24.9985950710       -3.7399523103  LPSA33    1               0.0000000000
     35817      1154  AKDO      C1            -39.6143024435      -31.1566154592       22.4410509549  LPSA33    2               0.0000000000
     35818      1154  AKDO      O11           -38.4254125183      -31.6248858625       22.4913720772  LPSA33    2               0.0000000000
     35819      1154  AKDO      O12           -40.6930097171      -31.7057069085       22.0800765534  LPSA33    2               0.0000000000
     35820      1154  AKDO      C2            -39.7529939994      -29.6989494129       22.8913181237  LPSA33    2               0.0000000000
     35821      1154  AKDO      C6            -38.5089061754      -27.9038246472       23.8039205188  LPSA33    2               0.0000000000
     35822      1154  AKDO      H6            -38.7101560430      -27.3132585266       22.9487387861  LPSA33    2               0.0000000000
     35823      1154  AKDO      O6            -38.5247592685      -29.3392021187       23.4267274814  LPSA33    2               0.0000000000
     35824      1154  AKDO      C3            -40.7592851874      -29.5105966730       23.9587385105  LPSA33    2               0.0000000000
     35825      1154  AKDO      H31           -40.6527920842      -30.1448242528       24.7868435866  LPSA33    2               0.0000000000
     35826      1154  AKDO      H32           -41.8094637568      -29.6718681139       23.4151264596  LPSA33    2               0.0000000000
     35827      1154  AKDO      C4            -40.7971449226      -28.0454341423       24.3842593775  LPSA33    2               0.0000000000
     35828      1154  AKDO      H4            -40.9443951185      -27.3740628135       23.5563617270  LPSA33    2               0.0000000000
     35829      1154  AKDO      O4            -41.8353257257      -27.8577903029       25.3355834555  LPSA33    2               0.0000000000
     35830      1154  AKDO      C5            -39.5246409820      -27.5746157578       24.9292437177  LPSA33    2               0.0000000000
     35831      1154  AKDO      H5            -39.5196554534      -26.4556720657       25.0107888161  LPSA33    2               0.0000000000
     35832      1154  AKDO      O5            -39.2779805910      -28.2987594000       26.2083878813  LPSA33    2               0.0000000000
     35833      1154  AKDO      C7            -37.0467097182      -27.3952662359       24.1981149098  LPSA33    2               0.0000000000
     35834      1154  AKDO      H7            -36.7367637187      -27.9296587498       25.0939202098  LPSA33    2               0.0000000000
     35835      1154  AKDO      O7            -36.9995049457      -25.9517790961       24.3482682347  LPSA33    2               0.0000000000
     35836      1154  AKDO      HO7           -36.9982111484      -25.6119918284       23.4945166536  LPSA33    2               0.0000000000
     35837      1154  AKDO      C8            -36.1245693560      -27.7651388497       22.9864433882  LPSA33    2               0.0000000000
     35838      1154  AKDO      H81           -36.1980392136      -28.8767881257       22.9153150275  LPSA33    2               0.0000000000
     35839      1154  AKDO      H82           -36.5400020038      -27.1957739588       22.0745354517  LPSA33    2               0.0000000000
     35840      1154  AKDO      O8            -34.7328826438      -27.3850849188       23.3537996748  LPSA33    2               0.0000000000
     35841      1154  AKDO      HO8           -34.1167107194      -28.0294112482       22.9179804014  LPSA33    2               0.0000000000
     35842      1155  AKDO      C1            -43.2387075698      -26.7159318151       23.8027969005  LPSA33    3               1.0000000000
     35843      1155  AKDO      O11           -43.4149632190      -27.2068314895       22.6471489042  LPSA33    3               1.0000000000
     35844      1155  AKDO      O12           -43.1149917015      -25.4959602819       24.0656860145  LPSA33    3               1.0000000000
     35845      1155  AKDO      C2            -43.1928172676      -27.6331372574       25.0166033796  LPSA33    3               1.0000000000
     35846      1155  AKDO      C6            -43.7239815098      -29.8538098789       25.7688829792  LPSA33    3               1.0000000000
     35847      1155  AKDO      H6            -42.6285739002      -30.0801786728       25.9810553331  LPSA33    3               1.0000000000
     35848      1155  AKDO      O6            -43.8254772612      -28.9240335169       24.7076657818  LPSA33    3               1.0000000000
     35849      1155  AKDO      C3            -43.8250787753      -27.0730363146       26.3187707743  LPSA33    3               1.0000000000
     35850      1155  AKDO      H31           -44.9625249058      -26.8733142715       26.1504935106  LPSA33    3               1.0000000000
     35851      1155  AKDO      H32           -43.3711047187      -26.1107478255       26.5929217108  LPSA33    3               1.0000000000
     35852      1155  AKDO      C4            -43.6562293792      -28.1058796428       27.4036122013  LPSA33    3               1.0000000000
     35853      1155  AKDO      H4            -42.6029536527      -28.4027431461       27.4051754129  LPSA33    3               1.0000000000
     35854      1155  AKDO      O4            -43.9877267102      -27.6971605492       28.7388570077  LPSA33    3               1.0000000000
     35855      1155  AKDO      HO4           -43.2843493854      -27.7752955775       29.3717785514  LPSA33    3               1.0000000000
     35856      1155  AKDO      C5            -44.3203511829      -29.2991654241       27.0369167275  LPSA33    3               1.0000000000
     35857      1155  AKDO      H5            -44.2604759848      -30.0364921099       27.9236884022  LPSA33    3               1.0000000000
     35858      1155  AKDO      O5            -45.7279294096      -29.0599413422       26.8495261943  LPSA33    3               1.0000000000
     35859      1155  AKDO      HO5           -45.8557046836      -28.4111791888       26.1887877298  LPSA33    3               1.0000000000
     35860      1155  AKDO      C7            -44.4149671897      -31.1190414800       25.3258859863  LPSA33    3               1.0000000000
     35861      1155  AKDO      H7            -45.5135575524      -30.9441635021       25.1324849511  LPSA33    3               1.0000000000
     35862      1155  AKDO      O7            -44.2492726005      -32.1215042551       26.3661029982  LPSA33    3               1.0000000000
     35863      1155  AKDO      HO7           -44.8351660806      -32.8815591112       26.1647669547  LPSA33    3               1.0000000000
     35864      1155  AKDO      C8            -43.6835492629      -31.6272759141       24.1539635864  LPSA33    3               1.0000000000
     35865      1155  AKDO      H81           -43.7003824514      -30.8884625781       23.3419478721  LPSA33    3               1.0000000000
     35866      1155  AKDO      H82           -42.6291087645      -31.9133248468       24.2853144505  LPSA33    3               1.0000000000
     35867      1155  AKDO      O8            -44.3221620889      -32.7806069373       23.6541307456  LPSA33    3               1.0000000000
     35868      1155  AKDO      HO8           -45.0752206556      -32.3123385379       23.2473452835  LPSA33    3               1.0000000000
     35869      1156  AHEP      C1            -38.6426606829      -27.6196675073       27.2793229502  LPSA33    4               2.0000000000
     35870      1156  AHEP      H1            -37.5962278355      -27.7587378223       26.8517192453  LPSA33    4               2.0000000000
     35871      1156  AHEP      C5            -40.0849113656      -25.8180869482       28.0185271385  LPSA33    4               2.0000000000
     35872      1156  AHEP      H5            -40.9074418656      -26.4945338699       27.5619054335  LPSA33    4               2.0000000000
     35873      1156  AHEP      O5            -38.8661031487      -26.2123195913       27.3942805697  LPSA33    4               2.0000000000
     35874      1156  AHEP      C2            -38.5764449487      -28.1658388898       28.6827861277  LPSA33    4               2.0000000000
     35875      1156  AHEP      H2            -38.4523968314      -29.2526815962       28.7442425996  LPSA33    4               2.0000000000
     35876      1156  AHEP      O2            -37.4930810375      -27.6155684096       29.3407203943  LPSA33    4               2.0000000000
     35877      1156  AHEP      HO2           -37.0674362715      -28.2784846654       29.8507927467  LPSA33    4               2.0000000000
     35878      1156  AHEP      C3            -39.8436044841      -27.8087970594       29.4857672188  LPSA33    4               2.0000000000
     35879      1156  AHEP      H3            -40.7525304003      -28.3691422993       29.2269906369  LPSA33    4               2.0000000000
     35880      1156  AHEP      O3            -39.6775835776      -28.1549679227       30.7882097304  LPSA33    4               2.0000000000
     35881      1156  AHEP      C4            -40.0469977462      -26.3157561813       29.4546205599  LPSA33    4               2.0000000000
     35882      1156  AHEP      H4            -39.2667732090      -25.7091394507       29.9788637739  LPSA33    4               2.0000000000
     35883      1156  AHEP      O4            -41.2913018641      -26.0152734589       30.0145912217  LPSA33    4               2.0000000000
     35884      1156  AHEP      P4            -41.4538855153      -25.2834172887       31.4978499249  LPSA33    4               2.0000000000
     35885      1156  AHEP      OP42          -42.6728022351      -25.7971825645       32.1560374192  LPSA33    4               2.0000000000
     35886      1156  AHEP      OP43          -41.5929637431      -23.8614439435       31.0397938518  LPSA33    4               2.0000000000
     35887      1156  AHEP      OP44          -40.1314634061      -25.4501396511       32.3098937101  LPSA33    4               2.0000000000
     35888      1156  AHEP      C6            -40.3829687673      -24.2913779176       27.7982482844  LPSA33    4               2.0000000000
     35889      1156  AHEP      H6            -41.4697064298      -24.1497400040       28.0833143566  LPSA33    4               2.0000000000
     35890      1156  AHEP      O6            -39.5594006919      -23.5601233858       28.7103505027  LPSA33    4               2.0000000000
     35891      1156  AHEP      HO6           -40.0791479736      -22.8827047616       29.2203787365  LPSA33    4               2.0000000000
     35892      1156  AHEP      C7            -40.2046807321      -23.8177005054       26.3054198206  LPSA33    4               2.0000000000
     35893      1156  AHEP      H71           -40.5904817015      -22.7545355055       26.1576126064  LPSA33    4               2.0000000000
     35894      1156  AHEP      H72           -40.6501777332      -24.5774509285       25.6323487339  LPSA33    4               2.0000000000
     35895      1156  AHEP      O7            -38.8212907522      -23.7347134509       25.9755159574  LPSA33    4               2.0000000000
     35896      1156  AHEP      HO7           -38.4858784258      -22.8941552205       26.3256794122  LPSA33    4               2.0000000000
     35897      1157  AHEP      C1            -40.5557854246      -29.1045337846       31.4342177374  LPSA33    5               3.0000000000
     35898      1157  AHEP      H1            -41.5809219905      -29.0884963433       30.9794447437  LPSA33    5               3.0000000000
     35899      1157  AHEP      C5            -38.7857589267      -30.6245862533       31.9165413065  LPSA33    5               3.0000000000
     35900      1157  AHEP      H5            -38.1049754253      -29.7620143694       31.6031509785  LPSA33    5               3.0000000000
     35901      1157  AHEP      O5            -40.0521128798      -30.4463671318       31.3013865768  LPSA33    5               3.0000000000
     35902      1157  AHEP      C2            -40.7365960824      -28.8712245331       32.9718957084  LPSA33    5               3.0000000000
     35903      1157  AHEP      H2            -41.0694118917      -27.7902046641       33.0921707216  LPSA33    5               3.0000000000
     35904      1157  AHEP      O2            -41.7556756953      -29.7182579103       33.4691025827  LPSA33    5               3.0000000000
     35905      1157  AHEP      HO2           -42.5458440398      -29.2157516266       33.6403503244  LPSA33    5               3.0000000000
     35906      1157  AHEP      C3            -39.3844758270      -29.0165153349       33.7004304811  LPSA33    5               3.0000000000
     35907      1157  AHEP      H3            -38.6666503836      -28.2726118005       33.3375632548  LPSA33    5               3.0000000000
     35908      1157  AHEP      O3            -39.4150163962      -28.8504600827       35.1462238331  LPSA33    5               3.0000000000
     35909      1157  AHEP      C4            -38.9121939730      -30.4078709683       33.4524658705  LPSA33    5               3.0000000000
     35910      1157  AHEP      H4            -39.6379226261      -31.1742925001       33.8188816395  LPSA33    5               3.0000000000
     35911      1157  AHEP      O4            -37.6043705605      -30.5607790648       34.0881196202  LPSA33    5               3.0000000000
     35912      1157  AHEP      P4            -37.3965739222      -31.5980359981       35.2810123301  LPSA33    5               3.0000000000
     35913      1157  AHEP      OP42          -36.0114632131      -31.3292721071       35.8202965042  LPSA33    5               3.0000000000
     35914      1157  AHEP      OP43          -37.4991835480      -32.9936559523       34.6107506294  LPSA33    5               3.0000000000
     35915      1157  AHEP      OP44          -38.5371916924      -31.3893917176       36.2417033353  LPSA33    5               3.0000000000
     35916      1157  AHEP      C6            -38.1104325364      -31.9549252628       31.5493607386  LPSA33    5               3.0000000000
     35917      1157  AHEP      H6            -37.0863482699      -32.0206440669       31.9533288164  LPSA33    5               3.0000000000
     35918      1157  AHEP      O6            -38.8775117684      -33.0478799464       32.0428602265  LPSA33    5               3.0000000000
     35919      1157  AHEP      HO6           -39.7038484005      -33.2686333812       31.5367188277  LPSA33    5               3.0000000000
     35920      1157  AHEP      C7            -37.8455459684      -32.0017985801       30.0822725317  LPSA33    5               3.0000000000
     35921      1157  AHEP      H71           -36.9099575908      -32.5798255163       29.9169108581  LPSA33    5               3.0000000000
     35922      1157  AHEP      H72           -37.6970297445      -31.0088140426       29.6179339851  LPSA33    5               3.0000000000
     35923      1157  AHEP      O7            -38.9034001892      -32.7891594156       29.4957736452  LPSA33    5               3.0000000000
     35924      1158  AHEP      C1            -39.8462996595      -32.0374567973       28.7926622005  LPSA33    6               4.0000000000
     35925      1158  AHEP      H1            -39.7352533234      -30.9254345457       29.0422981953  LPSA33    6               4.0000000000
     35926      1158  AHEP      C5            -39.8213934573      -33.5219050932       26.9237617191  LPSA33    6               4.0000000000
     35927      1158  AHEP      H5            -39.1127917562      -34.1495863848       27.4818042043  LPSA33    6               4.0000000000
     35928      1158  AHEP      O5            -39.7061940056      -32.1566213237       27.3547530115  LPSA33    6               4.0000000000
     35929      1158  AHEP      C2            -41.2222963363      -32.4466755881       29.2397872647  LPSA33    6               4.0000000000
     35930      1158  AHEP      H2            -41.2817943085      -32.2458800687       30.3523091474  LPSA33    6               4.0000000000
     35931      1158  AHEP      O2            -42.2265370234      -31.6098304119       28.7267108980  LPSA33    6               4.0000000000
     35932      1158  AHEP      HO2           -42.5132923560      -31.1115985882       29.4669064354  LPSA33    6               4.0000000000
     35933      1158  AHEP      C3            -41.4262049202      -33.9314014909       28.8468391403  LPSA33    6               4.0000000000
     35934      1158  AHEP      H3            -40.7046890798      -34.5158320974       29.4311808254  LPSA33    6               4.0000000000
     35935      1158  AHEP      O3            -42.7844571787      -34.4749564036       29.2225362108  LPSA33    6               4.0000000000
     35936      1158  AHEP      HO3           -42.8351291025      -34.9828758048       29.9865592523  LPSA33    6               4.0000000000
     35937      1158  AHEP      C4            -41.2269988928      -34.0134041064       27.2761740859  LPSA33    6               4.0000000000
     35938      1158  AHEP      H4            -42.0583933375      -33.5183146261       26.7944950683  LPSA33    6               4.0000000000
     35939      1158  AHEP      O4            -41.3647523104      -35.3585177624       26.7938835778  LPSA33    6               4.0000000000
     35940      1158  AHEP      HO4           -40.5085674542      -35.8070689540       27.1589530594  LPSA33    6               4.0000000000
     35941      1158  AHEP      C6            -39.4299420191      -33.7268537126       25.4906533340  LPSA33    6               4.0000000000
     35942      1158  AHEP      H6            -39.4657866080      -34.8008189151       25.3442628137  LPSA33    6               4.0000000000
     35943      1158  AHEP      O6            -40.4606916336      -33.2252418478       24.6375675438  LPSA33    6               4.0000000000
     35944      1158  AHEP      HO6           -40.1089107468      -32.5993710086       23.9977784313  LPSA33    6               4.0000000000
     35945      1158  AHEP      C7            -38.0287627384      -33.2875804255       25.1799756221  LPSA33    6               4.0000000000
     35946      1158  AHEP      H71           -37.7901089667      -33.6420652908       24.1408078076  LPSA33    6               4.0000000000
     35947      1158  AHEP      H72           -37.3829891396      -33.7853874480       25.9252229174  LPSA33    6               4.0000000000
     35948      1158  AHEP      O7            -37.8343845789      -31.9060166223       25.2517430265  LPSA33    6               4.0000000000
     35949      1158  AHEP      HO7           -37.6648994320      -31.7372535627       26.2011285002  LPSA33    6               4.0000000000
     35950      1159  AGLC      C1            -39.2707631103      -27.5312016085       35.6520976122  LPSA33    7               4.0000000000
     35951      1159  AGLC      H1            -38.3265039033      -27.0647026538       35.2047739589  LPSA33    7               4.0000000000
     35952      1159  AGLC      C5            -41.5515640106      -27.1278512235       36.0987679218  LPSA33    7               4.0000000000
     35953      1159  AGLC      H5            -41.8186325269      -28.1607129835       35.8327124756  LPSA33    7               4.0000000000
     35954      1159  AGLC      O5            -40.3968970707      -26.7305299860       35.4366254460  LPSA33    7               4.0000000000
     35955      1159  AGLC      C2            -39.0570038053      -27.5340838691       37.1582745954  LPSA33    7               4.0000000000
     35956      1159  AGLC      H2            -39.0223357343      -26.4342261887       37.4887389927  LPSA33    7               4.0000000000
     35957      1159  AGLC      O2            -37.7317994280      -27.9829227253       37.5024056006  LPSA33    7               4.0000000000
     35958      1159  AGLC      HO2           -37.8146395759      -28.9234025432       37.6430208865  LPSA33    7               4.0000000000
     35959      1159  AGLC      C3            -40.1615907659      -27.9674417718       37.9903802326  LPSA33    7               4.0000000000
     35960      1159  AGLC      H3            -40.3416908723      -28.9952393876       37.6727250444  LPSA33    7               4.0000000000
     35961      1159  AGLC      O3            -39.9141353698      -28.0930057978       39.4204481292  LPSA33    7               4.0000000000
     35962      1159  AGLC      C4            -41.2811275559      -27.0502238614       37.5928595998  LPSA33    7               4.0000000000
     35963      1159  AGLC      H4            -41.0673708027      -25.9782892877       37.9560286200  LPSA33    7               4.0000000000
     35964      1159  AGLC      O4            -42.4559911664      -27.6031588153       38.2243117391  LPSA33    7               4.0000000000
     35965      1159  AGLC      HO4           -43.0114766857      -26.9620530008       38.6132003238  LPSA33    7               4.0000000000
     35966      1159  AGLC      C6            -42.7731619055      -26.3674761336       35.5245160098  LPSA33    7               4.0000000000
     35967      1159  AGLC      H61           -42.7365743142      -26.5039374602       34.4135318240  LPSA33    7               4.0000000000
     35968      1159  AGLC      H62           -43.7846420257      -26.6680470682       35.8722646349  LPSA33    7               4.0000000000
     35969      1159  AGLC      O6            -42.5205239733      -24.9388835603       35.6892983147  LPSA33    7               4.0000000000
     35970      1159  AGLC      HO6           -43.0313122602      -24.7860610008       36.4386090630  LPSA33    7               4.0000000000
     35971      1160  AGLC      C1            -39.9598820603      -29.3772409171       39.9328324507  LPSA33    8               5.0000000000
     35972      1160  AGLC      H1            -40.8752867659      -29.8893245280       39.5884769495  LPSA33    8               5.0000000000
     35973      1160  AGLC      C5            -37.5281217693      -29.7904134806       40.2153373402  LPSA33    8               5.0000000000
     35974      1160  AGLC      H5            -37.3398919707      -28.7772248091       39.8400606936  LPSA33    8               5.0000000000
     35975      1160  AGLC      O5            -38.7879022663      -30.2049879922       39.6195505863  LPSA33    8               5.0000000000
     35976      1160  AGLC      C2            -40.0647819540      -29.3536216736       41.4170311384  LPSA33    8               5.0000000000
     35977      1160  AGLC      H2            -40.2659315634      -30.4230557531       41.6529594578  LPSA33    8               5.0000000000
     35978      1160  AGLC      O2            -41.2286932505      -28.7269926620       41.9438754185  LPSA33    8               5.0000000000
     35979      1160  AGLC      C3            -38.8444250117      -28.8940202904       42.1297388169  LPSA33    8               5.0000000000
     35980      1160  AGLC      H3            -38.7510489258      -27.8685722488       41.6567950186  LPSA33    8               5.0000000000
     35981      1160  AGLC      O3            -39.0970027903      -28.8059005406       43.5370978028  LPSA33    8               5.0000000000
     35982      1160  AGLC      C4            -37.7613717250      -29.7943587933       41.7603093222  LPSA33    8               5.0000000000
     35983      1160  AGLC      H4            -37.9920764847      -30.8055779456       42.0401368658  LPSA33    8               5.0000000000
     35984      1160  AGLC      O4            -36.5586783539      -29.4226186233       42.3914819843  LPSA33    8               5.0000000000
     35985      1160  AGLC      HO4           -36.5000968151      -28.4986986870       42.3800652601  LPSA33    8               5.0000000000
     35986      1160  AGLC      C6            -36.2632588908      -30.5408803229       39.7357334439  LPSA33    8               5.0000000000
     35987      1160  AGLC      H61           -36.2127481813      -30.6859138306       38.6468043611  LPSA33    8               5.0000000000
     35988      1160  AGLC      H62           -35.3325241372      -30.0911785592       40.0276014644  LPSA33    8               5.0000000000
     35989      1160  AGLC      O6            -36.1016998102      -31.8070092428       40.3040784562  LPSA33    8               5.0000000000
     35990      1160  AGLC      HO6           -35.7427522052      -31.7651342098       41.2121845210  LPSA33    8               5.0000000000
     35991      1161  AGAL      C1            -42.4854116493      -29.0898295541       41.4573847493  LPSA33    9               6.0000000000
     35992      1161  AGAL      H1            -42.4679866898      -29.1346416139       40.3420235153  LPSA33    9               6.0000000000
     35993      1161  AGAL      C5            -43.2561396865      -30.4173647982       43.2125447641  LPSA33    9               6.0000000000
     35994      1161  AGAL      H5            -42.3235759385      -29.9764992175       43.7424973645  LPSA33    9               6.0000000000
     35995      1161  AGAL      O5            -43.0240625100      -30.3914687389       41.8451689838  LPSA33    9               6.0000000000
     35996      1161  AGAL      C2            -43.4656541183      -28.0125954510       41.8393925249  LPSA33    9               6.0000000000
     35997      1161  AGAL      H2            -44.4305704134      -28.2441402397       41.4115621152  LPSA33    9               6.0000000000
     35998      1161  AGAL      O2            -43.1967437898      -26.7712436840       41.1608705954  LPSA33    9               6.0000000000
     35999      1161  AGAL      C3            -43.7454539583      -28.0089830857       43.3264191845  LPSA33    9               6.0000000000
     36000      1161  AGAL      H3            -42.7856957973      -27.7246285190       43.9424563891  LPSA33    9               6.0000000000
     36001      1161  AGAL      O3            -44.5739295459      -26.9681294451       43.7491515633  LPSA33    9               6.0000000000
     36002      1161  AGAL      HO3           -44.3847692860      -26.2242368902       43.1585960960  LPSA33    9               6.0000000000
     36003      1161  AGAL      C4            -44.2700463536      -29.3500188448       43.6505755014  LPSA33    9               6.0000000000
     36004      1161  AGAL      H4            -44.4192213787      -29.5086243742       44.7734818408  LPSA33    9               6.0000000000
     36005      1161  AGAL      O4            -45.4868881385      -29.6700250926       43.0499075873  LPSA33    9               6.0000000000
     36006      1161  AGAL      HO4           -45.9462891080      -30.2653735682       43.6622427513  LPSA33    9               6.0000000000
     36007      1161  AGAL      C6            -43.3516508268      -31.8110937273       43.8349081587  LPSA33    9               6.0000000000
     36008      1161  AGAL      H61           -42.4520857332      -32.4506245491       43.6417203355  LPSA33    9               6.0000000000
     36009      1161  AGAL      H62           -43.4270518026      -31.8208872022       44.9292747136  LPSA33    9               6.0000000000
     36010      1161  AGAL      O6            -44.4968007355      -32.4841564070       43.4062227539  LPSA33    9               6.0000000000
     36011      1161  AGAL      HO6           -44.2196665941      -33.0876454151       42.6923548993  LPSA33    9               6.0000000000
     36012      1162  AGAL      C1            -43.1069714373      -25.4534617241       41.7517281777  LPSA33    10              7.0000000000
     36013      1162  AGAL      H1            -44.1588761765      -25.1509843458       41.8429972083  LPSA33    10              7.0000000000
     36014      1162  AGAL      C5            -41.0894542218      -25.5238129052       43.0613392294  LPSA33    10              7.0000000000
     36015      1162  AGAL      H5            -40.9660718324      -26.6108282849       42.6233508762  LPSA33    10              7.0000000000
     36016      1162  AGAL      O5            -42.4941204790      -25.2049086977       43.0470213554  LPSA33    10              7.0000000000
     36017      1162  AGAL      C2            -42.3783973836      -24.5695957077       40.7227968417  LPSA33    10              7.0000000000
     36018      1162  AGAL      H2            -42.6152381525      -23.4819270982       41.0433947026  LPSA33    10              7.0000000000
     36019      1162  AGAL      O2            -43.0605473884      -24.4295129738       39.5532095562  LPSA33    10              7.0000000000
     36020      1162  AGAL      HO2           -43.1883617989      -23.5136495127       39.3379401176  LPSA33    10              7.0000000000
     36021      1162  AGAL      C3            -40.9162178483      -24.8382013262       40.6928251787  LPSA33    10              7.0000000000
     36022      1162  AGAL      H3            -40.8624698960      -25.9014404898       40.4679648945  LPSA33    10              7.0000000000
     36023      1162  AGAL      O3            -40.1876598236      -24.0815118811       39.7732034444  LPSA33    10              7.0000000000
     36024      1162  AGAL      HO3           -39.9549220256      -24.6725763882       39.0151094934  LPSA33    10              7.0000000000
     36025      1162  AGAL      C4            -40.3505062548      -24.6079135612       42.0524071915  LPSA33    10              7.0000000000
     36026      1162  AGAL      H4            -39.2835853335      -24.8979393151       42.1099272557  LPSA33    10              7.0000000000
     36027      1162  AGAL      O4            -40.4390571702      -23.2853461032       42.4965010455  LPSA33    10              7.0000000000
     36028      1162  AGAL      HO4           -41.3643976493      -23.1339372446       42.5675127347  LPSA33    10              7.0000000000
     36029      1162  AGAL      C6            -40.4172389885      -25.5739442725       44.3959537205  LPSA33    10              7.0000000000
     36030      1162  AGAL      H61           -40.9540165157      -26.1974107948       45.1044438806  LPSA33    10              7.0000000000
     36031      1162  AGAL      H62           -39.3733728064      -26.1385919752       44.2564473849  LPSA33    10              7.0000000000
     36032      1162  AGAL      O6            -40.1215878503      -24.3556969843       45.1112340130  LPSA33    10              7.0000000000
     36033      1162  AGAL      HO6           -40.6595373721      -24.3491349713       45.9237589285  LPSA33    10              7.0000000000
     36034      1163  BGLC      C1            -38.8180002045      -29.8043658283       44.5018065681  LPSA33    11              6.0000000000
     36035      1163  BGLC      H1            -37.7432601187      -29.7432022725       44.5883763758  LPSA33    11              6.0000000000
     36036      1163  BGLC      C5            -39.0971506766      -32.2152264855       45.1248117688  LPSA33    11              6.0000000000
     36037      1163  BGLC      H5            -37.9910292621      -32.3603793570       45.3871201921  LPSA33    11              6.0000000000
     36038      1163  BGLC      O5            -39.3410182717      -31.1276150495       44.0830650888  LPSA33    11              6.0000000000
     36039      1163  BGLC      C2            -39.4965174020      -29.4400181127       45.7977571702  LPSA33    11              6.0000000000
     36040      1163  BGLC      H2            -40.6034319282      -29.2892684800       45.7293388291  LPSA33    11              6.0000000000
     36041      1163  BGLC      O2            -39.0259623941      -28.1320283508       46.0886391483  LPSA33    11              6.0000000000
     36042      1163  BGLC      HO2           -39.7606463844      -27.5810068446       46.2788110113  LPSA33    11              6.0000000000
     36043      1163  BGLC      C3            -39.3178234927      -30.4290084941       46.8736276645  LPSA33    11              6.0000000000
     36044      1163  BGLC      H3            -38.1932882657      -30.4201332356       47.1984917368  LPSA33    11              6.0000000000
     36045      1163  BGLC      O3            -40.0489815643      -29.9720857730       48.0056213318  LPSA33    11              6.0000000000
     36046      1163  BGLC      C4            -39.7814025237      -31.7302992489       46.4390836423  LPSA33    11              6.0000000000
     36047      1163  BGLC      H4            -40.8909855173      -31.6031239366       46.2001611147  LPSA33    11              6.0000000000
     36048      1163  BGLC      O4            -39.7132328118      -32.6944684343       47.4766894645  LPSA33    11              6.0000000000
     36049      1163  BGLC      HO4           -40.3962777430      -32.4851916197       48.1247908570  LPSA33    11              6.0000000000
     36050      1163  BGLC      C6            -39.4904130689      -33.5780920538       44.5291127165  LPSA33    11              6.0000000000
     36051      1163  BGLC      H61           -39.6701498571      -34.3657876323       45.2481190913  LPSA33    11              6.0000000000
     36052      1163  BGLC      H62           -40.3923703948      -33.4018822699       43.8913252379  LPSA33    11              6.0000000000
     36053      1163  BGLC      O6            -38.5453559945      -34.1147519389       43.5637942269  LPSA33    11              6.0000000000
     36054      1163  BGLC      HO6           -38.1994337351      -34.8541747473       44.0054369298  LPSA33    11              6.0000000000
     36055      1164  BGLCNA    C1            -39.4648689785      -29.8619827543       49.3238540420  LPSA33    12              7.0000000000
     36056      1164  BGLCNA    H1            -38.9675442241      -28.8358963261       49.3874222992  LPSA33    12              7.0000000000
     36057      1164  BGLCNA    C5            -37.8362556705      -30.6890139521       50.8763077070  LPSA33    12              7.0000000000
     36058      1164  BGLCNA    H5            -37.3198433471      -29.6319298098       50.9814236466  LPSA33    12              7.0000000000
     36059      1164  BGLCNA    O5            -38.4741756069      -30.8806037435       49.5875345322  LPSA33    12              7.0000000000
     36060      1164  BGLCNA    C2            -40.5647040690      -29.9915771510       50.3245054808  LPSA33    12              7.0000000000
     36061      1164  BGLCNA    H2            -40.8676570927      -31.1235507664       50.3375086743  LPSA33    12              7.0000000000
     36062      1164  BGLCNA    N             -41.6427251168      -29.0260750110       50.0347611965  LPSA33    12              7.0000000000
     36063      1164  BGLCNA    HN            -41.2619970320      -28.1622636595       49.9972643287  LPSA33    12              7.0000000000
     36064      1164  BGLCNA    C             -42.8720781768      -29.4180532509       49.8903426450  LPSA33    12              7.0000000000
     36065      1164  BGLCNA    O             -43.1650688972      -30.5892115852       50.0855928044  LPSA33    12              7.0000000000
     36066      1164  BGLCNA    CT            -43.8853334990      -28.3622902850       49.5677689528  LPSA33    12              7.0000000000
     36067      1164  BGLCNA    HT1           -44.6049931302      -28.2080272662       50.3918503408  LPSA33    12              7.0000000000
     36068      1164  BGLCNA    HT2           -44.5997664334      -28.7447020280       48.7104760971  LPSA33    12              7.0000000000
     36069      1164  BGLCNA    HT3           -43.3123335974      -27.4628958498       49.2316245990  LPSA33    12              7.0000000000
     36070      1164  BGLCNA    C3            -40.0509896525      -29.7936362311       51.6995695120  LPSA33    12              7.0000000000
     36071      1164  BGLCNA    H3            -39.6545998459      -28.6876034262       51.8605307917  LPSA33    12              7.0000000000
     36072      1164  BGLCNA    O3            -41.0774631199      -29.8566155074       52.7272334264  LPSA33    12              7.0000000000
     36073      1164  BGLCNA    C4            -38.9792903722      -30.8039046682       51.9591692987  LPSA33    12              7.0000000000
     36074      1164  BGLCNA    H4            -39.3344561073      -31.9017539715       51.9037868612  LPSA33    12              7.0000000000
     36075      1164  BGLCNA    O4            -38.4341642836      -30.6698097589       53.2294962294  LPSA33    12              7.0000000000
     36076      1164  BGLCNA    HO4           -37.8136614491      -29.8853524433       53.2834945119  LPSA33    12              7.0000000000
     36077      1164  BGLCNA    C6            -36.6773793877      -31.7036532181       50.9528560558  LPSA33    12              7.0000000000
     36078      1164  BGLCNA    H61           -36.2193722287      -31.6748149639       51.9144325068  LPSA33    12              7.0000000000
     36079      1164  BGLCNA    H62           -37.1787924783      -32.6571543976       50.8287962869  LPSA33    12              7.0000000000
     36080      1164  BGLCNA    O6            -35.8092013540      -31.5413590147       49.8597561973  LPSA33    12              7.0000000000
     36081      1164  BGLCNA    HO6           -35.1764817516      -30.9183769400       50.1903398796  LPSA33    12              7.0000000000
     36082      1165  AGAL      C1            -40.9666516492      -28.8809458320       53.8132743488  LPSA33    13              8.0000000000
     36083      1165  AGAL      H1            -39.9216866754      -28.8782683927       54.1959401301  LPSA33    13              8.0000000000
     36084      1165  AGAL      C5            -42.9775287624      -27.6574360016       53.2950732168  LPSA33    13              8.0000000000
     36085      1165  AGAL      H5            -43.1372486477      -28.4471149306       52.5641412600  LPSA33    13              8.0000000000
     36086      1165  AGAL      O5            -41.5572741024      -27.5713269362       53.4918445955  LPSA33    13              8.0000000000
     36087      1165  AGAL      C2            -41.7362775093      -29.2850771248       55.1010141246  LPSA33    13              8.0000000000
     36088      1165  AGAL      H2            -41.7420709823      -28.4180876617       55.7917211299  LPSA33    13              8.0000000000
     36089      1165  AGAL      O2            -41.1372003434      -30.3750042039       55.7701983428  LPSA33    13              8.0000000000
     36090      1165  AGAL      C3            -43.2687073515      -29.3642575850       54.8979691660  LPSA33    13              8.0000000000
     36091      1165  AGAL      H3            -43.4662369089      -30.0093363398       54.0477453328  LPSA33    13              8.0000000000
     36092      1165  AGAL      O3            -43.9400418814      -30.0125417766       55.9888739531  LPSA33    13              8.0000000000
     36093      1165  AGAL      HO3           -44.6406674505      -30.5804856004       55.6848713412  LPSA33    13              8.0000000000
     36094      1165  AGAL      C4            -43.7853063904      -28.0873659450       54.5514025965  LPSA33    13              8.0000000000
     36095      1165  AGAL      H4            -44.8824618748      -28.1643106693       54.1954731349  LPSA33    13              8.0000000000
     36096      1165  AGAL      O4            -43.6626582252      -27.1233423749       55.5743212917  LPSA33    13              8.0000000000
     36097      1165  AGAL      HO4           -42.8194040651      -27.0920523256       56.0499681296  LPSA33    13              8.0000000000
     36098      1165  AGAL      C6            -43.6009698673      -26.5064064261       52.5301443486  LPSA33    13              8.0000000000
     36099      1165  AGAL      H61           -43.0112862488      -26.3033341184       51.6253596531  LPSA33    13              8.0000000000
     36100      1165  AGAL      H62           -44.6822255326      -26.7423519851       52.3684678279  LPSA33    13              8.0000000000
     36101      1165  AGAL      O6            -43.5994188489      -25.3208653019       53.2985910507  LPSA33    13              8.0000000000
     36102      1165  AGAL      HO6           -44.3345609735      -25.3622239529       53.9299633642  LPSA33    13              8.0000000000
     36103      1166  ARHM      C1            -40.5188544609      -30.1877115218       57.0117786358  LPSA33    14              9.0000000000
     36104      1166  ARHM      H1            -40.1783331507      -29.1315567177       56.9981767125  LPSA33    14              9.0000000000
     36105      1166  ARHM      C5            -39.7010674882      -32.3597054952       57.1930138837  LPSA33    14              9.0000000000
     36106      1166  ARHM      H5            -40.2390009299      -32.5866092507       56.1976867078  LPSA33    14              9.0000000000
     36107      1166  ARHM      O5            -39.3802996363      -31.0189484023       57.1718909996  LPSA33    14              9.0000000000
     36108      1166  ARHM      C2            -41.5369743135      -30.4580650818       58.1413490634  LPSA33    14              9.0000000000
     36109      1166  ARHM      H2            -42.3819247334      -29.8305134588       57.8875987320  LPSA33    14              9.0000000000
     36110      1166  ARHM      O2            -41.0748752879      -30.2043341050       59.4330148990  LPSA33    14              9.0000000000
     36111      1166  ARHM      C3            -41.9288915210      -31.9070012030       58.1095432995  LPSA33    14              9.0000000000
     36112      1166  ARHM      H3            -42.2009857539      -32.1661826522       57.0440121713  LPSA33    14              9.0000000000
     36113      1166  ARHM      O3            -43.0622695147      -32.2255598209       58.8567888868  LPSA33    14              9.0000000000
     36114      1166  ARHM      HO3           -42.7591520598      -32.1966788745       59.8104957846  LPSA33    14              9.0000000000
     36115      1166  ARHM      C4            -40.6900728341      -32.6914759339       58.3490442956  LPSA33    14              9.0000000000
     36116      1166  ARHM      H4            -40.1333535091      -32.4722588727       59.2902338481  LPSA33    14              9.0000000000
     36117      1166  ARHM      O4            -41.0321786359      -34.1016357127       58.4446785014  LPSA33    14              9.0000000000
     36118      1166  ARHM      HO4           -40.9107143303      -34.5167918458       59.2969967688  LPSA33    14              9.0000000000
     36119      1166  ARHM      C6            -38.4165059120      -33.2037423702       57.2492155848  LPSA33    14              9.0000000000
     36120      1166  ARHM      H61           -37.5865564792      -32.8604695566       56.5358243550  LPSA33    14              9.0000000000
     36121      1166  ARHM      H62           -38.1173865493      -33.2164423343       58.3170764683  LPSA33    14              9.0000000000
     36122      1166  ARHM      H63           -38.4454838333      -34.2519139278       56.9421594120  LPSA33    14              9.0000000000
     36123      1167  ARHM      C1            -40.5009542766      -29.0289409500       59.7267990175  LPSA33    15             10.0000000000
     36124      1167  ARHM      H1            -40.8550208063      -28.2250556882       59.0458905905  LPSA33    15             10.0000000000
     36125      1167  ARHM      C5            -38.3642083064      -29.8979527813       60.6468530148  LPSA33    15             10.0000000000
     36126      1167  ARHM      H5            -38.5612875928      -30.9978809454       60.4457705401  LPSA33    15             10.0000000000
     36127      1167  ARHM      O5            -39.0527082288      -29.0579230282       59.6688136410  LPSA33    15             10.0000000000
     36128      1167  ARHM      C2            -40.8957206024      -28.6079571958       61.1407671534  LPSA33    15             10.0000000000
     36129      1167  ARHM      H2            -42.0457253265      -28.6985547517       61.2133420761  LPSA33    15             10.0000000000
     36130      1167  ARHM      O2            -40.4361941544      -27.2359710867       61.3234079317  LPSA33    15             10.0000000000
     36131      1167  ARHM      C3            -40.2749718783      -29.5560526775       62.1677656617  LPSA33    15             10.0000000000
     36132      1167  ARHM      H3            -40.5805003928      -30.5955275269       61.8628392879  LPSA33    15             10.0000000000
     36133      1167  ARHM      O3            -40.9824123644      -29.2941454170       63.4092175029  LPSA33    15             10.0000000000
     36134      1167  ARHM      C4            -38.8297305827      -29.4780086086       62.0487117432  LPSA33    15             10.0000000000
     36135      1167  ARHM      H4            -38.5176702326      -28.3622019041       62.1496903561  LPSA33    15             10.0000000000
     36136      1167  ARHM      O4            -38.0403122759      -30.2429414954       62.9635513464  LPSA33    15             10.0000000000
     36137      1167  ARHM      HO4           -37.1626429582      -29.8917220101       62.9565205260  LPSA33    15             10.0000000000
     36138      1167  ARHM      C6            -36.8713473530      -29.7736902540       60.4460959132  LPSA33    15             10.0000000000
     36139      1167  ARHM      H61           -36.2550933157      -30.4502123570       61.0956562646  LPSA33    15             10.0000000000
     36140      1167  ARHM      H62           -36.6421695243      -29.8049916837       59.3910198679  LPSA33    15             10.0000000000
     36141      1167  ARHM      H63           -36.4664678689      -28.8067188310       60.8578185328  LPSA33    15             10.0000000000
     36142      1168  BMANNA    C1            -40.7601017391      -26.5363935641       62.5145562334  LPSA33    16             11.0000000000
     36143      1168  BMANNA    H1            -40.1052236722      -26.9992975670       63.3432051365  LPSA33    16             11.0000000000
     36144      1168  BMANNA    C5            -42.3096119376      -25.9554867654       64.1851548173  LPSA33    16             11.0000000000
     36145      1168  BMANNA    H5            -41.6629569742      -26.3495432144       64.9800677769  LPSA33    16             11.0000000000
     36146      1168  BMANNA    O5            -42.1215044138      -26.6345901537       62.9158851071  LPSA33    16             11.0000000000
     36147      1168  BMANNA    C2            -40.3604400460      -25.0611670004       62.2781089586  LPSA33    16             11.0000000000
     36148      1168  BMANNA    H2            -39.2772380186      -25.1100064297       61.9912908466  LPSA33    16             11.0000000000
     36149      1168  BMANNA    N             -41.0536150186      -24.3116807658       61.2264456342  LPSA33    16             11.0000000000
     36150      1168  BMANNA    HN            -41.8537437432      -23.8767200636       61.5688724990  LPSA33    16             11.0000000000
     36151      1168  BMANNA    C             -40.6850533832      -24.2609592000       59.9704010620  LPSA33    16             11.0000000000
     36152      1168  BMANNA    O             -39.6254970883      -24.8077349332       59.5582221915  LPSA33    16             11.0000000000
     36153      1168  BMANNA    CT            -41.6006089928      -23.5033109595       59.1331689300  LPSA33    16             11.0000000000
     36154      1168  BMANNA    HT1           -41.2652852801      -22.5224777407       58.8344492748  LPSA33    16             11.0000000000
     36155      1168  BMANNA    HT2           -42.6166622984      -23.3729018919       59.5043001239  LPSA33    16             11.0000000000
     36156      1168  BMANNA    HT3           -41.7412030474      -24.0078975261       58.1231520073  LPSA33    16             11.0000000000
     36157      1168  BMANNA    C3            -40.5215735116      -24.3759036280       63.6119771117  LPSA33    16             11.0000000000
     36158      1168  BMANNA    H3            -39.8810213784      -24.8769474652       64.3839812837  LPSA33    16             11.0000000000
     36159      1168  BMANNA    O3            -40.0957281305      -23.0437450471       63.6122488842  LPSA33    16             11.0000000000
     36160      1168  BMANNA    HO3           -39.4549796384      -22.8951764955       64.2950500102  LPSA33    16             11.0000000000
     36161      1168  BMANNA    C4            -41.9722484238      -24.4540901707       64.1045846713  LPSA33    16             11.0000000000
     36162      1168  BMANNA    H4            -42.6737402159      -23.9504553993       63.4124605202  LPSA33    16             11.0000000000
     36163      1168  BMANNA    O4            -42.2645723561      -23.8582777009       65.3816866120  LPSA33    16             11.0000000000
     36164      1168  BMANNA    HO4           -43.1899777913      -23.6237508822       65.4353184152  LPSA33    16             11.0000000000
     36165      1168  BMANNA    C6            -43.7268560687      -26.1399044013       64.7427751243  LPSA33    16             11.0000000000
     36166      1168  BMANNA    H61           -43.6445167998      -26.1067596754       65.8875394407  LPSA33    16             11.0000000000
     36167      1168  BMANNA    H62           -44.3834256832      -25.3218188565       64.4389269682  LPSA33    16             11.0000000000
     36168      1168  BMANNA    O6            -44.3539724506      -27.3819972139       64.3660927576  LPSA33    16             11.0000000000
     36169      1168  BMANNA    HO6           -45.1601328266      -27.0624684324       63.9036969990  LPSA33    16             11.0000000000
     36170      1169  BGLCNA    C1            -41.2382990742      -30.3746412831       64.1715778089  LPSA33    17             11.0000000000
     36171      1169  BGLCNA    H1            -40.4563943160      -31.1961046310       63.9082176002  LPSA33    17             11.0000000000
     36172      1169  BGLCNA    C5            -42.8484011878      -32.1721731293       64.5563394407  LPSA33    17             11.0000000000
     36173      1169  BGLCNA    H5            -42.1097831005      -33.0153531084       64.2825289487  LPSA33    17             11.0000000000
     36174      1169  BGLCNA    O5            -42.4876323058      -31.0163941692       63.7849982893  LPSA33    17             11.0000000000
     36175      1169  BGLCNA    C2            -41.2548789714      -29.9360014587       65.5899343931  LPSA33    17             11.0000000000
     36176      1169  BGLCNA    H2            -42.0494288049      -29.1499253421       65.8249043900  LPSA33    17             11.0000000000
     36177      1169  BGLCNA    N             -40.0737562900      -29.2305881233       65.8849826081  LPSA33    17             11.0000000000
     36178      1169  BGLCNA    HN            -39.2143642336      -29.5069786062       65.4150135415  LPSA33    17             11.0000000000
     36179      1169  BGLCNA    C             -39.8388573293      -28.3113374920       66.8043620798  LPSA33    17             11.0000000000
     36180      1169  BGLCNA    O             -40.7399513556      -27.8191536546       67.4729873017  LPSA33    17             11.0000000000
     36181      1169  BGLCNA    CT            -38.4245118657      -27.9041006056       66.9728872304  LPSA33    17             11.0000000000
     36182      1169  BGLCNA    HT1           -38.0732364195      -26.9442175500       66.5529393721  LPSA33    17             11.0000000000
     36183      1169  BGLCNA    HT2           -37.7950342431      -28.7744311125       66.7043805047  LPSA33    17             11.0000000000
     36184      1169  BGLCNA    HT3           -38.1720612793      -27.7980374048       68.1408097225  LPSA33    17             11.0000000000
     36185      1169  BGLCNA    C3            -41.5167894506      -31.1809191330       66.4076579941  LPSA33    17             11.0000000000
     36186      1169  BGLCNA    H3            -40.6818767748      -31.8691780730       66.0441361901  LPSA33    17             11.0000000000
     36187      1169  BGLCNA    O3            -41.2704092753      -30.8421719000       67.8205355914  LPSA33    17             11.0000000000
     36188      1169  BGLCNA    C4            -42.8937445408      -31.7225171003       66.0496966154  LPSA33    17             11.0000000000
     36189      1169  BGLCNA    H4            -43.6959120247      -30.9063989127       66.1123142204  LPSA33    17             11.0000000000
     36190      1169  BGLCNA    O4            -43.3103841421      -32.7561745809       66.9186044206  LPSA33    17             11.0000000000
     36191      1169  BGLCNA    HO4           -44.1488720866      -33.1555649091       66.7204061560  LPSA33    17             11.0000000000
     36192      1169  BGLCNA    C6            -44.2398548800      -32.6713109886       64.1200051697  LPSA33    17             11.0000000000
     36193      1169  BGLCNA    H61           -44.2645820499      -33.7436045818       64.1272946536  LPSA33    17             11.0000000000
     36194      1169  BGLCNA    H62           -45.0492220693      -32.2995841081       64.8212395067  LPSA33    17             11.0000000000
     36195      1169  BGLCNA    O6            -44.5824576059      -32.2497249859       62.7926115083  LPSA33    17             11.0000000000
     36196      1169  BGLCNA    HO6           -43.9310993303      -32.5829107265       62.1856770532  LPSA33    17             11.0000000000
     36197      1170  AGAL      C1            -40.6786047284      -31.8978933714       68.6198653987  LPSA33    18             12.0000000000
     36198      1170  AGAL      H1            -41.4868368471      -32.6651280621       68.8082567594  LPSA33    18             12.0000000000
     36199      1170  AGAL      C5            -38.4160722386      -31.6210129357       67.8636918791  LPSA33    18             12.0000000000
     36200      1170  AGAL      H5            -38.7576973946      -30.6878923384       67.4068928888  LPSA33    18             12.0000000000
     36201      1170  AGAL      O5            -39.5810185640      -32.5149278745       67.9834320655  LPSA33    18             12.0000000000
     36202      1170  AGAL      C2            -40.1396550839      -31.3604017244       70.0000206359  LPSA33    18             12.0000000000
     36203      1170  AGAL      H2            -39.7227434752      -32.3170403429       70.3908489884  LPSA33    18             12.0000000000
     36204      1170  AGAL      O2            -41.1971321726      -31.0212457200       70.8342757016  LPSA33    18             12.0000000000
     36205      1170  AGAL      C3            -38.9873367457      -30.4265338469       69.8682924558  LPSA33    18             12.0000000000
     36206      1170  AGAL      H3            -39.2738244355      -29.6027555306       69.0958348126  LPSA33    18             12.0000000000
     36207      1170  AGAL      O3            -38.6518203201      -29.8121479852       71.0758896640  LPSA33    18             12.0000000000
     36208      1170  AGAL      HO3           -38.5200999975      -28.8685393346       70.9682873819  LPSA33    18             12.0000000000
     36209      1170  AGAL      C4            -37.8907346678      -31.1165408204       69.1634745928  LPSA33    18             12.0000000000
     36210      1170  AGAL      H4            -37.0067649993      -30.4878329441       68.9039691178  LPSA33    18             12.0000000000
     36211      1170  AGAL      O4            -37.3660175338      -32.2009810643       69.9734134928  LPSA33    18             12.0000000000
     36212      1170  AGAL      HO4           -36.7980331139      -31.8084937522       70.7236544006  LPSA33    18             12.0000000000
     36213      1170  AGAL      C6            -37.5600475616      -32.1570131452       66.8042742825  LPSA33    18             12.0000000000
     36214      1170  AGAL      H61           -38.1520133929      -32.1437210364       65.8877991861  LPSA33    18             12.0000000000
     36215      1170  AGAL      H62           -36.7362840239      -31.4082821717       66.6499463921  LPSA33    18             12.0000000000
     36216      1170  AGAL      O6            -37.1099069442      -33.4014823728       66.9803033045  LPSA33    18             12.0000000000
     36217      1170  AGAL      HO6           -37.5064649274      -33.9228559339       67.6707071977  LPSA33    18             12.0000000000
     36218      1171  ARHM      C1            -40.9379200981      -31.4956872603       72.1803514454  LPSA33    19             13.0000000000
     36219      1171  ARHM      H1            -39.8917916993      -31.6818015320       72.3185909119  LPSA33    19             13.0000000000
     36220      1171  ARHM      C5            -42.8630216449      -32.8785134464       72.2512180912  LPSA33    19             13.0000000000
     36221      1171  ARHM      H5            -43.0812280497      -32.5169375794       71.2133247196  LPSA33    19             13.0000000000
     36222      1171  ARHM      O5            -41.4453026575      -32.8168000764       72.4162684983  LPSA33    19             13.0000000000
     36223      1171  ARHM      C2            -41.5301618652      -30.5022307447       73.1100514097  LPSA33    19             13.0000000000
     36224      1171  ARHM      H2            -41.2606075305      -29.4913639226       72.9420985559  LPSA33    19             13.0000000000
     36225      1171  ARHM      O2            -41.1841927665      -30.8216979098       74.4131644751  LPSA33    19             13.0000000000
     36226      1171  ARHM      C3            -43.0824105843      -30.5984044426       72.9859276785  LPSA33    19             13.0000000000
     36227      1171  ARHM      H3            -43.3301987354      -30.3957199268       71.9471750908  LPSA33    19             13.0000000000
     36228      1171  ARHM      O3            -43.7069738247      -29.6427090220       73.7644258584  LPSA33    19             13.0000000000
     36229      1171  ARHM      HO3           -43.3243567030      -29.7093397250       74.6464134549  LPSA33    19             13.0000000000
     36230      1171  ARHM      C4            -43.5987166967      -31.9506589048       73.2443334127  LPSA33    19             13.0000000000
     36231      1171  ARHM      H4            -43.2959899978      -32.1954160512       74.2703943704  LPSA33    19             13.0000000000
     36232      1171  ARHM      O4            -44.9829703999      -32.0862297779       73.1708570575  LPSA33    19             13.0000000000
     36233      1171  ARHM      HO4           -45.2204019725      -31.9092855804       72.2126258713  LPSA33    19             13.0000000000
     36234      1171  ARHM      C6            -43.3702202182      -34.3309283154       72.3031700958  LPSA33    19             13.0000000000
     36235      1171  ARHM      H61           -42.7803675706      -34.7776835072       71.5186681997  LPSA33    19             13.0000000000
     36236      1171  ARHM      H62           -43.1908731546      -34.8786404047       73.2001761489  LPSA33    19             13.0000000000
     36237      1171  ARHM      H63           -44.4380726490      -34.4272891616       72.0875448643  LPSA33    19             13.0000000000
     36238      1172  ARHM      C1            -39.8686215182      -30.4767793870       74.6981797177  LPSA33    20             14.0000000000
     36239      1172  ARHM      H1            -39.4014313679      -29.8201470480       73.8936196974  LPSA33    20             14.0000000000
     36240      1172  ARHM      C5            -39.2325516634      -32.3884487635       75.9960310464  LPSA33    20             14.0000000000
     36241      1172  ARHM      H5            -40.2855820142      -32.7198940555       75.8071112250  LPSA33    20             14.0000000000
     36242      1172  ARHM      O5            -38.9390440515      -31.5467888687       74.8741575474  LPSA33    20             14.0000000000
     36243      1172  ARHM      C2            -39.8299704581      -29.5946848094       75.9438944127  LPSA33    20             14.0000000000
     36244      1172  ARHM      H2            -40.6520978620      -28.7784227804       75.7904987900  LPSA33    20             14.0000000000
     36245      1172  ARHM      O2            -38.5342584192      -29.0128653333       76.2145535291  LPSA33    20             14.0000000000
     36246      1172  ARHM      C3            -40.1400168695      -30.4778769632       77.0746584307  LPSA33    20             14.0000000000
     36247      1172  ARHM      H3            -41.1965964964      -30.9237067179       76.9570890266  LPSA33    20             14.0000000000
     36248      1172  ARHM      O3            -40.2016807342      -29.6222110953       78.2431898216  LPSA33    20             14.0000000000
     36249      1172  ARHM      C4            -39.1684689016      -31.6015238092       77.2147849866  LPSA33    20             14.0000000000
     36250      1172  ARHM      H4            -38.1529367113      -31.2707024938       77.2882629629  LPSA33    20             14.0000000000
     36251      1172  ARHM      O4            -39.4656784189      -32.3287625539       78.4294019453  LPSA33    20             14.0000000000
     36252      1172  ARHM      HO4           -39.1684942376      -33.1427174551       78.0714846557  LPSA33    20             14.0000000000
     36253      1172  ARHM      C6            -38.3555376743      -33.5701008730       75.9818768401  LPSA33    20             14.0000000000
     36254      1172  ARHM      H61           -37.2348507041      -33.4317293780       76.0487105533  LPSA33    20             14.0000000000
     36255      1172  ARHM      H62           -38.6709670728      -34.2793349426       76.7492574554  LPSA33    20             14.0000000000
     36256      1172  ARHM      H63           -38.3997751591      -34.1770175521       75.0059134709  LPSA33    20             14.0000000000
     36257      1173  BMANNA    C1            -38.4640719113      -27.8643256691       75.4501725836  LPSA33    21             15.0000000000
     36258      1173  BMANNA    H1            -39.3086507804      -27.8250868198       74.6495731600  LPSA33    21             15.0000000000
     36259      1173  BMANNA    C5            -37.3666689354      -26.7491424985       73.6578092950  LPSA33    21             15.0000000000
     36260      1173  BMANNA    H5            -38.3578330417      -26.6132972345       73.0422409194  LPSA33    21             15.0000000000
     36261      1173  BMANNA    O5            -37.3078119412      -27.9176643602       74.5460975074  LPSA33    21             15.0000000000
     36262      1173  BMANNA    C2            -38.4085874682      -26.6553789515       76.3268603500  LPSA33    21             15.0000000000
     36263      1173  BMANNA    H2            -39.3534038908      -26.7428336195       76.8663433126  LPSA33    21             15.0000000000
     36264      1173  BMANNA    N             -37.2863917515      -26.7052745282       77.2602735953  LPSA33    21             15.0000000000
     36265      1173  BMANNA    HN            -36.4146380780      -26.8660418888       76.8630196157  LPSA33    21             15.0000000000
     36266      1173  BMANNA    C             -37.3208877521      -26.2735847912       78.6142451918  LPSA33    21             15.0000000000
     36267      1173  BMANNA    O             -38.2892640627      -25.6394610595       79.0340579138  LPSA33    21             15.0000000000
     36268      1173  BMANNA    CT            -36.0986639502      -26.5669427625       79.5125915666  LPSA33    21             15.0000000000
     36269      1173  BMANNA    HT1           -35.3196744140      -25.7971619733       79.3040814335  LPSA33    21             15.0000000000
     36270      1173  BMANNA    HT2           -35.8140898967      -27.6152638140       79.3224353366  LPSA33    21             15.0000000000
     36271      1173  BMANNA    HT3           -36.3849462479      -26.4721379000       80.6000991146  LPSA33    21             15.0000000000
     36272      1173  BMANNA    C3            -38.4407669748      -25.4586792030       75.4428482744  LPSA33    21             15.0000000000
     36273      1173  BMANNA    H3            -39.4256675330      -25.5609180598       75.0091666053  LPSA33    21             15.0000000000
     36274      1173  BMANNA    O3            -38.4217595536      -24.2439200955       76.1769203835  LPSA33    21             15.0000000000
     36275      1173  BMANNA    HO3           -37.6676809304      -24.2654692136       76.7354970047  LPSA33    21             15.0000000000
     36276      1173  BMANNA    C4            -37.2760727258      -25.4822606808       74.4866217523  LPSA33    21             15.0000000000
     36277      1173  BMANNA    H4            -36.2004332626      -25.3747752655       75.0002820064  LPSA33    21             15.0000000000
     36278      1173  BMANNA    O4            -37.2800321499      -24.3879445822       73.6152290754  LPSA33    21             15.0000000000
     36279      1173  BMANNA    HO4           -36.5007025586      -23.8096236058       73.7703874424  LPSA33    21             15.0000000000
     36280      1173  BMANNA    C6            -36.3545187040      -26.8026841361       72.6348027846  LPSA33    21             15.0000000000
     36281      1173  BMANNA    H61           -36.4773804116      -26.0281718047       71.8494922130  LPSA33    21             15.0000000000
     36282      1173  BMANNA    H62           -35.3776281717      -26.4398053457       73.0558617198  LPSA33    21             15.0000000000
     36283      1173  BMANNA    O6            -36.0751748635      -28.0459568910       72.0654385618  LPSA33    21             15.0000000000
     36284      1173  BMANNA    HO6           -35.8841597986      -28.6543153967       72.7784055652  LPSA33    21             15.0000000000
     36285      1174  BGLCNA    C1            -41.1490195339      -29.8537640718       79.2248726046  LPSA33    22             15.0000000000
     36286      1174  BGLCNA    H1            -41.5144146565      -30.9211826591       79.2753119810  LPSA33    22             15.0000000000
     36287      1174  BGLCNA    C5            -43.3309500334      -29.3640227223       80.1145289529  LPSA33    22             15.0000000000
     36288      1174  BGLCNA    H5            -43.5257239740      -30.5177931828       80.0727605020  LPSA33    22             15.0000000000
     36289      1174  BGLCNA    O5            -42.3194492414      -29.1033408345       79.0803056561  LPSA33    22             15.0000000000
     36290      1174  BGLCNA    C2            -40.5311998988      -29.5287135043       80.5602818744  LPSA33    22             15.0000000000
     36291      1174  BGLCNA    H2            -40.3090219042      -28.4073695258       80.4633107900  LPSA33    22             15.0000000000
     36292      1174  BGLCNA    N             -39.3151653807      -30.3008709026       80.7025670875  LPSA33    22             15.0000000000
     36293      1174  BGLCNA    HN            -39.3738139960      -31.2428171708       80.4501896382  LPSA33    22             15.0000000000
     36294      1174  BGLCNA    C             -38.2328939730      -29.8880537845       81.3295640408  LPSA33    22             15.0000000000
     36295      1174  BGLCNA    O             -38.1782473648      -28.7563593357       81.8448112003  LPSA33    22             15.0000000000
     36296      1174  BGLCNA    CT            -37.0931515139      -30.8372394549       81.4359073222  LPSA33    22             15.0000000000
     36297      1174  BGLCNA    HT1           -36.5326967180      -30.6145922708       80.5353412834  LPSA33    22             15.0000000000
     36298      1174  BGLCNA    HT2           -37.4994611231      -31.8620969336       81.2752873926  LPSA33    22             15.0000000000
     36299      1174  BGLCNA    HT3           -36.5682619705      -30.8426260147       82.3679651303  LPSA33    22             15.0000000000
     36300      1174  BGLCNA    C3            -41.5136332156      -29.7601110751       81.6855161512  LPSA33    22             15.0000000000
     36301      1174  BGLCNA    H3            -41.8412852850      -30.8291441454       81.6419517197  LPSA33    22             15.0000000000
     36302      1174  BGLCNA    O3            -40.7831214450      -29.5497773044       82.8729300216  LPSA33    22             15.0000000000
     36303      1174  BGLCNA    C4            -42.7825844800      -28.9292708092       81.4704242134  LPSA33    22             15.0000000000
     36304      1174  BGLCNA    H4            -42.4591425203      -27.9232628239       81.4144045074  LPSA33    22             15.0000000000
     36305      1174  BGLCNA    O4            -43.7201954497      -29.0753336744       82.5140850489  LPSA33    22             15.0000000000
     36306      1174  BGLCNA    HO4           -44.1069317580      -28.2052181700       82.7130071916  LPSA33    22             15.0000000000
     36307      1174  BGLCNA    C6            -44.5721485754      -28.5718805391       79.7284495560  LPSA33    22             15.0000000000
     36308      1174  BGLCNA    H61           -45.1589312855      -28.5179545456       80.6924177192  LPSA33    22             15.0000000000
     36309      1174  BGLCNA    H62           -44.3184772434      -27.5232047193       79.4648784538  LPSA33    22             15.0000000000
     36310      1174  BGLCNA    O6            -45.4002555135      -29.2012383982       78.8100863794  LPSA33    22             15.0000000000
     36311      1174  BGLCNA    HO6           -44.8973535638      -29.3838365062       78.0328486455  LPSA33    22             15.0000000000
     36312      1175  AGAL      C1            -41.2408800252      -30.0814693164       84.0628261254  LPSA33    23             16.0000000000
     36313      1175  AGAL      H1            -42.0899197365      -29.4944441755       84.5106287163  LPSA33    23             16.0000000000
     36314      1175  AGAL      C5            -40.5797512602      -32.3488027425       83.7583018441  LPSA33    23             16.0000000000
     36315      1175  AGAL      H5            -39.9916482383      -31.9829212323       82.8366412438  LPSA33    23             16.0000000000
     36316      1175  AGAL      O5            -41.6418549821      -31.4538400820       83.9976212264  LPSA33    23             16.0000000000
     36317      1175  AGAL      C2            -40.1817706086      -29.9614320424       85.1427633740  LPSA33    23             16.0000000000
     36318      1175  AGAL      H2            -40.6383109281      -30.3856331094       86.0076373284  LPSA33    23             16.0000000000
     36319      1175  AGAL      O2            -39.8730865712      -28.6354844829       85.5000844886  LPSA33    23             16.0000000000
     36320      1175  AGAL      C3            -39.0124563117      -30.8569149862       84.9194901020  LPSA33    23             16.0000000000
     36321      1175  AGAL      H3            -38.6646420259      -30.6341276737       83.8641570193  LPSA33    23             16.0000000000
     36322      1175  AGAL      O3            -37.9053109027      -30.6283960433       85.7108298168  LPSA33    23             16.0000000000
     36323      1175  AGAL      HO3           -38.2704755976      -30.5445800987       86.6206525111  LPSA33    23             16.0000000000
     36324      1175  AGAL      C4            -39.5216141405      -32.2669685996       84.8901212015  LPSA33    23             16.0000000000
     36325      1175  AGAL      H4            -38.7245946157      -33.0070081921       84.6506069022  LPSA33    23             16.0000000000
     36326      1175  AGAL      O4            -40.0304948280      -32.7766801907       86.1132943683  LPSA33    23             16.0000000000
     36327      1175  AGAL      HO4           -40.6996641035      -33.3125131244       85.8278371007  LPSA33    23             16.0000000000
     36328      1175  AGAL      C6            -41.0931879078      -33.6967826386       83.3278962909  LPSA33    23             16.0000000000
     36329      1175  AGAL      H61           -41.8586706640      -33.5737478381       82.6074235255  LPSA33    23             16.0000000000
     36330      1175  AGAL      H62           -40.3522301185      -34.2689232171       82.7620574208  LPSA33    23             16.0000000000
     36331      1175  AGAL      O6            -41.6611883581      -34.3682343828       84.3845202183  LPSA33    23             16.0000000000
     36332      1175  AGAL      HO6           -42.0427349986      -35.2075757373       84.1740981585  LPSA33    23             16.0000000000
     36333      1176  ARHM      C1            -40.7038455065      -27.7968914913       86.2818185944  LPSA33    24             17.0000000000
     36334      1176  ARHM      H1            -41.6584594600      -28.2790095939       86.3680542693  LPSA33    24             17.0000000000
     36335      1176  ARHM      C5            -39.8110140121      -25.6692473416       85.6157638072  LPSA33    24             17.0000000000
     36336      1176  ARHM      H5            -39.1063078319      -26.1950647570       85.0070975499  LPSA33    24             17.0000000000
     36337      1176  ARHM      O5            -41.0003266196      -26.4124113349       85.8657410059  LPSA33    24             17.0000000000
     36338      1176  ARHM      C2            -39.9897210776      -27.7687382575       87.5921581840  LPSA33    24             17.0000000000
     36339      1176  ARHM      H2            -39.6652110737      -28.7458147614       87.8984046741  LPSA33    24             17.0000000000
     36340      1176  ARHM      O2            -40.7366056747      -27.0717830157       88.6075763533  LPSA33    24             17.0000000000
     36341      1176  ARHM      C3            -38.7126197823      -26.9337758697       87.4133527752  LPSA33    24             17.0000000000
     36342      1176  ARHM      H3            -38.1232625103      -27.4720261005       86.6640279609  LPSA33    24             17.0000000000
     36343      1176  ARHM      O3            -37.8241704153      -26.9416859016       88.5620392964  LPSA33    24             17.0000000000
     36344      1176  ARHM      HO3           -38.1388095787      -26.2186257214       89.1463757531  LPSA33    24             17.0000000000
     36345      1176  ARHM      C4            -39.0266350180      -25.5207420893       86.9402325015  LPSA33    24             17.0000000000
     36346      1176  ARHM      H4            -39.7643210833      -25.0530548454       87.7071552895  LPSA33    24             17.0000000000
     36347      1176  ARHM      O4            -37.9058903450      -24.6693342849       86.8379508285  LPSA33    24             17.0000000000
     36348      1176  ARHM      HO4           -38.0855645408      -23.7615243899       87.0219124236  LPSA33    24             17.0000000000
     36349      1176  ARHM      C6            -40.0867818447      -24.2741400895       84.9175891319  LPSA33    24             17.0000000000
     36350      1176  ARHM      H61           -39.1869664520      -23.9697859509       84.3853494017  LPSA33    24             17.0000000000
     36351      1176  ARHM      H62           -40.8837140641      -24.4464201270       84.2649634992  LPSA33    24             17.0000000000
     36352      1176  ARHM      H63           -40.4761879820      -23.5214688386       85.6811466487  LPSA33    24             17.0000000000
     36353      1177  ARHM      C1            -41.7451922985      -27.9111643630       89.1588742089  LPSA33    25             18.0000000000
     36354      1177  ARHM      H1            -41.9788023936      -28.6868157394       88.4722246341  LPSA33    25             18.0000000000
     36355      1177  ARHM      C5            -42.9918225089      -26.1354522331       90.1670531641  LPSA33    25             18.0000000000
     36356      1177  ARHM      H5            -42.3061073655      -25.3809789186       89.8870230824  LPSA33    25             18.0000000000
     36357      1177  ARHM      O5            -43.0163135208      -27.2356684119       89.2315309535  LPSA33    25             18.0000000000
     36358      1177  ARHM      C2            -41.2868620568      -28.4206262285       90.4685713243  LPSA33    25             18.0000000000
     36359      1177  ARHM      H2            -40.2273964843      -28.8272284429       90.3413143991  LPSA33    25             18.0000000000
     36360      1177  ARHM      O2            -42.1895144822      -29.4716686028       90.9328696740  LPSA33    25             18.0000000000
     36361      1177  ARHM      C3            -41.3219441797      -27.2094688973       91.4562257518  LPSA33    25             18.0000000000
     36362      1177  ARHM      H3            -40.5884453288      -26.4588310523       91.0689171631  LPSA33    25             18.0000000000
     36363      1177  ARHM      O3            -40.8520772495      -27.7063244841       92.6920647463  LPSA33    25             18.0000000000
     36364      1177  ARHM      C4            -42.6051334219      -26.5901589428       91.5960769721  LPSA33    25             18.0000000000
     36365      1177  ARHM      H4            -43.4335267808      -27.3602496189       91.8876801091  LPSA33    25             18.0000000000
     36366      1177  ARHM      O4            -42.4691516994      -25.5706416305       92.5862492282  LPSA33    25             18.0000000000
     36367      1177  ARHM      HO4           -43.3058183853      -25.5789897022       93.0149361445  LPSA33    25             18.0000000000
     36368      1177  ARHM      C6            -44.3253430015      -25.3907534653       90.2083352735  LPSA33    25             18.0000000000
     36369      1177  ARHM      H61           -44.6903555090      -25.1304661166       89.1912344565  LPSA33    25             18.0000000000
     36370      1177  ARHM      H62           -45.1574348270      -25.9891720126       90.6686969550  LPSA33    25             18.0000000000
     36371      1177  ARHM      H63           -44.2854623721      -24.4131811491       90.8233913566  LPSA33    25             18.0000000000
     36372      1178  BMANNA    C1            -41.9826701053      -30.7190841601       90.3138108879  LPSA33    26             19.0000000000
     36373      1178  BMANNA    H1            -40.9601550378      -30.7904093692       89.8388342826  LPSA33    26             19.0000000000
     36374      1178  BMANNA    C5            -42.5732344177      -32.3054509137       88.6312665858  LPSA33    26             19.0000000000
     36375      1178  BMANNA    H5            -41.5882239223      -32.1944605069       88.1771240033  LPSA33    26             19.0000000000
     36376      1178  BMANNA    O5            -42.8997377099      -31.0469407383       89.2346891933  LPSA33    26             19.0000000000
     36377      1178  BMANNA    C2            -42.0749887648      -31.7308869196       91.3475147821  LPSA33    26             19.0000000000
     36378      1178  BMANNA    H2            -41.2801955738      -31.4346378060       92.1081287357  LPSA33    26             19.0000000000
     36379      1178  BMANNA    N             -43.4373363681      -31.6867010064       91.9238920796  LPSA33    26             19.0000000000
     36380      1178  BMANNA    HN            -44.1624666000      -31.7924614093       91.3050515894  LPSA33    26             19.0000000000
     36381      1178  BMANNA    C             -43.7124084189      -31.6142254628       93.1798471680  LPSA33    26             19.0000000000
     36382      1178  BMANNA    O             -42.8076035356      -31.3798988926       94.0003587425  LPSA33    26             19.0000000000
     36383      1178  BMANNA    CT            -45.1404754358      -31.8373020071       93.6758917343  LPSA33    26             19.0000000000
     36384      1178  BMANNA    HT1           -45.7788582725      -31.6512470623       92.8666282051  LPSA33    26             19.0000000000
     36385      1178  BMANNA    HT2           -45.5208462101      -31.4172485816       94.6620984389  LPSA33    26             19.0000000000
     36386      1178  BMANNA    HT3           -45.2100672791      -32.9181022854       93.8484898219  LPSA33    26             19.0000000000
     36387      1178  BMANNA    C3            -41.6882522467      -33.0684340712       90.7100883268  LPSA33    26             19.0000000000
     36388      1178  BMANNA    H3            -40.6371364671      -32.9774452676       90.3384445889  LPSA33    26             19.0000000000
     36389      1178  BMANNA    O3            -41.6588962815      -34.0690478588       91.7636866611  LPSA33    26             19.0000000000
     36390      1178  BMANNA    HO3           -40.8583400581      -33.8523188799       92.2265744207  LPSA33    26             19.0000000000
     36391      1178  BMANNA    C4            -42.5984894093      -33.3541479011       89.6481622736  LPSA33    26             19.0000000000
     36392      1178  BMANNA    H4            -43.6937555794      -33.4514516440       89.9013799111  LPSA33    26             19.0000000000
     36393      1178  BMANNA    O4            -42.3056656497      -34.6049518453       89.0416847738  LPSA33    26             19.0000000000
     36394      1178  BMANNA    HO4           -42.7199862539      -35.2941069355       89.5591157304  LPSA33    26             19.0000000000
     36395      1178  BMANNA    C6            -43.5113197043      -32.3978908462       87.3900617492  LPSA33    26             19.0000000000
     36396      1178  BMANNA    H61           -43.6691583581      -31.4114718197       86.9191763972  LPSA33    26             19.0000000000
     36397      1178  BMANNA    H62           -43.1272362201      -33.0509868360       86.6504270337  LPSA33    26             19.0000000000
     36398      1178  BMANNA    O6            -44.7946110805      -32.9092897994       87.7329108337  LPSA33    26             19.0000000000
     36399      1178  BMANNA    HO6           -44.7009036779      -33.7308038536       88.1688153196  LPSA33    26             19.0000000000
     36400      1179  BGLCNA    C1            -39.9331674416      -27.0830002408       93.4616184899  LPSA33    27             19.0000000000
     36401      1179  BGLCNA    H1            -40.0799008791      -26.0076623760       93.4392217979  LPSA33    27             19.0000000000
     36402      1179  BGLCNA    C5            -37.6693996480      -26.5699834027       93.9656603721  LPSA33    27             19.0000000000
     36403      1179  BGLCNA    H5            -37.9799136137      -25.4937488747       93.9564344452  LPSA33    27             19.0000000000
     36404      1179  BGLCNA    O5            -38.5572539983      -27.2405733416       93.0607755266  LPSA33    27             19.0000000000
     36405      1179  BGLCNA    C2            -40.1551822887      -27.6114701563       94.8806799918  LPSA33    27             19.0000000000
     36406      1179  BGLCNA    H2            -39.8747926586      -28.6790383844       94.8757458582  LPSA33    27             19.0000000000
     36407      1179  BGLCNA    N             -41.5529231359      -27.4888908640       95.2501113516  LPSA33    27             19.0000000000
     36408      1179  BGLCNA    HN            -41.9908104629      -26.5447521135       95.0827132934  LPSA33    27             19.0000000000
     36409      1179  BGLCNA    C             -42.0909362920      -28.5626505526       95.9523160909  LPSA33    27             19.0000000000
     36410      1179  BGLCNA    O             -41.4316161150      -29.4832522798       96.5238801166  LPSA33    27             19.0000000000
     36411      1179  BGLCNA    CT            -43.6491275797      -28.5466344439       96.0293745529  LPSA33    27             19.0000000000
     36412      1179  BGLCNA    HT1           -44.0695539816      -27.7446551305       95.3635606282  LPSA33    27             19.0000000000
     36413      1179  BGLCNA    HT2           -44.0491302219      -28.4821826411       97.0167906789  LPSA33    27             19.0000000000
     36414      1179  BGLCNA    HT3           -44.0018438158      -29.6024188787       95.7039804309  LPSA33    27             19.0000000000
     36415      1179  BGLCNA    C3            -39.2338934578      -26.9101562655       95.7540348103  LPSA33    27             19.0000000000
     36416      1179  BGLCNA    H3            -39.3978803919      -25.8039070277       95.7401190096  LPSA33    27             19.0000000000
     36417      1179  BGLCNA    O3            -39.5560425703      -27.4581210713       97.0775356047  LPSA33    27             19.0000000000
     36418      1179  BGLCNA    C4            -37.7596193510      -27.1037729162       95.3486864533  LPSA33    27             19.0000000000
     36419      1179  BGLCNA    H4            -37.5275273864      -28.1929542312       95.3090014479  LPSA33    27             19.0000000000
     36420      1179  BGLCNA    O4            -36.9021167893      -26.4570737436       96.2156872787  LPSA33    27             19.0000000000
     36421      1179  BGLCNA    HO4           -37.0389767863      -25.5526311047       96.0162444362  LPSA33    27             19.0000000000
     36422      1179  BGLCNA    C6            -36.2591307606      -26.6237590600       93.2852949846  LPSA33    27             19.0000000000
     36423      1179  BGLCNA    H61           -35.6426508263      -25.9228222157       93.8557506920  LPSA33    27             19.0000000000
     36424      1179  BGLCNA    H62           -35.7901329200      -27.6183982220       93.4725180191  LPSA33    27             19.0000000000
     36425      1179  BGLCNA    O6            -36.3331178933      -26.2967809012       91.9076175409  LPSA33    27             19.0000000000
     36426      1179  BGLCNA    HO6           -35.4304517546      -26.3713439756       91.5273290588  LPSA33    27             19.0000000000
     36427      1180  AGAL      C1            -39.1094206017      -26.7561288097       98.2622020222  LPSA33    28             20.0000000000
     36428      1180  AGAL      H1            -38.0564735263      -26.8350001524       98.3007149491  LPSA33    28             20.0000000000
     36429      1180  AGAL      C5            -40.8223386910      -25.0426869773       98.1710438288  LPSA33    28             20.0000000000
     36430      1180  AGAL      H5            -41.4484154873      -25.7722254892       97.4646141937  LPSA33    28             20.0000000000
     36431      1180  AGAL      O5            -39.3721196910      -25.3623812935       98.1147365872  LPSA33    28             20.0000000000
     36432      1180  AGAL      C2            -39.6998300674      -27.1755660414       99.6197190629  LPSA33    28             20.0000000000
     36433      1180  AGAL      H2            -39.1938154103      -26.4903154369      100.2965066153  LPSA33    28             20.0000000000
     36434      1180  AGAL      O2            -39.3886433889      -28.4821999318      100.0788731798  LPSA33    28             20.0000000000
     36435      1180  AGAL      C3            -41.1601863824      -26.8718439707       99.7396972452  LPSA33    28             20.0000000000
     36436      1180  AGAL      H3            -41.6828029942      -27.3650192890       98.8607737785  LPSA33    28             20.0000000000
     36437      1180  AGAL      O3            -41.8776807921      -27.3248019464      100.9043404272  LPSA33    28             20.0000000000
     36438      1180  AGAL      HO3           -42.5391723930      -27.9562927829      100.5606486229  LPSA33    28             20.0000000000
     36439      1180  AGAL      C4            -41.3702132482      -25.4287365587       99.5102226768  LPSA33    28             20.0000000000
     36440      1180  AGAL      H4            -42.4189423448      -25.2522638103       99.4798298294  LPSA33    28             20.0000000000
     36441      1180  AGAL      O4            -40.7863352113      -24.6137585972      100.4757933835  LPSA33    28             20.0000000000
     36442      1180  AGAL      HO4           -41.4785923845      -24.3492418449      101.0376442747  LPSA33    28             20.0000000000
     36443      1180  AGAL      C6            -41.1927094067      -23.6565133261       97.6362902244  LPSA33    28             20.0000000000
     36444      1180  AGAL      H61           -40.9335715070      -23.6016573711       96.5809275898  LPSA33    28             20.0000000000
     36445      1180  AGAL      H62           -42.2875593013      -23.3250059461       97.7651048223  LPSA33    28             20.0000000000
     36446      1180  AGAL      O6            -40.4745932478      -22.6683251872       98.3456070822  LPSA33    28             20.0000000000
     36447      1180  AGAL      HO6           -39.6172462236      -22.5280187799       97.9416813930  LPSA33    28             20.0000000000
     36448      1181  ARHM      C1            -39.0365245683      -28.4153484061      101.4808913342  LPSA33    29             21.0000000000
     36449      1181  ARHM      H1            -39.5551059411      -27.5434762727      101.9964955809  LPSA33    29             21.0000000000
     36450      1181  ARHM      C5            -36.9110072630      -29.3561908866      101.1486206043  LPSA33    29             21.0000000000
     36451      1181  ARHM      H5            -37.2377989957      -29.4470433381      100.0935446791  LPSA33    29             21.0000000000
     36452      1181  ARHM      O5            -37.6564948089      -28.2994867686      101.6833506475  LPSA33    29             21.0000000000
     36453      1181  ARHM      C2            -39.5706977110      -29.6063928408      102.1437305515  LPSA33    29             21.0000000000
     36454      1181  ARHM      H2            -40.6030326793      -29.7632050946      101.9067628034  LPSA33    29             21.0000000000
     36455      1181  ARHM      O2            -39.4476709435      -29.5327286913      103.5748524404  LPSA33    29             21.0000000000
     36456      1181  ARHM      C3            -38.8050264503      -30.7920799894      101.6289418068  LPSA33    29             21.0000000000
     36457      1181  ARHM      H3            -39.0343863995      -30.9246331889      100.4952263366  LPSA33    29             21.0000000000
     36458      1181  ARHM      O3            -39.3525108433      -31.9495560054      102.1995749427  LPSA33    29             21.0000000000
     36459      1181  ARHM      HO3           -38.6868735656      -32.5500267554      102.2092645043  LPSA33    29             21.0000000000
     36460      1181  ARHM      C4            -37.3561156366      -30.6927578715      101.8247918557  LPSA33    29             21.0000000000
     36461      1181  ARHM      H4            -37.0796607439      -30.6716823106      102.9338171738  LPSA33    29             21.0000000000
     36462      1181  ARHM      O4            -36.5410987103      -31.7862013008      101.3452167393  LPSA33    29             21.0000000000
     36463      1181  ARHM      HO4           -36.8025732439      -32.1242010142      100.4362974805  LPSA33    29             21.0000000000
     36464      1181  ARHM      C6            -35.4318193740      -28.9368573334      101.2162231226  LPSA33    29             21.0000000000
     36465      1181  ARHM      H61           -35.4500303180      -27.8778567672      100.7685423143  LPSA33    29             21.0000000000
     36466      1181  ARHM      H62           -35.1273493176      -28.8629862952      102.3013153741  LPSA33    29             21.0000000000
     36467      1181  ARHM      H63           -34.8411950495      -29.6297837138      100.6072571094  LPSA33    29             21.0000000000
     36468      1182  ARHM      C1            -40.4979293172      -29.1285138927      104.3945976075  LPSA33    30             22.0000000000
     36469      1182  ARHM      H1            -41.3677874852      -29.7963426288      104.2094096401  LPSA33    30             22.0000000000
     36470      1182  ARHM      C5            -39.7996357939      -26.8000242018      104.5143062533  LPSA33    30             22.0000000000
     36471      1182  ARHM      H5            -38.9383998305      -27.2226567066      103.8668162917  LPSA33    30             22.0000000000
     36472      1182  ARHM      O5            -40.8625020669      -27.7449087032      104.2052433351  LPSA33    30             22.0000000000
     36473      1182  ARHM      C2            -40.0927464201      -29.3025758189      105.8471183130  LPSA33    30             22.0000000000
     36474      1182  ARHM      H2            -39.8032030135      -30.2860491534      106.0289718167  LPSA33    30             22.0000000000
     36475      1182  ARHM      O2            -41.1941434465      -28.8877561070      106.5813641610  LPSA33    30             22.0000000000
     36476      1182  ARHM      C3            -39.0355096274      -28.3687875596      106.2079894766  LPSA33    30             22.0000000000
     36477      1182  ARHM      H3            -38.2362718831      -28.4836135050      105.5270001340  LPSA33    30             22.0000000000
     36478      1182  ARHM      O3            -38.4860912847      -28.5901967334      107.5373891676  LPSA33    30             22.0000000000
     36479      1182  ARHM      C4            -39.4382987219      -26.9095356258      105.9708288384  LPSA33    30             22.0000000000
     36480      1182  ARHM      H4            -40.3212068908      -26.6115400143      106.5400372406  LPSA33    30             22.0000000000
     36481      1182  ARHM      O4            -38.5087235499      -25.9752434005      106.2997755749  LPSA33    30             22.0000000000
     36482      1182  ARHM      HO4           -37.7769359555      -25.7922048406      105.6964454668  LPSA33    30             22.0000000000
     36483      1182  ARHM      C6            -40.2004693862      -25.4118352819      104.0930490251  LPSA33    30             22.0000000000
     36484      1182  ARHM      H61           -39.2922009697      -24.7583258749      104.2143179997  LPSA33    30             22.0000000000
     36485      1182  ARHM      H62           -40.3547037865      -25.4034705555      103.0019050467  LPSA33    30             22.0000000000
     36486      1182  ARHM      H63           -41.1032827967      -25.0044724745      104.6493652223  LPSA33    30             22.0000000000
     36487      1183  BMANNA    C1            -42.1078862318      -29.8967335251      106.9502319096  LPSA33    31             23.0000000000
     36488      1183  BMANNA    H1            -41.5246072028      -30.8223624254      107.1550799008  LPSA33    31             23.0000000000
     36489      1183  BMANNA    C5            -43.9673681026      -31.2790309123      106.2136717625  LPSA33    31             23.0000000000
     36490      1183  BMANNA    H5            -43.3189592548      -32.1017797208      106.5467054000  LPSA33    31             23.0000000000
     36491      1183  BMANNA    O5            -43.0622786603      -30.1881040340      105.8742289322  LPSA33    31             23.0000000000
     36492      1183  BMANNA    C2            -42.8703744935      -29.4719065462      108.0830629221  LPSA33    31             23.0000000000
     36493      1183  BMANNA    H2            -42.1339726222      -29.3712392473      108.9031915743  LPSA33    31             23.0000000000
     36494      1183  BMANNA    N             -43.4199700808      -28.1858856242      107.8252935315  LPSA33    31             23.0000000000
     36495      1183  BMANNA    HN            -43.5764117043      -27.9305417270      106.8111160773  LPSA33    31             23.0000000000
     36496      1183  BMANNA    C             -43.6880571667      -27.2986785849      108.7868858964  LPSA33    31             23.0000000000
     36497      1183  BMANNA    O             -43.4064561709      -27.5055166074      109.9536662434  LPSA33    31             23.0000000000
     36498      1183  BMANNA    CT            -44.3564643593      -25.9951263364      108.3237946568  LPSA33    31             23.0000000000
     36499      1183  BMANNA    HT1           -45.0652873205      -26.2387981116      107.5739831696  LPSA33    31             23.0000000000
     36500      1183  BMANNA    HT2           -43.5699157424      -25.3394968365      107.9347099034  LPSA33    31             23.0000000000
     36501      1183  BMANNA    HT3           -44.7704748671      -25.4348261851      109.1768357935  LPSA33    31             23.0000000000
     36502      1183  BMANNA    C3            -43.8082943862      -30.5614255913      108.4884560283  LPSA33    31             23.0000000000
     36503      1183  BMANNA    H3            -43.2537350513      -31.5509898389      108.6988550870  LPSA33    31             23.0000000000
     36504      1183  BMANNA    O3            -44.4361378191      -30.2834535671      109.7404994872  LPSA33    31             23.0000000000
     36505      1183  BMANNA    HO3           -43.8179962376      -29.6299738970      110.0111610137  LPSA33    31             23.0000000000
     36506      1183  BMANNA    C4            -44.7919640214      -30.8230879766      107.4199857710  LPSA33    31             23.0000000000
     36507      1183  BMANNA    H4            -45.4476946382      -29.8984044761      107.0572414185  LPSA33    31             23.0000000000
     36508      1183  BMANNA    O4            -45.7227902458      -31.8044157211      107.8525671122  LPSA33    31             23.0000000000
     36509      1183  BMANNA    HO4           -45.2800417107      -32.6133082218      108.1943429300  LPSA33    31             23.0000000000
     36510      1183  BMANNA    C6            -44.8859844500      -31.6899465569      105.0512686782  LPSA33    31             23.0000000000
     36511      1183  BMANNA    H61           -45.4032562222      -32.6907322485      105.3397811046  LPSA33    31             23.0000000000
     36512      1183  BMANNA    H62           -45.6808568789      -30.9722331373      104.8698551944  LPSA33    31             23.0000000000
     36513      1183  BMANNA    O6            -44.1518955783      -31.8689393473      103.8241467834  LPSA33    31             23.0000000000
     36514      1183  BMANNA    HO6           -43.5657248468      -32.6780399733      103.8134147631  LPSA33    31             23.0000000000
     36515      1184  BGLCNA    C1            -39.1948105543      -28.0654818755      108.6103969990  LPSA33    32             23.0000000000
     36516      1184  BGLCNA    H1            -40.3164371581      -28.1087606055      108.4325564695  LPSA33    32             23.0000000000
     36517      1184  BGLCNA    C5            -39.7158472698      -26.1067524568      109.9277617404  LPSA33    32             23.0000000000
     36518      1184  BGLCNA    H5            -40.7897542733      -26.2357200552      109.5374749077  LPSA33    32             23.0000000000
     36519      1184  BGLCNA    O5            -38.8757995609      -26.7134856752      108.9423333575  LPSA33    32             23.0000000000
     36520      1184  BGLCNA    C2            -38.9840360336      -28.8674214924      109.8194522937  LPSA33    32             23.0000000000
     36521      1184  BGLCNA    H2            -37.9807135528      -28.6559883314      110.1044894257  LPSA33    32             23.0000000000
     36522      1184  BGLCNA    N             -39.1560726365      -30.2626660556      109.5956973249  LPSA33    32             23.0000000000
     36523      1184  BGLCNA    HN            -39.8719065576      -30.3970927653      108.8809076996  LPSA33    32             23.0000000000
     36524      1184  BGLCNA    C             -38.4545409034      -31.3093738355      110.0864625708  LPSA33    32             23.0000000000
     36525      1184  BGLCNA    O             -37.5690477468      -31.1705291578      110.9304085025  LPSA33    32             23.0000000000
     36526      1184  BGLCNA    CT            -38.8425590441      -32.7177031171      109.5841031968  LPSA33    32             23.0000000000
     36527      1184  BGLCNA    HT1           -39.4536587028      -32.4249322218      108.6281101354  LPSA33    32             23.0000000000
     36528      1184  BGLCNA    HT2           -39.5136286899      -33.2729875699      110.1898124037  LPSA33    32             23.0000000000
     36529      1184  BGLCNA    HT3           -37.9548596006      -33.3393485459      109.3122359934  LPSA33    32             23.0000000000
     36530      1184  BGLCNA    C3            -39.8988393464      -28.3572331861      110.8930231790  LPSA33    32             23.0000000000
     36531      1184  BGLCNA    H3            -40.8581590593      -28.3476975525      110.4606187373  LPSA33    32             23.0000000000
     36532      1184  BGLCNA    O3            -39.9579259581      -29.1855612447      112.0657798240  LPSA33    32             23.0000000000
     36533      1184  BGLCNA    C4            -39.5072201502      -26.9316142078      111.1707572500  LPSA33    32             23.0000000000
     36534      1184  BGLCNA    H4            -38.4429044943      -26.9454965822      111.5318289610  LPSA33    32             23.0000000000
     36535      1184  BGLCNA    O4            -40.2736670191      -26.3765832344      112.2070236435  LPSA33    32             23.0000000000
     36536      1184  BGLCNA    HO4           -39.8634413722      -26.5037530884      113.0745323218  LPSA33    32             23.0000000000
     36537      1184  BGLCNA    C6            -39.4134954346      -24.6258612401      110.0229508171  LPSA33    32             23.0000000000
     36538      1184  BGLCNA    H61           -40.1572270803      -24.0881501719      110.7194343748  LPSA33    32             23.0000000000
     36539      1184  BGLCNA    H62           -38.3996554260      -24.4812556352      110.5717638480  LPSA33    32             23.0000000000
     36540      1184  BGLCNA    O6            -39.4986584502      -23.9766399660      108.7709294272  LPSA33    32             23.0000000000
     36541      1184  BGLCNA    HO6           -40.2331028553      -24.3726582659      108.2360311317  LPSA33    32             23.0000000000
     36542      1185  AGAL      C1            -41.2693289868      -29.2758146875      112.6842874521  LPSA33    33             24.0000000000
     36543      1185  AGAL      H1            -41.7189442372      -28.2835791082      112.5979959475  LPSA33    33             24.0000000000
     36544      1185  AGAL      C5            -41.5598034174      -31.5840821052      112.2149219831  LPSA33    33             24.0000000000
     36545      1185  AGAL      H5            -40.5122971724      -31.4831748702      111.8792915250  LPSA33    33             24.0000000000
     36546      1185  AGAL      O5            -42.1207967878      -30.2955007794      112.0726784748  LPSA33    33             24.0000000000
     36547      1185  AGAL      C2            -41.0501724073      -29.6510037694      114.1482787662  LPSA33    33             24.0000000000
     36548      1185  AGAL      H2            -42.1143008519      -29.8140387290      114.5751854976  LPSA33    33             24.0000000000
     36549      1185  AGAL      O2            -40.5657858978      -28.5206121075      114.8486222260  LPSA33    33             24.0000000000
     36550      1185  AGAL      C3            -40.4785678982      -31.0393593886      114.2945545625  LPSA33    33             24.0000000000
     36551      1185  AGAL      H3            -39.4813654158      -31.1179897574      113.7405815065  LPSA33    33             24.0000000000
     36552      1185  AGAL      O3            -40.0929958366      -31.3587732752      115.5672660328  LPSA33    33             24.0000000000
     36553      1185  AGAL      HO3           -40.7303157742      -31.2430648364      116.2400186851  LPSA33    33             24.0000000000
     36554      1185  AGAL      C4            -41.3964323813      -32.0652632966      113.6708488317  LPSA33    33             24.0000000000
     36555      1185  AGAL      H4            -40.9396817472      -33.0623729714      113.6729875792  LPSA33    33             24.0000000000
     36556      1185  AGAL      O4            -42.7120446069      -32.2461616494      114.2435538900  LPSA33    33             24.0000000000
     36557      1185  AGAL      HO4           -42.9209113428      -31.6007563497      114.9085525172  LPSA33    33             24.0000000000
     36558      1185  AGAL      C6            -42.2137148616      -32.5915733262      111.2992528405  LPSA33    33             24.0000000000
     36559      1185  AGAL      H61           -42.0076508404      -32.2109216510      110.2783408757  LPSA33    33             24.0000000000
     36560      1185  AGAL      H62           -41.8324193214      -33.6291605177      111.3458027743  LPSA33    33             24.0000000000
     36561      1185  AGAL      O6            -43.5888832171      -32.7833464678      111.4129476537  LPSA33    33             24.0000000000
     36562      1185  AGAL      HO6           -44.1206002502      -32.1703267389      110.8444757795  LPSA33    33             24.0000000000
     36563      1186  ARHM      C1            -41.2636125155      -28.2092665429      116.0109133884  LPSA33    34             25.0000000000
     36564      1186  ARHM      H1            -41.4550328339      -29.0961106695      116.6389743656  LPSA33    34             25.0000000000
     36565      1186  ARHM      C5            -42.5732364282      -26.4056032082      115.0727799907  LPSA33    34             25.0000000000
     36566      1186  ARHM      H5            -42.1665783647      -26.6624366897      114.0209633333  LPSA33    34             25.0000000000
     36567      1186  ARHM      O5            -42.5783634691      -27.6282199600      115.8926868953  LPSA33    34             25.0000000000
     36568      1186  ARHM      C2            -40.3489191846      -27.2812143555      116.7601555753  LPSA33    34             25.0000000000
     36569      1186  ARHM      H2            -39.2845821005      -27.6246085584      116.8710959342  LPSA33    34             25.0000000000
     36570      1186  ARHM      O2            -40.7875250863      -26.9600070741      118.1592972339  LPSA33    34             25.0000000000
     36571      1186  ARHM      C3            -40.2811932292      -25.9652806976      115.9988665506  LPSA33    34             25.0000000000
     36572      1186  ARHM      H3            -39.9143175303      -26.1167821675      114.9724172480  LPSA33    34             25.0000000000
     36573      1186  ARHM      O3            -39.4462128337      -24.9387934775      116.5878695042  LPSA33    34             25.0000000000
     36574      1186  ARHM      HO3           -38.9535833089      -24.4247168515      115.9559434517  LPSA33    34             25.0000000000
     36575      1186  ARHM      C4            -41.6850870066      -25.3319794294      115.7987835878  LPSA33    34             25.0000000000
     36576      1186  ARHM      H4            -42.2298337693      -25.2101839586      116.7495315617  LPSA33    34             25.0000000000
     36577      1186  ARHM      O4            -41.6464847859      -24.1219085755      115.1362621200  LPSA33    34             25.0000000000
     36578      1186  ARHM      HO4           -41.3534041146      -23.4059767101      115.6953140327  LPSA33    34             25.0000000000
     36579      1186  ARHM      C6            -44.0263934942      -25.8559078461      114.8413279703  LPSA33    34             25.0000000000
     36580      1186  ARHM      H61           -44.5465918179      -25.5280618853      115.7172490283  LPSA33    34             25.0000000000
     36581      1186  ARHM      H62           -43.9226788406      -24.8491913714      114.3996926230  LPSA33    34             25.0000000000
     36582      1186  ARHM      H63           -44.6737772160      -26.4373152396      114.1590834060  LPSA33    34             25.0000000000
     36583      1187  ARHM      C1            -40.9469023897      -28.0592357526      119.0795908573  LPSA33    35             26.0000000000
     36584      1187  ARHM      H1            -40.0904801778      -28.8284674922      118.8787348947  LPSA33    35             26.0000000000
     36585      1187  ARHM      C5            -43.3613279730      -27.8445997311      119.2408916176  LPSA33    35             26.0000000000
     36586      1187  ARHM      H5            -43.3542068618      -26.9261167688      118.5254732223  LPSA33    35             26.0000000000
     36587      1187  ARHM      O5            -42.2488826979      -28.7677572461      118.9290334222  LPSA33    35             26.0000000000
     36588      1187  ARHM      C2            -40.8047404410      -27.5597989378      120.5365485050  LPSA33    35             26.0000000000
     36589      1187  ARHM      H2            -39.7793792855      -27.1266212087      120.7134209997  LPSA33    35             26.0000000000
     36590      1187  ARHM      O2            -40.9294879574      -28.6178856661      121.4126203716  LPSA33    35             26.0000000000
     36591      1187  ARHM      C3            -41.9212824852      -26.5456724269      120.8720061906  LPSA33    35             26.0000000000
     36592      1187  ARHM      H3            -41.7885710161      -25.6878377891      120.1344793452  LPSA33    35             26.0000000000
     36593      1187  ARHM      O3            -41.7404270195      -25.9810960284      122.1540075829  LPSA33    35             26.0000000000
     36594      1187  ARHM      HO3           -41.3554355098      -26.6461823181      122.7288731339  LPSA33    35             26.0000000000
     36595      1187  ARHM      C4            -43.2360393342      -27.2501333993      120.6788917534  LPSA33    35             26.0000000000
     36596      1187  ARHM      H4            -43.3693295004      -28.1571902572      121.3307119103  LPSA33    35             26.0000000000
     36597      1187  ARHM      O4            -44.2646825800      -26.2786682194      120.9693790153  LPSA33    35             26.0000000000
     36598      1187  ARHM      HO4           -44.1073652865      -25.3968475886      120.5581709812  LPSA33    35             26.0000000000
     36599      1187  ARHM      C6            -44.7224368776      -28.5247411860      118.8642347863  LPSA33    35             26.0000000000
     36600      1187  ARHM      H61           -44.7991407575      -28.6904194759      117.7433556958  LPSA33    35             26.0000000000
     36601      1187  ARHM      H62           -44.6717900716      -29.4496352648      119.4176110492  LPSA33    35             26.0000000000
     36602      1187  ARHM      H63           -45.5320484654      -27.7650526888      119.0633705917  LPSA33    35             26.0000000000
     36603      1188  BMANNA    C1            -39.8710794679      -29.5272334493      121.4471464502  LPSA33    36             27.0000000000
     36604      1188  BMANNA    H1            -38.9204670628      -29.0589197392      121.0972061898  LPSA33    36             27.0000000000
     36605      1188  BMANNA    C5            -38.7296156151      -31.5365073692      120.7299884793  LPSA33    36             27.0000000000
     36606      1188  BMANNA    H5            -37.8950566212      -30.8912535830      120.4610684421  LPSA33    36             27.0000000000
     36607      1188  BMANNA    O5            -39.9619535278      -30.7502144445      120.6641532654  LPSA33    36             27.0000000000
     36608      1188  BMANNA    C2            -39.6445304587      -29.9445081587      122.8920138725  LPSA33    36             27.0000000000
     36609      1188  BMANNA    H2            -39.4832393886      -29.0165567918      123.4719477421  LPSA33    36             27.0000000000
     36610      1188  BMANNA    N             -40.8306454227      -30.6021707724      123.4395449790  LPSA33    36             27.0000000000
     36611      1188  BMANNA    HN            -41.3296152499      -31.2664394239      122.8746519580  LPSA33    36             27.0000000000
     36612      1188  BMANNA    C             -41.0940942375      -30.5671482949      124.7737151700  LPSA33    36             27.0000000000
     36613      1188  BMANNA    O             -40.5051200148      -29.8857780011      125.6190347561  LPSA33    36             27.0000000000
     36614      1188  BMANNA    CT            -42.1585426157      -31.4542112813      125.3570716528  LPSA33    36             27.0000000000
     36615      1188  BMANNA    HT1           -42.1376507196      -32.4390422973      124.8802869227  LPSA33    36             27.0000000000
     36616      1188  BMANNA    HT2           -43.2056484792      -31.0818262906      125.1731404614  LPSA33    36             27.0000000000
     36617      1188  BMANNA    HT3           -42.1454736508      -31.5709557492      126.4547536948  LPSA33    36             27.0000000000
     36618      1188  BMANNA    C3            -38.4063655078      -30.7997024805      122.9763638711  LPSA33    36             27.0000000000
     36619      1188  BMANNA    H3            -37.5265043668      -30.2363488678      122.6403873786  LPSA33    36             27.0000000000
     36620      1188  BMANNA    O3            -38.1006540477      -31.1865629622      124.3414054450  LPSA33    36             27.0000000000
     36621      1188  BMANNA    HO3           -37.2896482211      -30.8605653320      124.7171830083  LPSA33    36             27.0000000000
     36622      1188  BMANNA    C4            -38.5099810401      -32.0021394428      122.1146940524  LPSA33    36             27.0000000000
     36623      1188  BMANNA    H4            -39.2933977836      -32.6563227894      122.4263894750  LPSA33    36             27.0000000000
     36624      1188  BMANNA    O4            -37.3450788087      -32.8184917453      122.2172873890  LPSA33    36             27.0000000000
     36625      1188  BMANNA    HO4           -37.3712440986      -32.9474223406      123.1985163392  LPSA33    36             27.0000000000
     36626      1188  BMANNA    C6            -38.8068334777      -32.6297640169      119.7412642597  LPSA33    36             27.0000000000
     36627      1188  BMANNA    H61           -38.8897333211      -32.2399134552      118.6946701192  LPSA33    36             27.0000000000
     36628      1188  BMANNA    H62           -37.8007790802      -33.0590130240      119.7045442506  LPSA33    36             27.0000000000
     36629      1188  BMANNA    O6            -39.8266761181      -33.6333066853      120.0914698020  LPSA33    36             27.0000000000
     36630      1188  BMANNA    HO6           -39.3755122269      -34.2788557335      120.6476247167  LPSA33    36             27.0000000000
     36631      1189  ECLIPA    HB6S          -27.5879549565      -38.5577063996       20.4612168218  LPSA34    1               0.0000000000
     36632      1189  ECLIPA    OB6           -26.0711140997      -38.1199174401       21.7140249152  LPSA34    1               0.0000000000
     36633      1189  ECLIPA    CB6           -27.0503472328      -37.6811234625       20.7042159014  LPSA34    1               0.0000000000
     36634      1189  ECLIPA    HB6R          -27.6122619502      -36.8345199711       21.0541931349  LPSA34    1               0.0000000000
     36635      1189  ECLIPA    CB5           -26.3541010301      -37.1083720470       19.3988764877  LPSA34    1               0.0000000000
     36636      1189  ECLIPA    OB5           -25.4332108377      -38.1910628712       18.9716901872  LPSA34    1               0.0000000000
     36637      1189  ECLIPA    HB5           -25.7435600738      -36.2671192354       19.7771798410  LPSA34    1               0.0000000000
     36638      1189  ECLIPA    CB1           -24.7300543952      -37.7931252066       17.7717324898  LPSA34    1               0.0000000000
     36639      1189  ECLIPA    HB1           -24.1162397656      -36.8746551565       17.9003641080  LPSA34    1               0.0000000000
     36640      1189  ECLIPA    OA6           -23.9096182372      -38.8289781747       17.3217246577  LPSA34    1               0.0000000000
     36641      1189  ECLIPA    CA6           -24.2888061841      -40.1986983012       17.5745106853  LPSA34    1               0.0000000000
     36642      1189  ECLIPA    HA6R          -25.3872282016      -40.2335955329       17.7226451425  LPSA34    1               0.0000000000
     36643      1189  ECLIPA    HA6S          -23.6411961486      -40.5837745504       18.4598965841  LPSA34    1               0.0000000000
     36644      1189  ECLIPA    CB4           -27.3849991489      -36.7209926415       18.3206521937  LPSA34    1               0.0000000000
     36645      1189  ECLIPA    HB4           -27.9936682302      -37.5955963002       18.0085584641  LPSA34    1               0.0000000000
     36646      1189  ECLIPA    OB4           -28.0349344553      -35.5693498705       18.9017319965  LPSA34    1               0.0000000000
     36647      1189  ECLIPA    PB            -29.5857556006      -35.6637977899       19.3234616795  LPSA34    1               0.0000000000
     36648      1189  ECLIPA    OPB4          -29.7750794207      -34.7627526045       20.5579515876  LPSA34    1               0.0000000000
     36649      1189  ECLIPA    OPB3          -29.7085413123      -37.1695521218       19.6614545037  LPSA34    1               0.0000000000
     36650      1189  ECLIPA    OPB2          -30.4171515174      -35.3046296560       18.0829495795  LPSA34    1               0.0000000000
     36651      1189  ECLIPA    CB3           -26.5826612102      -36.3268504981       17.0955893951  LPSA34    1               0.0000000000
     36652      1189  ECLIPA    OB3           -27.3496626634      -36.0171674081       15.9186528231  LPSA34    1               0.0000000000
     36653      1189  ECLIPA    HB3           -25.7963410974      -35.5458157989       17.3284540628  LPSA34    1               0.0000000000
     36654      1189  ECLIPA    C71           -27.6686717126      -34.7865860417       15.6929469039  LPSA34    1               0.0000000000
     36655      1189  ECLIPA    O71           -27.2672154070      -33.8211417024       16.3832172580  LPSA34    1               0.0000000000
     36656      1189  ECLIPA    C72           -28.4521490671      -34.7414504418       14.3548430386  LPSA34    1               0.0000000000
     36657      1189  ECLIPA    H72R          -27.8263535635      -35.1764966015       13.5774555414  LPSA34    1               0.0000000000
     36658      1189  ECLIPA    H72S          -28.7884132930      -33.6396423360       14.1464415926  LPSA34    1               0.0000000000
     36659      1189  ECLIPA    CB2           -25.6955298345      -37.5143704043       16.6720734084  LPSA34    1               0.0000000000
     36660      1189  ECLIPA    HB2           -26.4294265229      -38.4299899078       16.5298168153  LPSA34    1               0.0000000000
     36661      1189  ECLIPA    NB2           -24.8996712252      -37.2349092091       15.4577284722  LPSA34    1               0.0000000000
     36662      1189  ECLIPA    HNB2          -24.0298702211      -36.7634868054       15.5965609326  LPSA34    1               0.0000000000
     36663      1189  ECLIPA    CA4           -22.6047073647      -40.7016554417       15.7929312798  LPSA34    1               0.0000000000
     36664      1189  ECLIPA    HA4           -22.5703634922      -39.6240149411       15.4903430209  LPSA34    1               0.0000000000
     36665      1189  ECLIPA    OA4           -21.6693340462      -40.9390622801       16.8012065728  LPSA34    1               0.0000000000
     36666      1189  ECLIPA    HOA4          -21.9025735262      -40.5465733416       17.5928838569  LPSA34    1               0.0000000000
     36667      1189  ECLIPA    CA5           -23.9304633503      -41.0047343729       16.3547806008  LPSA34    1               0.0000000000
     36668      1189  ECLIPA    HA5           -24.1731345127      -42.1228117206       16.5880746347  LPSA34    1               0.0000000000
     36669      1189  ECLIPA    OA5           -24.9102951656      -40.6506994910       15.3689671688  LPSA34    1               0.0000000000
     36670      1189  ECLIPA    CA1           -24.6970724898      -41.3789707421       14.1076640156  LPSA34    1               0.0000000000
     36671      1189  ECLIPA    HA1           -25.3083848200      -40.7405713527       13.4118188108  LPSA34    1               0.0000000000
     36672      1189  ECLIPA    OA1           -25.2170975154      -42.6937453700       14.1359876212  LPSA34    1               0.0000000000
     36673      1189  ECLIPA    OPA2          -26.3691819081      -43.7489413028       15.9734101064  LPSA34    1               0.0000000000
     36674      1189  ECLIPA    OPA3          -27.4867179091      -41.7630288942       14.8300177673  LPSA34    1               0.0000000000
     36675      1189  ECLIPA    OPA4          -27.3236765403      -43.9128626011       13.6615320840  LPSA34    1               0.0000000000
     36676      1189  ECLIPA    PA            -26.6625047999      -43.0075878022       14.6765383084  LPSA34    1               0.0000000000
     36677      1189  ECLIPA    CA3           -22.2888749864      -41.4770334543       14.5219348229  LPSA34    1               0.0000000000
     36678      1189  ECLIPA    HA3           -22.2438851340      -42.6158143209       14.7377032538  LPSA34    1               0.0000000000
     36679      1189  ECLIPA    OA3           -20.9356128446      -41.1606520632       14.2498111976  LPSA34    1               0.0000000000
     36680      1189  ECLIPA    C31           -20.7163823107      -40.0332467105       13.5006246295  LPSA34    1               0.0000000000
     36681      1189  ECLIPA    O31           -20.8462180683      -39.9289149990       12.2941239937  LPSA34    1               0.0000000000
     36682      1189  ECLIPA    C32           -19.7838164794      -39.0931090292       14.2780289507  LPSA34    1               0.0000000000
     36683      1189  ECLIPA    H32R          -18.8357906181      -39.0019479660       13.7149713840  LPSA34    1               0.0000000000
     36684      1189  ECLIPA    H32S          -19.6007519280      -39.4910977511       15.2729523512  LPSA34    1               0.0000000000
     36685      1189  ECLIPA    CA2           -23.3427865276      -41.1000470845       13.4984733916  LPSA34    1               0.0000000000
     36686      1189  ECLIPA    HA2           -23.3229617873      -40.0117304910       13.3982259915  LPSA34    1               0.0000000000
     36687      1189  ECLIPA    NA2           -23.1855761069      -41.7955240160       12.2035087571  LPSA34    1               0.0000000000
     36688      1189  ECLIPA    HNA2          -22.3597552266      -42.2922136176       12.0865030408  LPSA34    1               0.0000000000
     36689      1189  ECLIPA    C73           -29.7385132376      -35.5257958286       14.3319064372  LPSA34    1               0.0000000000
     36690      1189  ECLIPA    H73R          -30.3383277340      -35.3807512520       15.2227416964  LPSA34    1               0.0000000000
     36691      1189  ECLIPA    O73           -29.3651848673      -36.9245282965       14.2644256719  LPSA34    1               0.0000000000
     36692      1189  ECLIPA    C81           -30.0443940940      -37.9216187096       14.8555734565  LPSA34    1               0.0000000000
     36693      1189  ECLIPA    O81           -30.9760716109      -37.6287298229       15.6690894779  LPSA34    1               0.0000000000
     36694      1189  ECLIPA    C82           -29.5859550895      -39.3049478543       14.3536111794  LPSA34    1               0.0000000000
     36695      1189  ECLIPA    H82R          -30.1185354103      -40.1079385799       14.8531840528  LPSA34    1               0.0000000000
     36696      1189  ECLIPA    H82S          -28.4976538161      -39.4640947154       14.5323473422  LPSA34    1               0.0000000000
     36697      1189  ECLIPA    C83           -29.8110307121      -39.4121600168       12.8301722806  LPSA34    1               0.0000000000
     36698      1189  ECLIPA    H83R          -28.9579525679      -38.9113446933       12.2351841548  LPSA34    1               0.0000000000
     36699      1189  ECLIPA    H83S          -30.6740285534      -38.7881977413       12.5911296392  LPSA34    1               0.0000000000
     36700      1189  ECLIPA    C84           -29.8460542462      -40.8620561374       12.3050927261  LPSA34    1               0.0000000000
     36701      1189  ECLIPA    H84R          -30.8126415067      -41.3037976164       12.5767117503  LPSA34    1               0.0000000000
     36702      1189  ECLIPA    H84S          -28.9790925555      -41.3147391794       12.7369555497  LPSA34    1               0.0000000000
     36703      1189  ECLIPA    C85           -29.6685390807      -40.9046702135       10.7695484051  LPSA34    1               0.0000000000
     36704      1189  ECLIPA    H85R          -28.8621351730      -40.1929584415       10.5503608829  LPSA34    1               0.0000000000
     36705      1189  ECLIPA    H85S          -30.5805658237      -40.4959103486       10.2367999955  LPSA34    1               0.0000000000
     36706      1189  ECLIPA    C86           -29.1850710119      -42.3060194567       10.3034592726  LPSA34    1               0.0000000000
     36707      1189  ECLIPA    H86R          -30.0352479891      -42.9999894727        9.9932223571  LPSA34    1               0.0000000000
     36708      1189  ECLIPA    H86S          -28.6531094115      -42.8220263086       11.0807540114  LPSA34    1               0.0000000000
     36709      1189  ECLIPA    C87           -28.1166749360      -42.2166110631        9.1601018854  LPSA34    1               0.0000000000
     36710      1189  ECLIPA    H87R          -27.8346553779      -43.2025270714        8.8049419625  LPSA34    1               0.0000000000
     36711      1189  ECLIPA    H87S          -27.1625422785      -41.7614576203        9.5406723883  LPSA34    1               0.0000000000
     36712      1189  ECLIPA    C88           -28.5694235913      -41.3230466579        8.0318999685  LPSA34    1               0.0000000000
     36713      1189  ECLIPA    H88R          -28.5046103024      -40.2307071753        8.3479828359  LPSA34    1               0.0000000000
     36714      1189  ECLIPA    H88S          -29.6908754241      -41.3953045631        7.9254521495  LPSA34    1               0.0000000000
     36715      1189  ECLIPA    C89           -27.7456774920      -41.4661959113        6.7101000712  LPSA34    1               0.0000000000
     36716      1189  ECLIPA    H89R          -26.7666792721      -41.9657605759        6.8746682686  LPSA34    1               0.0000000000
     36717      1189  ECLIPA    H89S          -27.5011682938      -40.5372727341        6.2317001698  LPSA34    1               0.0000000000
     36718      1189  ECLIPA    C810          -28.5939847863      -42.2650709515        5.7047246593  LPSA34    1               0.0000000000
     36719      1189  ECLIPA    H810R         -29.6187332259      -41.9860130129        6.0108430704  LPSA34    1               0.0000000000
     36720      1189  ECLIPA    H810S         -28.4262577186      -43.3141431339        5.8554647029  LPSA34    1               0.0000000000
     36721      1189  ECLIPA    C811          -28.3497401715      -41.9534464394        4.2179945741  LPSA34    1               0.0000000000
     36722      1189  ECLIPA    H811R         -28.6598047037      -42.6695786917        3.5081125689  LPSA34    1               0.0000000000
     36723      1189  ECLIPA    H811S         -27.2209202018      -41.7198199872        4.1819101877  LPSA34    1               0.0000000000
     36724      1189  ECLIPA    C812          -28.8846856747      -40.5941993521        3.7413673409  LPSA34    1               0.0000000000
     36725      1189  ECLIPA    H812R         -28.4832060744      -40.4349918581        2.6403157337  LPSA34    1               0.0000000000
     36726      1189  ECLIPA    H812S         -28.6708025085      -39.7733518374        4.4144737196  LPSA34    1               0.0000000000
     36727      1189  ECLIPA    C813          -30.4204796894      -40.5023167198        3.6785234959  LPSA34    1               0.0000000000
     36728      1189  ECLIPA    H813R         -30.7515852373      -41.2702095502        2.9398073555  LPSA34    1               0.0000000000
     36729      1189  ECLIPA    H813S         -30.9794218356      -40.7285676702        4.6616087352  LPSA34    1               0.0000000000
     36730      1189  ECLIPA    C814          -30.9285019305      -39.1816818226        3.1377409857  LPSA34    1               0.0000000000
     36731      1189  ECLIPA    H814R         -30.4014330539      -38.7797039798        2.1719074593  LPSA34    1               0.0000000000
     36732      1189  ECLIPA    H814S         -30.8320629514      -38.4131548032        3.9166242729  LPSA34    1               0.0000000000
     36733      1189  ECLIPA    H814T         -32.0140560527      -39.2443482969        2.8964685373  LPSA34    1               0.0000000000
     36734      1189  ECLIPA    C74           -30.6962090720      -35.3367059874       13.1792855021  LPSA34    1               0.0000000000
     36735      1189  ECLIPA    H74R          -31.1320416292      -34.3566329136       12.9935747315  LPSA34    1               0.0000000000
     36736      1189  ECLIPA    H74S          -31.5873456655      -36.0678082522       13.3086690609  LPSA34    1               0.0000000000
     36737      1189  ECLIPA    C75           -30.0564648343      -35.8447284435       11.8151371119  LPSA34    1               0.0000000000
     36738      1189  ECLIPA    H75R          -30.9170391191      -36.3093410620       11.2107603889  LPSA34    1               0.0000000000
     36739      1189  ECLIPA    H75S          -29.3115497176      -36.6404280422       12.0082837783  LPSA34    1               0.0000000000
     36740      1189  ECLIPA    C76           -29.3943976025      -34.7570753424       10.9251453624  LPSA34    1               0.0000000000
     36741      1189  ECLIPA    H76R          -28.3828699570      -34.5188491792       11.3555905686  LPSA34    1               0.0000000000
     36742      1189  ECLIPA    H76S          -29.9561295898      -33.7337556819       10.9731137071  LPSA34    1               0.0000000000
     36743      1189  ECLIPA    C77           -29.2110865292      -35.0724729095        9.4191603634  LPSA34    1               0.0000000000
     36744      1189  ECLIPA    H77R          -30.1907931747      -35.2355695631        9.0408775908  LPSA34    1               0.0000000000
     36745      1189  ECLIPA    H77S          -28.7413906172      -36.0741799543        9.2852383479  LPSA34    1               0.0000000000
     36746      1189  ECLIPA    C78           -28.3136076965      -33.9770858295        8.8297405752  LPSA34    1               0.0000000000
     36747      1189  ECLIPA    H78R          -28.7153135541      -33.0184652811        9.1562620580  LPSA34    1               0.0000000000
     36748      1189  ECLIPA    H78S          -27.3142459186      -34.1494879283        9.3169442960  LPSA34    1               0.0000000000
     36749      1189  ECLIPA    C79           -27.9912728707      -34.1908172199        7.2570767761  LPSA34    1               0.0000000000
     36750      1189  ECLIPA    H79R          -26.9863756153      -34.7083398508        7.1763205913  LPSA34    1               0.0000000000
     36751      1189  ECLIPA    H79S          -27.9012384129      -33.2061744690        6.7882549413  LPSA34    1               0.0000000000
     36752      1189  ECLIPA    C710          -29.0961073666      -34.7862422752        6.3785096220  LPSA34    1               0.0000000000
     36753      1189  ECLIPA    H710R         -29.3275296871      -35.7717752397        6.8460783027  LPSA34    1               0.0000000000
     36754      1189  ECLIPA    H710S         -29.9225402173      -34.1905358038        6.4843026416  LPSA34    1               0.0000000000
     36755      1189  ECLIPA    C711          -28.6873591151      -35.0168305641        4.9384125046  LPSA34    1               0.0000000000
     36756      1189  ECLIPA    H711R         -28.4678251819      -34.0137879997        4.5670708729  LPSA34    1               0.0000000000
     36757      1189  ECLIPA    H711S         -27.8040471488      -35.7048899468        4.9306188492  LPSA34    1               0.0000000000
     36758      1189  ECLIPA    C712          -29.8421096266      -35.6862234001        4.2148670498  LPSA34    1               0.0000000000
     36759      1189  ECLIPA    H712R         -30.6968725863      -35.0079511090        4.3130666899  LPSA34    1               0.0000000000
     36760      1189  ECLIPA    H712S         -30.0901944028      -36.5514558003        4.8522839389  LPSA34    1               0.0000000000
     36761      1189  ECLIPA    C713          -29.4444327563      -36.1159105236        2.7357390519  LPSA34    1               0.0000000000
     36762      1189  ECLIPA    H713R         -28.6138582016      -36.8617992873        2.8800411466  LPSA34    1               0.0000000000
     36763      1189  ECLIPA    H713S         -30.3908092451      -36.5851242721        2.2750064041  LPSA34    1               0.0000000000
     36764      1189  ECLIPA    C714          -29.1132819762      -34.8738750543        1.8879763961  LPSA34    1               0.0000000000
     36765      1189  ECLIPA    H714R         -29.9934880020      -34.2275988248        1.7626189762  LPSA34    1               0.0000000000
     36766      1189  ECLIPA    H714S         -28.1852580772      -34.3846370826        2.2081901572  LPSA34    1               0.0000000000
     36767      1189  ECLIPA    H714T         -28.9475060725      -35.3189686720        0.9249202435  LPSA34    1               0.0000000000
     36768      1189  ECLIPA    C51           -25.4385130761      -37.3950947486       14.2380633031  LPSA34    1               0.0000000000
     36769      1189  ECLIPA    O51           -26.4435296616      -38.1298554423       14.1304636378  LPSA34    1               0.0000000000
     36770      1189  ECLIPA    C52           -24.8539360896      -36.5981506721       13.0157035712  LPSA34    1               0.0000000000
     36771      1189  ECLIPA    H52R          -25.2593502301      -35.6038383468       12.8950255930  LPSA34    1               0.0000000000
     36772      1189  ECLIPA    H52S          -23.8078386739      -36.5565406368       13.2222025935  LPSA34    1               0.0000000000
     36773      1189  ECLIPA    C53           -25.0007118681      -37.5294778884       11.7526064304  LPSA34    1               0.0000000000
     36774      1189  ECLIPA    H53R          -25.0304579624      -38.5835576709       12.0082431084  LPSA34    1               0.0000000000
     36775      1189  ECLIPA    O53           -23.9689681994      -37.1141766219       10.8431816314  LPSA34    1               0.0000000000
     36776      1189  ECLIPA    C61           -23.0355191826      -37.9899725929       10.5090573566  LPSA34    1               0.0000000000
     36777      1189  ECLIPA    O61           -22.9756145578      -39.1247091809       10.8659713306  LPSA34    1               0.0000000000
     36778      1189  ECLIPA    C62           -22.0226415965      -37.3131858319        9.5765835255  LPSA34    1               0.0000000000
     36779      1189  ECLIPA    H62R          -21.3417086822      -36.7118882870       10.2152837125  LPSA34    1               0.0000000000
     36780      1189  ECLIPA    H62S          -22.5831342505      -36.5130917459        9.0470049452  LPSA34    1               0.0000000000
     36781      1189  ECLIPA    C63           -21.2881844619      -38.3430196665        8.6803029234  LPSA34    1               0.0000000000
     36782      1189  ECLIPA    H63R          -22.0565003675      -39.0240118319        8.2798705976  LPSA34    1               0.0000000000
     36783      1189  ECLIPA    H63S          -20.5458087998      -38.9886780932        9.3252199642  LPSA34    1               0.0000000000
     36784      1189  ECLIPA    C64           -20.5109323723      -37.8358477730        7.5279067597  LPSA34    1               0.0000000000
     36785      1189  ECLIPA    H64R          -19.9389720422      -38.6549846165        6.9620099216  LPSA34    1               0.0000000000
     36786      1189  ECLIPA    H64S          -19.7739510267      -37.0672168415        7.9657393466  LPSA34    1               0.0000000000
     36787      1189  ECLIPA    C65           -21.4604342401      -37.0693549601        6.5414948800  LPSA34    1               0.0000000000
     36788      1189  ECLIPA    H65R          -21.8375890739      -36.2822610474        7.2423230371  LPSA34    1               0.0000000000
     36789      1189  ECLIPA    H65S          -22.2559444736      -37.7590920153        6.1828980290  LPSA34    1               0.0000000000
     36790      1189  ECLIPA    C66           -20.8074803701      -36.4517266596        5.2222643966  LPSA34    1               0.0000000000
     36791      1189  ECLIPA    H66R          -20.0539883765      -35.7340018027        5.5395647249  LPSA34    1               0.0000000000
     36792      1189  ECLIPA    H66S          -21.7156291337      -35.9189868199        4.8113963288  LPSA34    1               0.0000000000
     36793      1189  ECLIPA    C67           -20.2697623471      -37.3878312270        4.1696839457  LPSA34    1               0.0000000000
     36794      1189  ECLIPA    H67R          -19.5893046533      -38.1377673139        4.5058181646  LPSA34    1               0.0000000000
     36795      1189  ECLIPA    H67S          -19.7746374265      -36.7962577943        3.3478820057  LPSA34    1               0.0000000000
     36796      1189  ECLIPA    C68           -21.3196135712      -38.2413819848        3.5077075145  LPSA34    1               0.0000000000
     36797      1189  ECLIPA    H68R          -22.1841942321      -37.7396373236        3.0112508411  LPSA34    1               0.0000000000
     36798      1189  ECLIPA    H68S          -21.6111973413      -38.8966033420        4.3087918325  LPSA34    1               0.0000000000
     36799      1189  ECLIPA    C69           -20.7184915545      -38.9525224180        2.2963532923  LPSA34    1               0.0000000000
     36800      1189  ECLIPA    H69R          -19.6267176093      -39.1349155023        2.3203210098  LPSA34    1               0.0000000000
     36801      1189  ECLIPA    H69S          -20.7944649213      -38.2494002011        1.4693744207  LPSA34    1               0.0000000000
     36802      1189  ECLIPA    C610          -21.4010417775      -40.2223369197        1.9396251084  LPSA34    1               0.0000000000
     36803      1189  ECLIPA    H610R         -22.5137718813      -40.1099521295        2.0603347121  LPSA34    1               0.0000000000
     36804      1189  ECLIPA    H610S         -21.1252792544      -41.0303540380        2.6933643884  LPSA34    1               0.0000000000
     36805      1189  ECLIPA    C611          -20.9897272367      -40.7785547621        0.5312153135  LPSA34    1               0.0000000000
     36806      1189  ECLIPA    H611R         -19.8930818260      -40.9272575194        0.5735373188  LPSA34    1               0.0000000000
     36807      1189  ECLIPA    H611S         -21.2833138807      -41.8035055344        0.3609598123  LPSA34    1               0.0000000000
     36808      1189  ECLIPA    C612          -21.5076709479      -39.8795626627       -0.5788949292  LPSA34    1               0.0000000000
     36809      1189  ECLIPA    H612R         -22.6304564684      -39.9636839907       -0.6060949542  LPSA34    1               0.0000000000
     36810      1189  ECLIPA    H612S         -21.3163187365      -38.8325101600       -0.3132441764  LPSA34    1               0.0000000000
     36811      1189  ECLIPA    H612T         -21.1071911809      -40.1591237581       -1.5574606966  LPSA34    1               0.0000000000
     36812      1189  ECLIPA    C54           -26.3735056896      -37.1352817113       11.1776054589  LPSA34    1               0.0000000000
     36813      1189  ECLIPA    H54R          -26.3358217288      -36.0431942117       10.8869876633  LPSA34    1               0.0000000000
     36814      1189  ECLIPA    H54S          -27.1498689025      -37.1945238492       11.9574517429  LPSA34    1               0.0000000000
     36815      1189  ECLIPA    C55           -26.9304151045      -37.9136217862        9.9916770240  LPSA34    1               0.0000000000
     36816      1189  ECLIPA    H55R          -28.0114234229      -37.7432704320        9.7856946516  LPSA34    1               0.0000000000
     36817      1189  ECLIPA    H55S          -26.8194811971      -39.0280661465       10.2436295858  LPSA34    1               0.0000000000
     36818      1189  ECLIPA    C56           -26.2336771375      -37.4204401899        8.7515486822  LPSA34    1               0.0000000000
     36819      1189  ECLIPA    H56R          -25.1179390367      -37.5971683130        8.8382497819  LPSA34    1               0.0000000000
     36820      1189  ECLIPA    H56S          -26.3699972318      -36.4188656178        8.4741334449  LPSA34    1               0.0000000000
     36821      1189  ECLIPA    C57           -26.4534656752      -38.2644112727        7.4395707935  LPSA34    1               0.0000000000
     36822      1189  ECLIPA    H57R          -27.5073747660      -38.3852624601        7.1827428724  LPSA34    1               0.0000000000
     36823      1189  ECLIPA    H57S          -26.0752424827      -39.3055783362        7.5196553379  LPSA34    1               0.0000000000
     36824      1189  ECLIPA    C58           -25.6360381474      -37.6421724630        6.2350750625  LPSA34    1               0.0000000000
     36825      1189  ECLIPA    H58R          -25.7417034209      -36.5222571152        6.2095761879  LPSA34    1               0.0000000000
     36826      1189  ECLIPA    H58S          -24.5516856586      -37.7204575717        6.5224540661  LPSA34    1               0.0000000000
     36827      1189  ECLIPA    C59           -26.0879749065      -38.2250049117        4.8667186835  LPSA34    1               0.0000000000
     36828      1189  ECLIPA    H59R          -27.1601484141      -38.0581298817        4.6589989540  LPSA34    1               0.0000000000
     36829      1189  ECLIPA    H59S          -25.8657046866      -39.2885807043        5.0825555512  LPSA34    1               0.0000000000
     36830      1189  ECLIPA    C510          -25.4049941793      -37.5290955224        3.6752379292  LPSA34    1               0.0000000000
     36831      1189  ECLIPA    H510R         -24.2804203663      -37.3570083173        3.7937959224  LPSA34    1               0.0000000000
     36832      1189  ECLIPA    H510S         -25.8722575576      -36.4648582239        3.4613250382  LPSA34    1               0.0000000000
     36833      1189  ECLIPA    C511          -25.5707412669      -38.2104454086        2.3004848829  LPSA34    1               0.0000000000
     36834      1189  ECLIPA    H511R         -24.8269481128      -39.0296096412        2.2679211996  LPSA34    1               0.0000000000
     36835      1189  ECLIPA    H511S         -26.5733934568      -38.7177324912        2.1940961976  LPSA34    1               0.0000000000
     36836      1189  ECLIPA    C512          -25.3032396886      -37.3383740113        1.0189424135  LPSA34    1               0.0000000000
     36837      1189  ECLIPA    H512R         -25.6714101114      -37.8738546231        0.0815295424  LPSA34    1               0.0000000000
     36838      1189  ECLIPA    H512S         -25.8281609422      -36.3796525905        1.1129704346  LPSA34    1               0.0000000000
     36839      1189  ECLIPA    C513          -23.7639416656      -37.1419158521        0.6457389972  LPSA34    1               0.0000000000
     36840      1189  ECLIPA    H513R         -23.2450499702      -38.1399534871        0.5010832175  LPSA34    1               0.0000000000
     36841      1189  ECLIPA    H513S         -23.2645635498      -36.6752819378        1.4088770719  LPSA34    1               0.0000000000
     36842      1189  ECLIPA    C514          -23.6226197415      -36.4028096400       -0.6567184026  LPSA34    1               0.0000000000
     36843      1189  ECLIPA    H514R         -24.1679918947      -35.4597574274       -0.6273993866  LPSA34    1               0.0000000000
     36844      1189  ECLIPA    H514S         -22.5653987568      -36.1322326395       -0.7024724270  LPSA34    1               0.0000000000
     36845      1189  ECLIPA    H514T         -23.9845584371      -37.0414508504       -1.5427815912  LPSA34    1               0.0000000000
     36846      1189  ECLIPA    C33           -20.2689071023      -37.5874350453       14.4880792826  LPSA34    1               0.0000000000
     36847      1189  ECLIPA    H33R          -19.3747579563      -37.0000448424       14.8828993596  LPSA34    1               0.0000000000
     36848      1189  ECLIPA    O33           -21.2864627321      -37.5179423779       15.4699768821  LPSA34    1               0.0000000000
     36849      1189  ECLIPA    HO33          -20.8995010882      -37.6566088143       16.2926205744  LPSA34    1               0.0000000000
     36850      1189  ECLIPA    C34           -20.7719936367      -36.8390755829       13.2255459338  LPSA34    1               0.0000000000
     36851      1189  ECLIPA    H34R          -21.6145649451      -37.3738133707       12.8010908313  LPSA34    1               0.0000000000
     36852      1189  ECLIPA    H34S          -19.9857781731      -36.9012257878       12.3772221142  LPSA34    1               0.0000000000
     36853      1189  ECLIPA    C35           -21.1936859531      -35.3719423233       13.4256256262  LPSA34    1               0.0000000000
     36854      1189  ECLIPA    H35R          -20.3079155175      -34.8018260508       13.6963698038  LPSA34    1               0.0000000000
     36855      1189  ECLIPA    H35S          -21.8969212399      -35.3196025184       14.2668166019  LPSA34    1               0.0000000000
     36856      1189  ECLIPA    C36           -21.7189178839      -34.6184345350       12.1865608177  LPSA34    1               0.0000000000
     36857      1189  ECLIPA    H36R          -22.2237621457      -35.5012556709       11.7430812241  LPSA34    1               0.0000000000
     36858      1189  ECLIPA    H36S          -20.9271385981      -34.2155179248       11.4785220412  LPSA34    1               0.0000000000
     36859      1189  ECLIPA    C37           -22.8338134579      -33.6470726611       12.5255831563  LPSA34    1               0.0000000000
     36860      1189  ECLIPA    H37R          -22.2674777134      -32.6204601973       12.6765215637  LPSA34    1               0.0000000000
     36861      1189  ECLIPA    H37S          -23.2875002164      -33.8529728812       13.5128993321  LPSA34    1               0.0000000000
     36862      1189  ECLIPA    C38           -23.9160085428      -33.4291004791       11.4317274953  LPSA34    1               0.0000000000
     36863      1189  ECLIPA    H38R          -24.6781943113      -34.2255928264       11.4067421357  LPSA34    1               0.0000000000
     36864      1189  ECLIPA    H38S          -24.4949697570      -32.5340678023       11.7230999881  LPSA34    1               0.0000000000
     36865      1189  ECLIPA    C39           -23.2964622278      -33.3565079877       10.0213367345  LPSA34    1               0.0000000000
     36866      1189  ECLIPA    H39R          -22.6750365676      -34.2675696381        9.8128797222  LPSA34    1               0.0000000000
     36867      1189  ECLIPA    H39S          -22.7399471040      -32.3832580538        9.9697980947  LPSA34    1               0.0000000000
     36868      1189  ECLIPA    C310          -24.2776496385      -33.2001505123        8.8401719124  LPSA34    1               0.0000000000
     36869      1189  ECLIPA    H310R         -24.7680396489      -32.1802556724        9.0626900142  LPSA34    1               0.0000000000
     36870      1189  ECLIPA    H310S         -25.0675880152      -34.0051067843        8.8945759064  LPSA34    1               0.0000000000
     36871      1189  ECLIPA    C311          -23.6385630986      -33.5185102491        7.5676235846  LPSA34    1               0.0000000000
     36872      1189  ECLIPA    H311R         -22.5875491429      -33.1327933590        7.5507520616  LPSA34    1               0.0000000000
     36873      1189  ECLIPA    H311S         -23.5849029212      -34.6151552366        7.2851462164  LPSA34    1               0.0000000000
     36874      1189  ECLIPA    C312          -24.3874611071      -32.9812777453        6.3280121142  LPSA34    1               0.0000000000
     36875      1189  ECLIPA    H312R         -25.4948150528      -33.0194697347        6.4861373960  LPSA34    1               0.0000000000
     36876      1189  ECLIPA    H312S         -24.0766164153      -31.9163383730        6.1820758986  LPSA34    1               0.0000000000
     36877      1189  ECLIPA    C313          -24.0541243279      -33.7170671768        4.9895779706  LPSA34    1               0.0000000000
     36878      1189  ECLIPA    H313R         -23.0802393972      -33.3960035238        4.7825120466  LPSA34    1               0.0000000000
     36879      1189  ECLIPA    H313S         -24.0368296924      -34.8302456202        5.1572698764  LPSA34    1               0.0000000000
     36880      1189  ECLIPA    C314          -24.9243252048      -33.4253814310        3.8116661598  LPSA34    1               0.0000000000
     36881      1189  ECLIPA    H314R         -24.9090887060      -32.3203186115        3.6067793993  LPSA34    1               0.0000000000
     36882      1189  ECLIPA    H314S         -24.6679692549      -33.9453964680        2.8849361441  LPSA34    1               0.0000000000
     36883      1189  ECLIPA    H314T         -26.0187219896      -33.6739782085        4.0446347774  LPSA34    1               0.0000000000
     36884      1189  ECLIPA    C11           -24.1114418504      -41.9519509896       11.2900808200  LPSA34    1               0.0000000000
     36885      1189  ECLIPA    O11           -25.1638695554      -41.3436381152       11.1394597694  LPSA34    1               0.0000000000
     36886      1189  ECLIPA    C12           -23.8460249591      -43.1121130540       10.2853014675  LPSA34    1               0.0000000000
     36887      1189  ECLIPA    H12R          -24.5202758185      -43.9836115542       10.4852637814  LPSA34    1               0.0000000000
     36888      1189  ECLIPA    H12S          -22.7873542768      -43.3994509523       10.5222272274  LPSA34    1               0.0000000000
     36889      1189  ECLIPA    C13           -23.9479577191      -42.7443125223        8.8110583416  LPSA34    1               0.0000000000
     36890      1189  ECLIPA    H13R          -24.8666480862      -42.0825827038        8.5839874118  LPSA34    1               0.0000000000
     36891      1189  ECLIPA    O13           -24.1545743576      -44.0098863086        8.1311342176  LPSA34    1               0.0000000000
     36892      1189  ECLIPA    HO13          -24.5804536715      -43.8648331311        7.3064966676  LPSA34    1               0.0000000000
     36893      1189  ECLIPA    C14           -22.6926018777      -41.9812323161        8.4581579993  LPSA34    1               0.0000000000
     36894      1189  ECLIPA    H14R          -21.7573671483      -42.4137629722        8.9706443184  LPSA34    1               0.0000000000
     36895      1189  ECLIPA    H14S          -22.8690906060      -40.9182163672        8.7243868424  LPSA34    1               0.0000000000
     36896      1189  ECLIPA    C15           -22.3669746496      -41.9729379938        6.9526486677  LPSA34    1               0.0000000000
     36897      1189  ECLIPA    H15R          -22.3682150354      -42.9721490768        6.5500123177  LPSA34    1               0.0000000000
     36898      1189  ECLIPA    H15S          -21.3863810160      -41.5000415236        6.8782608049  LPSA34    1               0.0000000000
     36899      1189  ECLIPA    C16           -23.4331133720      -41.1736470287        6.1622847334  LPSA34    1               0.0000000000
     36900      1189  ECLIPA    H16R          -23.2718421463      -40.0396353997        6.2733383262  LPSA34    1               0.0000000000
     36901      1189  ECLIPA    H16S          -24.3829687074      -41.2542225287        6.7182496574  LPSA34    1               0.0000000000
     36902      1189  ECLIPA    C17           -23.4818435536      -41.5377960106        4.6801229578  LPSA34    1               0.0000000000
     36903      1189  ECLIPA    H17R          -22.3784525320      -41.5676619407        4.4246758429  LPSA34    1               0.0000000000
     36904      1189  ECLIPA    H17S          -23.9337966450      -40.8040042294        4.0046542873  LPSA34    1               0.0000000000
     36905      1189  ECLIPA    C18           -24.1421323187      -42.8699048680        4.4504458171  LPSA34    1               0.0000000000
     36906      1189  ECLIPA    H18R          -23.5841959104      -43.5041063985        5.0865821920  LPSA34    1               0.0000000000
     36907      1189  ECLIPA    H18S          -25.2184113668      -42.7824239552        4.7749867078  LPSA34    1               0.0000000000
     36908      1189  ECLIPA    C19           -24.0689993389      -43.3105365853        3.0097966450  LPSA34    1               0.0000000000
     36909      1189  ECLIPA    H19R          -24.4435051163      -44.3209041767        2.9245509529  LPSA34    1               0.0000000000
     36910      1189  ECLIPA    H19S          -22.9977434403      -43.2590963457        2.6238151240  LPSA34    1               0.0000000000
     36911      1189  ECLIPA    C110          -24.9844112457      -42.4502013890        2.1045801788  LPSA34    1               0.0000000000
     36912      1189  ECLIPA    H110R         -26.0167264099      -42.3429229829        2.4416701971  LPSA34    1               0.0000000000
     36913      1189  ECLIPA    H110S         -24.4410092128      -41.4812196148        2.1583327743  LPSA34    1               0.0000000000
     36914      1189  ECLIPA    C111          -24.9267644436      -42.9849966094        0.7563571155  LPSA34    1               0.0000000000
     36915      1189  ECLIPA    H111R         -23.9000495706      -43.2788002525        0.3999767799  LPSA34    1               0.0000000000
     36916      1189  ECLIPA    H111S         -25.4515169286      -43.9039120945        0.7977177860  LPSA34    1               0.0000000000
     36917      1189  ECLIPA    C112          -25.6200062282      -42.1028413598       -0.2937360943  LPSA34    1               0.0000000000
     36918      1189  ECLIPA    H112R         -26.6248657850      -42.0214386714        0.1973446929  LPSA34    1               0.0000000000
     36919      1189  ECLIPA    H112S         -25.2885198737      -41.0641813625       -0.2177998937  LPSA34    1               0.0000000000
     36920      1189  ECLIPA    C113          -25.3817476002      -42.5446004922       -1.7468031795  LPSA34    1               0.0000000000
     36921      1189  ECLIPA    H113R         -24.3022103835      -42.3952555880       -1.9802017524  LPSA34    1               0.0000000000
     36922      1189  ECLIPA    H113S         -25.5198118691      -43.6252905159       -1.8531093719  LPSA34    1               0.0000000000
     36923      1189  ECLIPA    C114          -26.2711924546      -41.9973578481       -2.8344928043  LPSA34    1               0.0000000000
     36924      1189  ECLIPA    H114R         -27.3559609975      -42.0327504003       -2.7829422503  LPSA34    1               0.0000000000
     36925      1189  ECLIPA    H114S         -26.0375395165      -40.9077364811       -2.9951089580  LPSA34    1               0.0000000000
     36926      1189  ECLIPA    H114T         -26.1619142946      -42.6256395584       -3.7399523103  LPSA34    1               0.0000000000
     36927      1190  AKDO      C1            -25.4140977849      -35.9936118376       22.4410509549  LPSA34    2               0.0000000000
     36928      1190  AKDO      O11           -26.2249688837      -35.0060772884       22.4913720772  LPSA34    2               0.0000000000
     36929      1190  AKDO      O12           -24.2045203608      -36.0387034857       22.0800765534  LPSA34    2               0.0000000000
     36930      1190  AKDO      C2            -26.0021146698      -37.3346046763       22.8913181237  LPSA34    2               0.0000000000
     36931      1190  AKDO      C6            -27.9624029931      -38.2976711993       23.8039205188  LPSA34    2               0.0000000000
     36932      1190  AKDO      H6            -28.0739010907      -38.9115425427       22.9487387861  LPSA34    2               0.0000000000
     36933      1190  AKDO      O6            -27.2502092752      -37.0513406195       23.4267274814  LPSA34    2               0.0000000000
     36934      1190  AKDO      C3            -25.2145880274      -37.9887457141       23.9587385105  LPSA34    2               0.0000000000
     36935      1190  AKDO      H31           -24.9990616899      -37.3828300419       24.7868435866  LPSA34    2               0.0000000000
     36936      1190  AKDO      H32           -24.2186183653      -38.3587834653       23.4151264596  LPSA34    2               0.0000000000
     36937      1190  AKDO      C4            -25.8943456626      -39.2872310464       24.3842593775  LPSA34    2               0.0000000000
     36938      1190  AKDO      H4            -26.0923350977      -39.9454272671       23.5563617270  LPSA34    2               0.0000000000
     36939      1190  AKDO      O4            -25.0786131858      -39.9562677545       25.3355834555  LPSA34    2               0.0000000000
     36940      1190  AKDO      C5            -27.2351554429      -39.0794682900       24.9292437177  LPSA34    2               0.0000000000
     36941      1190  AKDO      H5            -27.7839023764      -40.0546280947       25.0107888161  LPSA34    2               0.0000000000
     36942      1190  AKDO      O5            -27.0983426055      -38.3268012915       26.2083878813  LPSA34    2               0.0000000000
     36943      1190  AKDO      C7            -29.4873024390      -38.0305910296       24.1981149098  LPSA34    2               0.0000000000
     36944      1190  AKDO      H7            -29.4980984024      -37.4129136635       25.0939202098  LPSA34    2               0.0000000000
     36945      1190  AKDO      O7            -30.2308326539      -39.2687534716       24.3482682347  LPSA34    2               0.0000000000
     36946      1190  AKDO      HO7           -30.3972771403      -39.5649852966       23.4945166536  LPSA34    2               0.0000000000
     36947      1190  AKDO      C8            -30.1129956963      -37.2588031405       22.9864433882  LPSA34    2               0.0000000000
     36948      1190  AKDO      H81           -29.5079650885      -36.3233353985       22.9153150275  LPSA34    2               0.0000000000
     36949      1190  AKDO      H82           -30.0270542632      -37.9583563794       22.0745354517  LPSA34    2               0.0000000000
     36950      1190  AKDO      O8            -31.5137727136      -36.9137572840       23.3537996748  LPSA34    2               0.0000000000
     36951      1190  AKDO      HO8           -31.7386232197      -36.0510484634       22.9179804014  LPSA34    2               0.0000000000
     36952      1191  AKDO      C1            -24.4080630772      -41.6366498415       23.8027969005  LPSA34    3               1.0000000000
     36953      1191  AKDO      O11           -24.0152404276      -41.2935188021       22.6471489042  LPSA34    3               1.0000000000
     36954      1191  AKDO      O12           -25.1096932311      -42.6423094684       24.0656860145  LPSA34    3               1.0000000000
     36955      1191  AKDO      C2            -24.0019149219      -40.8129900700       25.0166033796  LPSA34    3               1.0000000000
     36956      1191  AKDO      C6            -22.4574465796      -39.1312826391       25.7688829792  LPSA34    3               1.0000000000
     36957      1191  AKDO      H6            -23.3043357299      -38.4005710481       25.9810553331  LPSA34    3               1.0000000000
     36958      1191  AKDO      O6            -22.8211300640      -39.9929785216       24.7076657818  LPSA34    3               1.0000000000
     36959      1191  AKDO      C3            -23.7220299184      -41.6099418032       26.3187707743  LPSA34    3               1.0000000000
     36960      1191  AKDO      H31           -22.8254488119      -42.3378256634       26.1504935106  LPSA34    3               1.0000000000
     36961      1191  AKDO      H32           -24.5868275181      -42.2297939563       26.5929217108  LPSA34    3               1.0000000000
     36962      1191  AKDO      C4            -23.3670467690      -40.6254305423       27.4036122013  LPSA34    3               1.0000000000
     36963      1191  AKDO      H4            -24.1428293789      -39.8536280821       27.4051754129  LPSA34    3               1.0000000000
     36964      1191  AKDO      O4            -23.2762791538      -41.1437962607       28.7388570077  LPSA34    3               1.0000000000
     36965      1191  AKDO      HO4           -23.8527830178      -40.7333233158       29.3717785514  LPSA34    3               1.0000000000
     36966      1191  AKDO      C5            -22.2062644219      -39.9060050292       27.0369167275  LPSA34    3               1.0000000000
     36967      1191  AKDO      H5            -21.8998494786      -39.2326956178       27.9236884022  LPSA34    3               1.0000000000
     36968      1191  AKDO      O5            -21.0928961573      -40.7998258910       26.8495261943  LPSA34    3               1.0000000000
     36969      1191  AKDO      HO5           -21.2969003382      -41.4287942102       26.1887877298  LPSA34    3               1.0000000000
     36970      1191  AKDO      C7            -21.2381908645      -38.3620702395       25.3258859863  LPSA34    3               1.0000000000
     36971      1191  AKDO      H7            -20.3634696060      -39.0493444294       25.1324849511  LPSA34    3               1.0000000000
     36972      1191  AKDO      O7            -20.8952322824      -37.4056363823       26.3661029982  LPSA34    3               1.0000000000
     36973      1191  AKDO      HO7           -20.0135720988      -37.0266510593       26.1647669547  LPSA34    3               1.0000000000
     36974      1191  AKDO      C8            -21.6299398867      -37.5621907941       24.1539635864  LPSA34    3               1.0000000000
     36975      1191  AKDO      H81           -21.9746825482      -38.2158581399       23.3419478721  LPSA34    3               1.0000000000
     36976      1191  AKDO      H82           -22.4120016521      -36.7992699911       24.2853144505  LPSA34    3               1.0000000000
     36977      1191  AKDO      O8            -20.5108828062      -36.8652617869       23.6541307456  LPSA34    3               1.0000000000
     36978      1191  AKDO      HO8           -20.0807826744      -37.6407528412       23.2473452835  LPSA34    3               1.0000000000
     36979      1192  AHEP      C1            -27.9837947810      -38.6110047913       27.2793229502  LPSA34    4               2.0000000000
     36980      1192  AHEP      H1            -28.8303689159      -37.9803904157       26.8517192453  LPSA34    4               2.0000000000
     36981      1192  AHEP      C5            -27.6002558133      -40.8866755502       28.0185271385  LPSA34    4               2.0000000000
     36982      1192  AHEP      H5            -26.5525305590      -40.6958650347       27.5619054335  LPSA34    4               2.0000000000
     36983      1192  AHEP      O5            -28.4732866015      -39.9492695072       27.3942805697  LPSA34    4               2.0000000000
     36984      1192  AHEP      C2            -27.7759207098      -38.1016168516       28.6827861277  LPSA34    4               2.0000000000
     36985      1192  AHEP      H2            -27.3555242033      -37.0917248865       28.7442425996  LPSA34    4               2.0000000000
     36986      1192  AHEP      O2            -28.9901401145      -38.0552897264       29.3407203943  LPSA34    4               2.0000000000
     36987      1192  AHEP      HO2           -29.0394887092      -37.2690352223       29.8507927467  LPSA34    4               2.0000000000
     36988      1192  AHEP      C3            -26.8425527529      -39.0300544714       29.4857672188  LPSA34    4               2.0000000000
     36989      1192  AHEP      H3            -25.7758326577      -38.9827115986       29.2269906369  LPSA34    4               2.0000000000
     36990      1192  AHEP      O3            -26.8191800183      -38.6468431416       30.7882097304  LPSA34    4               2.0000000000
     36991      1192  AHEP      C4            -27.3912524730      -40.4334320043       29.4546205599  LPSA34    4               2.0000000000
     36992      1192  AHEP      H4            -28.3680424022      -40.5838169125       29.9788637739  LPSA34    4               2.0000000000
     36993      1192  AHEP      O4            -26.4503352884      -41.3013360634       30.0145912217  LPSA34    4               2.0000000000
     36994      1192  AHEP      P4            -26.6643556070      -42.0198360291       31.4978499249  LPSA34    4               2.0000000000
     36995      1192  AHEP      OP42          -25.3494686433      -42.1640060715       32.1560374192  LPSA34    4               2.0000000000
     36996      1192  AHEP      OP43          -27.2346693682      -43.3298334191       31.0397938518  LPSA34    4               2.0000000000
     36997      1192  AHEP      OP44          -27.7385994057      -41.2307879684       32.3098937101  LPSA34    4               2.0000000000
     36998      1192  AHEP      C6            -28.0826308097      -42.3655241028       27.7982482844  LPSA34    4               2.0000000000
     36999      1192  AHEP      H6            -27.2020928392      -43.0179909050       28.0833143566  LPSA34    4               2.0000000000
     37000      1192  AHEP      O6            -29.1579276937      -42.6037134736       28.7103505027  LPSA34    4               2.0000000000
     37001      1192  AHEP      HO6           -29.0334204637      -43.4484212212       29.2203787365  LPSA34    4               2.0000000000
     37002      1192  AHEP      C7            -28.4688500726      -42.6926198003       26.3054198206  LPSA34    4               2.0000000000
     37003      1192  AHEP      H71           -28.6490417339      -43.8091739504       26.1576126064  LPSA34    4               2.0000000000
     37004      1192  AHEP      H72           -27.7099979235      -42.2455944105       25.6323487339  LPSA34    4               2.0000000000
     37005      1192  AHEP      O7            -29.7178487927      -42.0920726456       25.9755159574  LPSA34    4               2.0000000000
     37006      1192  AHEP      HO7           -30.4198382896      -42.6632559030       26.3256794122  LPSA34    4               2.0000000000
     37007      1193  AHEP      C1            -25.5899379874      -38.2445026892       31.4342177374  LPSA34    5               3.0000000000
     37008      1193  AHEP      H1            -24.7021114774      -38.7572660523       30.9794447437  LPSA34    5               3.0000000000
     37009      1193  AHEP      C5            -26.3968139578      -36.0553237384       31.9165413065  LPSA34    5               3.0000000000
     37010      1193  AHEP      H5            -27.4112533595      -36.4777087887       31.6031509785  LPSA34    5               3.0000000000
     37011      1193  AHEP      O5            -25.3771485484      -36.8271377333       31.3013865768  LPSA34    5               3.0000000000
     37012      1193  AHEP      C2            -25.5454796796      -38.5363059787       32.9718957084  LPSA34    5               3.0000000000
     37013      1193  AHEP      H2            -25.7806495784      -39.6426808874       33.0921707216  LPSA34    5               3.0000000000
     37014      1193  AHEP      O2            -24.2430415994      -38.2920850814       33.4691025827  LPSA34    5               3.0000000000
     37015      1193  AHEP      HO2           -23.7971773393      -39.1155434224       33.6403503244  LPSA34    5               3.0000000000
     37016      1193  AHEP      C3            -26.6560967359      -37.7515331730       33.7004304811  LPSA34    5               3.0000000000
     37017      1193  AHEP      H3            -27.6451636825      -38.0522197388       33.3375632548  LPSA34    5               3.0000000000
     37018      1193  AHEP      O3            -26.7102040253      -37.9114690176       35.1462238331  LPSA34    5               3.0000000000
     37019      1193  AHEP      C4            -26.3917885482      -36.3061744528       33.4524658705  LPSA34    5               3.0000000000
     37020      1193  AHEP      H4            -25.3848613081      -35.9896597207       33.8188816395  LPSA34    5               3.0000000000
     37021      1193  AHEP      O4            -27.4599988823      -35.5362980689       34.0881196202  LPSA34    5               3.0000000000
     37022      1193  AHEP      P4            -27.1368953767      -34.5289820742       35.2810123301  LPSA34    5               3.0000000000
     37023      1193  AHEP      OP42          -28.4777820462      -34.0899050364       35.8202965042  LPSA34    5               3.0000000000
     37024      1193  AHEP      OP43          -26.3682481714      -33.3595953693       34.6107506294  LPSA34    5               3.0000000000
     37025      1193  AHEP      OP44          -26.2418841788      -35.2662040821       36.2417033353  LPSA34    5               3.0000000000
     37026      1193  AHEP      C6            -26.3395852562      -34.5644875672       31.5493607386  LPSA34    5               3.0000000000
     37027      1193  AHEP      H6            -27.2023213069      -34.0088311511       31.9533288164  LPSA34    5               3.0000000000
     37028      1193  AHEP      O6            -25.1376656238      -33.9828092318       32.0428602265  LPSA34    5               3.0000000000
     37029      1193  AHEP      HO6           -24.3083201890      -34.1919753344       31.5367188277  LPSA34    5               3.0000000000
     37030      1193  AHEP      C7            -26.5482032713      -34.3946625821       30.0822725317  LPSA34    5               3.0000000000
     37031      1193  AHEP      H71           -27.0843738776      -33.4344741463       29.9169108581  LPSA34    5               3.0000000000
     37032      1193  AHEP      H72           -27.1610664328      -35.1899449884       29.6179339851  LPSA34    5               3.0000000000
     37033      1193  AHEP      O7            -25.2409210859      -34.2214403969       29.4957736452  LPSA34    5               3.0000000000
     37034      1194  AHEP      C1            -24.7828601313      -35.3369207415       28.7926622005  LPSA34    6               4.0000000000
     37035      1194  AHEP      H1            -25.4209015695      -36.2544325398       29.0422981953  LPSA34    6               4.0000000000
     37036      1194  AHEP      C5            -24.0824024501      -34.0278882366       26.9237617191  LPSA34    6               4.0000000000
     37037      1194  AHEP      H5            -24.3961040856      -33.1347524918       27.4818042043  LPSA34    6               4.0000000000
     37038      1194  AHEP      O5            -24.8472897492      -35.1646459524       27.3547530115  LPSA34    6               4.0000000000
     37039      1194  AHEP      C2            -23.3816016377      -35.6488526366       29.2397872647  LPSA34    6               4.0000000000
     37040      1194  AHEP      H2            -23.4273116888      -35.8532283703       30.3523091474  LPSA34    6               4.0000000000
     37041      1194  AHEP      O2            -22.9113725870      -36.8685631951       28.7267108980  LPSA34    6               4.0000000000
     37042      1194  AHEP      HO2           -22.9032445809      -37.4433653406       29.4669064354  LPSA34    6               4.0000000000
     37043      1194  AHEP      C3            -22.4811007217      -34.4509011277       28.8468391403  LPSA34    6               4.0000000000
     37044      1194  AHEP      H3            -22.8271274581      -33.5892691068       29.4311808254  LPSA34    6               4.0000000000
     37045      1194  AHEP      O3            -21.0299874194      -34.6368347845       29.2225362108  LPSA34    6               4.0000000000
     37046      1194  AHEP      HO3           -20.7386027817      -34.2177348503       29.9865592523  LPSA34    6               4.0000000000
     37047      1194  AHEP      C4            -22.6152445532      -34.2823398546       27.2761740859  LPSA34    6               4.0000000000
     37048      1194  AHEP      H4            -22.1297539243      -35.1193757949       26.7944950683  LPSA34    6               4.0000000000
     37049      1194  AHEP      O4            -21.8404657875      -33.1741771338       26.7938835778  LPSA34    6               4.0000000000
     37050      1194  AHEP      HO4           -22.3702569300      -32.3657391184       27.1589530594  LPSA34    6               4.0000000000
     37051      1194  AHEP      C6            -24.3246889665      -33.6583812555       25.4906533340  LPSA34    6               4.0000000000
     37052      1194  AHEP      H6            -23.7708645027      -32.7375313470       25.3442628137  LPSA34    6               4.0000000000
     37053      1194  AHEP      O6            -23.6682013776      -34.5981063623       24.6375675438  LPSA34    6               4.0000000000
     37054      1194  AHEP      HO6           -24.2800413257      -34.9737604287       23.9977784313  LPSA34    6               4.0000000000
     37055      1194  AHEP      C7            -25.7625708845      -33.3604551118       25.1799756221  LPSA34    6               4.0000000000
     37056      1194  AHEP      H71           -25.7986102165      -32.9346425837       24.1408078076  LPSA34    6               4.0000000000
     37057      1194  AHEP      H72           -26.0845683619      -32.6113536520       25.9252229174  LPSA34    6               4.0000000000
     37058      1194  AHEP      O7            -26.6045546946      -34.4729139537       25.2517430265  LPSA34    6               4.0000000000
     37059      1194  AHEP      HO7           -26.8347354745      -34.5378985199       26.2011285002  LPSA34    6               4.0000000000
     37060      1195  AGLC      C1            -27.4780823918      -38.9938805596       35.6520976122  LPSA34    7               4.0000000000
     37061      1195  AGLC      H1            -28.5300137296      -38.9420424902       35.2047739589  LPSA34    7               4.0000000000
     37062      1195  AGLC      C5            -25.6816584915      -40.4559357742       36.0987679218  LPSA34    7               4.0000000000
     37063      1195  AGLC      H5            -24.9458188132      -39.6834922646       35.8327124756  LPSA34    7               4.0000000000
     37064      1195  AGLC      O5            -26.8837598342      -40.2412912544       35.4366254460  LPSA34    7               4.0000000000
     37065      1195  AGLC      C2            -27.6634347869      -38.8873637180       37.1582745954  LPSA34    7               4.0000000000
     37066      1195  AGLC      H2            -28.2288286365      -39.8314074601       37.4887389927  LPSA34    7               4.0000000000
     37067      1195  AGLC      O2            -28.6028533541      -37.8504858486       37.5024056006  LPSA34    7               4.0000000000
     37068      1195  AGLC      HO2           -28.0729140085      -37.0691222533       37.6430208865  LPSA34    7               4.0000000000
     37069      1195  AGLC      C3            -26.4875540762      -39.0461591194       37.9903802326  LPSA34    7               4.0000000000
     37070      1195  AGLC      H3            -25.8301597405      -38.2358279062       37.6727250444  LPSA34    7               4.0000000000
     37071      1195  AGLC      O3            -26.6426582358      -38.8160652313       39.4204481292  LPSA34    7               4.0000000000
     37072      1195  AGLC      C4            -25.9556976421      -40.3921829129       37.5928595998  LPSA34    7               4.0000000000
     37073      1195  AGLC      H4            -26.6639703366      -41.2247004624       37.9560286200  LPSA34    7               4.0000000000
     37074      1195  AGLC      O4            -24.6602415453      -40.4806988312       38.2243117391  LPSA34    7               4.0000000000
     37075      1195  AGLC      HO4           -24.4868439607      -41.3110686917       38.6132003238  LPSA34    7               4.0000000000
     37076      1195  AGLC      C6            -24.9843269743      -41.7145860231       35.5245160098  LPSA34    7               4.0000000000
     37077      1195  AGLC      H61           -24.9499008844      -41.5775634344       34.4135318240  LPSA34    7               4.0000000000
     37078      1195  AGLC      H62           -23.9543945793      -41.9440945897       35.8722646349  LPSA34    7               4.0000000000
     37079      1195  AGLC      O6            -25.9000910403      -42.8397877120       35.6892983147  LPSA34    7               4.0000000000
     37080      1195  AGLC      HO6           -25.5281832307      -43.2218138759       36.4386090630  LPSA34    7               4.0000000000
     37081      1196  AGLC      C1            -25.9778815853      -37.7163268051       39.9328324507  LPSA34    8               5.0000000000
     37082      1196  AGLC      H1            -24.9289815450      -37.7143006530       39.5884769495  LPSA34    8               5.0000000000
     37083      1196  AGLC      C5            -27.9014151747      -36.1722451329       40.2153373402  LPSA34    8               5.0000000000
     37084      1196  AGLC      H5            -28.5588045832      -36.9658577001       39.8400606936  LPSA34    8               5.0000000000
     37085      1196  AGLC      O5            -26.5990853681      -36.4229561242       39.6195505863  LPSA34    8               5.0000000000
     37086      1196  AGLC      C2            -25.8977251899      -37.7879983382       41.4170311384  LPSA34    8               5.0000000000
     37087      1196  AGLC      H2            -25.2016835009      -36.9515317322       41.6529594578  LPSA34    8               5.0000000000
     37088      1196  AGLC      O2            -25.1857221409      -38.9017330833       41.9438754185  LPSA34    8               5.0000000000
     37089      1196  AGLC      C3            -27.1875184798      -37.5958063317       42.1297388169  LPSA34    8               5.0000000000
     37090      1196  AGLC      H3            -27.7680016871      -38.4462779805       41.6567950186  LPSA34    8               5.0000000000
     37091      1196  AGLC      O3            -27.0097215767      -37.7956785053       43.5370978028  LPSA34    8               5.0000000000
     37092      1196  AGLC      C4            -27.6957126528      -36.2822795812       41.7603093222  LPSA34    8               5.0000000000
     37093      1196  AGLC      H4            -27.0021724422      -35.5110527426       42.0401368658  LPSA34    8               5.0000000000
     37094      1196  AGLC      O4            -28.9273273910      -36.0219197621       42.3914819843  LPSA34    8               5.0000000000
     37095      1196  AGLC      HO4           -29.4280160101      -36.8006178757       42.3800652601  LPSA34    8               5.0000000000
     37096      1196  AGLC      C6            -28.6413665116      -34.9012020174       39.7357334439  LPSA34    8               5.0000000000
     37097      1196  AGLC      H61           -28.6149340470      -34.7499162780       38.6468043611  LPSA34    8               5.0000000000
     37098      1196  AGLC      H62           -29.6733097556      -34.8412687287       40.0276014644  LPSA34    8               5.0000000000
     37099      1196  AGLC      O6            -28.1665153666      -33.7164234860       40.3040784562  LPSA34    8               5.0000000000
     37100      1196  AGLC      HO6           -28.5004895720      -33.5783722939       41.2121845210  LPSA34    8               5.0000000000
     37101      1197  AGAL      C1            -23.9112391056      -39.1961558013       41.4573847493  LPSA34    9               6.0000000000
     37102      1197  AGAL      H1            -23.9046606629      -39.1485273014       40.3420235153  LPSA34    9               6.0000000000
     37103      1197  AGAL      C5            -22.5920029175      -38.4113071460       43.2125447641  LPSA34    9               6.0000000000
     37104      1197  AGAL      H5            -23.6212450941      -38.3427641195       43.7424973645  LPSA34    9               6.0000000000
     37105      1197  AGAL      O5            -22.8073603509      -38.3210209476       41.8451689838  LPSA34    9               6.0000000000
     37106      1197  AGAL      C2            -23.5789311438      -40.6142108176       41.8393925249  LPSA34    9               6.0000000000
     37107      1197  AGAL      H2            -22.6232628463      -40.8813709773       41.4115621152  LPSA34    9               6.0000000000
     37108      1197  AGAL      O2            -24.4178150253      -41.5679093063       41.1608705954  LPSA34    9               6.0000000000
     37109      1197  AGAL      C3            -23.3362364543      -40.7534957320       43.3264191845  LPSA34    9               6.0000000000
     37110      1197  AGAL      H3            -24.3130913978      -40.5349833373       43.9424563891  LPSA34    9               6.0000000000
     37111      1197  AGAL      O3            -23.1188224588      -42.0659283035       43.7491515633  LPSA34    9               6.0000000000
     37112      1197  AGAL      HO3           -23.6460061729      -42.6238127618       43.1585960960  LPSA34    9               6.0000000000
     37113      1197  AGAL      C4            -22.2254728138      -39.8371015901       43.6505755014  LPSA34    9               6.0000000000
     37114      1197  AGAL      H4            -22.0179782053      -39.7711100033       44.7734818408  LPSA34    9               6.0000000000
     37115      1197  AGAL      O4            -21.0066667731      -40.1495432062       43.0499075873  LPSA34    9               6.0000000000
     37116      1197  AGAL      HO4           -20.3156524105      -39.8529151415       43.6622427513  LPSA34    9               6.0000000000
     37117      1197  AGAL      C6            -21.8304774585      -37.2401189968       43.8349081587  LPSA34    9               6.0000000000
     37118      1197  AGAL      H61           -22.3052526501      -36.2437227166       43.6417203355  LPSA34    9               6.0000000000
     37119      1197  AGAL      H62           -21.7598372880      -37.2682470185       44.9292747136  LPSA34    9               6.0000000000
     37120      1197  AGAL      O6            -20.5025364376      -37.2092267734       43.4062227539  LPSA34    9               6.0000000000
     37121      1197  AGAL      HO6           -20.4510487321      -36.5471457123       42.6923548993  LPSA34    9               6.0000000000
     37122      1198  AGAL      C1            -25.1373767826      -42.6755370627       41.7517281777  LPSA34    10              7.0000000000
     37123      1198  AGAL      H1            -24.3655232367      -43.4515771703       41.8429972083  LPSA34    10              7.0000000000
     37124      1198  AGAL      C5            -26.8657897255      -41.6325060458       43.0613392294  LPSA34    10              7.0000000000
     37125      1198  AGAL      H5            -26.4447275844      -40.6227871131       42.6233508762  LPSA34    10              7.0000000000
     37126      1198  AGAL      O5            -25.7937317262      -42.5945241506       43.0470213554  LPSA34    10              7.0000000000
     37127      1198  AGAL      C2            -26.2039293377      -43.0932749397       40.7227968417  LPSA34    10              7.0000000000
     37128      1198  AGAL      H2            -26.5261843264      -44.1587646282       41.0433947026  LPSA34    10              7.0000000000
     37129      1198  AGAL      O2            -25.6761100554      -43.5475420491       39.5532095562  LPSA34    10              7.0000000000
     37130      1198  AGAL      HO2           -26.0100308291      -44.4098872931       39.3379401176  LPSA34    10              7.0000000000
     37131      1198  AGAL      C3            -27.3507062449      -42.1472196046       40.6928251787  LPSA34    10              7.0000000000
     37132      1198  AGAL      H3            -26.8803743824      -41.1921519104       40.4679648945  LPSA34    10              7.0000000000
     37133      1198  AGAL      O3            -28.3553705378      -42.4538551705       39.7732034444  LPSA34    10              7.0000000000
     37134      1198  AGAL      HO3           -28.2711399634      -41.8242288174       39.0151094934  LPSA34    10              7.0000000000
     37135      1198  AGAL      C4            -27.9569905707      -42.0731832765       42.0524071915  LPSA34    10              7.0000000000
     37136      1198  AGAL      H4            -28.7480212704      -41.3007160458       42.1099272557  LPSA34    10              7.0000000000
     37137      1198  AGAL      O4            -28.5230852349      -43.2717502445       42.4965010455  LPSA34    10              7.0000000000
     37138      1198  AGAL      HO4           -27.7883086143      -43.8542302549       42.5675127347  LPSA34    10              7.0000000000
     37139      1198  AGAL      C6            -27.4286926752      -41.2616600627       44.3959537205  LPSA34    10              7.0000000000
     37140      1198  AGAL      H61           -26.6563968234      -40.9781115917       45.1044438806  LPSA34    10              7.0000000000
     37141      1198  AGAL      H62           -28.0659714395      -40.2604810524       44.2564473849  LPSA34    10              7.0000000000
     37142      1198  AGAL      O6            -28.2796983006      -42.1821629016       45.1112340130  LPSA34    10              7.0000000000
     37143      1198  AGAL      HO6           -27.8129015466      -42.4496204469       45.9237589285  LPSA34    10              7.0000000000
     37144      1199  BGLC      C1            -26.7677014407      -36.7876102400       44.5018065681  LPSA34    11              6.0000000000
     37145      1199  BGLC      H1            -27.7364249811      -36.3181616967       44.5883763758  LPSA34    11              6.0000000000
     37146      1199  BGLC      C5            -25.3508787318      -34.8171312359       45.1248117688  LPSA34    11              6.0000000000
     37147      1199  BGLC      H5            -26.2466415616      -34.1521628964       45.3871201921  LPSA34    11              6.0000000000
     37148      1199  BGLC      O5            -25.6669667906      -35.8859896824       44.0830650888  LPSA34    11              6.0000000000
     37149      1199  BGLC      C2            -26.3521659765      -37.4360430609       45.7977571702  LPSA34    11              6.0000000000
     37150      1199  BGLC      H2            -25.4584331803      -38.1062869786       45.7293388291  LPSA34    11              6.0000000000
     37151      1199  BGLC      O2            -27.3996412573      -38.3498563728       46.0886391483  LPSA34    11              6.0000000000
     37152      1199  BGLC      HO2           -27.0258556512      -39.1887065302       46.2788110113  LPSA34    11              6.0000000000
     37153      1199  BGLC      C3            -26.0271191074      -36.4850551427       46.8736276645  LPSA34    11              6.0000000000
     37154      1199  BGLC      H3            -27.0139076418      -35.9456975291       47.1984917368  LPSA34    11              6.0000000000
     37155      1199  BGLC      O3            -25.6106328116      -37.2399787575       48.0056213318  LPSA34    11              6.0000000000
     37156      1199  BGLC      C4            -24.9889977323      -35.5737005700       46.4390836423  LPSA34    11              6.0000000000
     37157      1199  BGLC      H4            -24.0814641451      -36.2246466260       46.2001611147  LPSA34    11              6.0000000000
     37158      1199  BGLC      O4            -24.5794654702      -34.6981706424       47.4766894645  LPSA34    11              6.0000000000
     37159      1199  BGLC      HO4           -24.0845287937      -35.2133258125       48.1247908570  LPSA34    11              6.0000000000
     37160      1199  BGLC      C6            -24.3442332291      -33.8177700908       44.5291127165  LPSA34    11              6.0000000000
     37161      1199  BGLC      H61           -23.8039713466      -33.2170315988       45.2481190913  LPSA34    11              6.0000000000
     37162      1199  BGLC      H62           -23.6419519300      -34.4105414485       43.8913252379  LPSA34    11              6.0000000000
     37163      1199  BGLC      O6            -24.9088023329      -32.8891159929       43.5637942269  LPSA34    11              6.0000000000
     37164      1199  BGLC      HO6           -24.8512777629      -32.0748069466       44.0054369298  LPSA34    11              6.0000000000
     37165      1200  BGLCNA    C1            -26.1745209187      -37.0519883579       49.3238540420  LPSA34    12              7.0000000000
     37166      1200  BGLCNA    H1            -27.1082317691      -37.7064876453       49.3874222992  LPSA34    12              7.0000000000
     37167      1200  BGLCNA    C5            -27.1950191130      -35.5370806563       50.8763077070  LPSA34    12              7.0000000000
     37168      1200  BGLCNA    H5            -28.1604872471      -36.2093751257       50.9814236466  LPSA34    12              7.0000000000
     37169      1200  BGLCNA    O5            -26.5444760967      -35.6800571488       49.5875345322  LPSA34    12              7.0000000000
     37170      1200  BGLCNA    C2            -25.1505795330      -37.4738603439       50.3245054808  LPSA34    12              7.0000000000
     37171      1200  BGLCNA    H2            -24.3351685628      -36.6322845896       50.3375086743  LPSA34    12              7.0000000000
     37172      1200  BGLCNA    N             -24.6784854394      -38.8418701862       50.0347611965  LPSA34    12              7.0000000000
     37173      1200  BGLCNA    HN            -25.4313790332      -39.4113218189       49.9972643287  LPSA34    12              7.0000000000
     37174      1200  BGLCNA    C             -23.4137327066      -39.0975191872       49.8903426450  LPSA34    12              7.0000000000
     37175      1200  BGLCNA    O             -22.5879612369      -38.2168621109       50.0855928044  LPSA34    12              7.0000000000
     37176      1200  BGLCNA    CT            -23.0421362786      -40.5128770510       49.5677689528  LPSA34    12              7.0000000000
     37177      1200  BGLCNA    HT1           -22.4884450605      -40.9977822983       50.3918503408  LPSA34    12              7.0000000000
     37178      1200  BGLCNA    HT2           -22.2319071340      -40.5263637893       48.7104760971  LPSA34    12              7.0000000000
     37179      1200  BGLCNA    HT3           -23.9803235890      -41.0198719307       49.2316245990  LPSA34    12              7.0000000000
     37180      1200  BGLCNA    C3            -25.6956981190      -37.3968614043       51.6995695120  LPSA34    12              7.0000000000
     37181      1200  BGLCNA    H3            -26.5801210360      -38.1703144075       51.8605307917  LPSA34    12              7.0000000000
     37182      1200  BGLCNA    O3            -24.7682601931      -37.8412408168       52.7272334264  LPSA34    12              7.0000000000
     37183      1200  BGLCNA    C4            -26.1404892772      -35.9928163595       51.9591692987  LPSA34    12              7.0000000000
     37184      1200  BGLCNA    H4            -25.2960639723      -35.2064565839       51.9037868612  LPSA34    12              7.0000000000
     37185      1200  BGLCNA    O4            -26.6819887200      -35.8447547152       53.2294962294  LPSA34    12              7.0000000000
     37186      1200  BGLCNA    HO4           -27.6057583360      -36.2282214597       53.2834945119  LPSA34    12              7.0000000000
     37187      1200  BGLCNA    C6            -27.7138475283      -34.0868033881       50.9528560558  LPSA34    12              7.0000000000
     37188      1200  BGLCNA    H61           -28.1280242174      -33.8891676809       51.9144325068  LPSA34    12              7.0000000000
     37189      1200  BGLCNA    H62           -26.8118791827      -33.4977085822       50.8287962869  LPSA34    12              7.0000000000
     37190      1200  BGLCNA    O6            -28.5513067306      -33.8062065401       49.8597561973  LPSA34    12              7.0000000000
     37191      1200  BGLCNA    HO6           -29.4071884154      -34.0426537904       50.1903398796  LPSA34    12              7.0000000000
     37192      1201  AGAL      C1            -25.3397578462      -38.6397399902       53.8132743488  LPSA34    13              8.0000000000
     37193      1201  AGAL      H1            -26.2540130128      -38.1336802551       54.1959401301  LPSA34    13              8.0000000000
     37194      1201  AGAL      C5            -24.1781837300      -40.6870183402       53.2950732168  LPSA34    13              8.0000000000
     37195      1201  AGAL      H5            -23.6544450319      -40.0748083854       52.5641412600  LPSA34    13              8.0000000000
     37196      1201  AGAL      O5            -25.4609088725      -40.0712632920       53.4918445955  LPSA34    13              8.0000000000
     37197      1201  AGAL      C2            -24.4707413559      -38.6611036493       55.1010141246  LPSA34    13              8.0000000000
     37198      1201  AGAL      H2            -24.8874896289      -39.4213833152       55.7917211299  LPSA34    13              8.0000000000
     37199      1201  AGAL      O2            -24.4638619451      -37.4174046655       55.7701983428  LPSA34    13              8.0000000000
     37200      1201  AGAL      C3            -23.0933832606      -39.3374877441       54.8979691660  LPSA34    13              8.0000000000
     37201      1201  AGAL      H3            -22.6069626915      -38.8700055991       54.0477453328  LPSA34    13              8.0000000000
     37202      1201  AGAL      O3            -22.1914548985      -39.0977218715       55.9888739531  LPSA34    13              8.0000000000
     37203      1201  AGAL      HO3           -21.3030232839      -38.9423975614       55.6848713412  LPSA34    13              8.0000000000
     37204      1201  AGAL      C4            -23.2632836354      -40.7044042338       54.5514025965  LPSA34    13              8.0000000000
     37205      1201  AGAL      H4            -22.2672985840      -41.1709708689       54.1954731349  LPSA34    13              8.0000000000
     37206      1201  AGAL      O4            -23.8394565389      -41.4869697592       55.5743212917  LPSA34    13              8.0000000000
     37207      1201  AGAL      HO4           -24.5914040854      -41.1040447889       56.0499681296  LPSA34    13              8.0000000000
     37208      1201  AGAL      C6            -24.1935048822      -41.9959542275       52.5301443486  LPSA34    13              8.0000000000
     37209      1201  AGAL      H61           -24.8074918697      -41.8864776948       51.6253596531  LPSA34    13              8.0000000000
     37210      1201  AGAL      H62           -23.1340535180      -42.3158712912       52.3684678279  LPSA34    13              8.0000000000
     37211      1201  AGAL      O6            -24.7716523401      -43.0309690485       53.2985910507  LPSA34    13              8.0000000000
     37212      1201  AGAL      HO6           -24.1092602261      -43.3524984697       53.9299633642  LPSA34    13              8.0000000000
     37213      1202  ARHM      C1            -25.0952130953      -37.2801971425       57.0117786358  LPSA34    14              9.0000000000
     37214      1202  ARHM      H1            -25.9065587233      -38.0372546071       56.9981767125  LPSA34    14              9.0000000000
     37215      1202  ARHM      C5            -24.7529636133      -34.9847236303       57.1930138837  LPSA34    14              9.0000000000
     37216      1202  ARHM      H5            -24.1725945683      -35.0482017648       56.1976867078  LPSA34    14              9.0000000000
     37217      1202  ARHM      O5            -25.6855166810      -36.0000395285       57.1718909996  LPSA34    14              9.0000000000
     37218      1202  ARHM      C2            -24.0741812095      -37.5393360434       58.1413490634  LPSA34    14              9.0000000000
     37219      1202  ARHM      H2            -23.6412929652      -38.4986952148       57.8875987320  LPSA34    14              9.0000000000
     37220      1202  ARHM      O2            -24.6013481922      -37.5361911422       59.4330148990  LPSA34    14              9.0000000000
     37221      1202  ARHM      C3            -23.0268356948      -36.4641233418       58.1095432995  LPSA34    14              9.0000000000
     37222      1202  ARHM      H3            -22.6630180555      -36.3700647404       57.0440121713  LPSA34    14              9.0000000000
     37223      1202  ARHM      O3            -21.8816536081      -36.7372226970       58.8567888868  LPSA34    14              9.0000000000
     37224      1202  ARHM      HO3           -22.1605288790      -36.6149816083       59.8104957846  LPSA34    14              9.0000000000
     37225      1202  ARHM      C4            -23.7274874516      -35.1760397040       58.3490442956  LPSA34    14              9.0000000000
     37226      1202  ARHM      H4            -24.3205293737      -35.0967061959       59.2902338481  LPSA34    14              9.0000000000
     37227      1202  ARHM      O4            -22.7425261331      -34.1104702870       58.4446785014  LPSA34    14              9.0000000000
     37228      1202  ARHM      HO4           -22.6466628359      -33.6886665166       59.2969967688  LPSA34    14              9.0000000000
     37229      1202  ARHM      C6            -25.4646011511      -33.6223475060       57.2492155848  LPSA34    14              9.0000000000
     37230      1202  ARHM      H61           -26.3567114038      -33.5184649640       56.5358243550  LPSA34    14              9.0000000000
     37231      1202  ARHM      H62           -25.7197533697      -33.4657236651       58.3170764683  LPSA34    14              9.0000000000
     37232      1202  ARHM      H63           -24.9293250631      -32.7206918934       56.9421594120  LPSA34    14              9.0000000000
     37233      1203  ARHM      C1            -25.6746198224      -38.2838691503       59.7267990175  LPSA34    15             10.0000000000
     37234      1203  ARHM      H1            -25.7563914348      -39.1584593543       59.0458905905  LPSA34    15             10.0000000000
     37235      1203  ARHM      C5            -27.1186327782      -36.4850663574       60.6468530148  LPSA34    15             10.0000000000
     37236      1203  ARHM      H5            -26.4113111435      -35.6199777398       60.4457705401  LPSA34    15             10.0000000000
     37237      1203  ARHM      O5            -26.9258057205      -37.5539442059       59.6688136410  LPSA34    15             10.0000000000
     37238      1203  ARHM      C2            -25.5345431395      -38.8437318979       61.1407671534  LPSA34    15             10.0000000000
     37239      1203  ARHM      H2            -24.4857429858      -39.3240828321       61.2133420761  LPSA34    15             10.0000000000
     37240      1203  ARHM      O2            -26.6035187798      -39.8188224171       61.3234079317  LPSA34    15             10.0000000000
     37241      1203  ARHM      C3            -25.6156017346      -37.7134029525       62.1677656617  LPSA34    15             10.0000000000
     37242      1203  ARHM      H3            -24.8429433674      -36.9538934507       61.8628392879  LPSA34    15             10.0000000000
     37243      1203  ARHM      O3            -25.1249573346      -38.2864086480       63.4092175029  LPSA34    15             10.0000000000
     37244      1203  ARHM      C4            -26.9162331008      -37.0784452149       62.0487117432  LPSA34    15             10.0000000000
     37245      1203  ARHM      H4            -27.7317352861      -37.9014655364       62.1496903561  LPSA34    15             10.0000000000
     37246      1203  ARHM      O4            -27.2337656407      -36.0260780401       62.9635513464  LPSA34    15             10.0000000000
     37247      1203  ARHM      HO4           -28.1714334675      -35.9059214557       62.9565205260  LPSA34    15             10.0000000000
     37248      1203  ARHM      C6            -28.4833542369      -35.8673201782       60.4460959132  LPSA34    15             10.0000000000
     37249      1203  ARHM      H61           -28.6926125155      -34.9764429885       61.0956562646  LPSA34    15             10.0000000000
     37250      1203  ARHM      H62           -28.6683507398      -35.7284729578       59.3910198679  LPSA34    15             10.0000000000
     37251      1203  ARHM      H63           -29.3075378288      -36.5151492733       60.8578185328  LPSA34    15             10.0000000000
     37252      1204  BMANNA    C1            -26.6608912417      -40.5876092758       62.5145562334  LPSA34    16             11.0000000000
     37253      1204  BMANNA    H1            -27.0078241051      -39.8645719415       63.3432051365  LPSA34    16             11.0000000000
     37254      1204  BMANNA    C5            -25.5897578606      -41.8490005093       64.1851548173  LPSA34    16             11.0000000000
     37255      1204  BMANNA    H5            -25.9630023422      -41.1901138091       64.9800677769  LPSA34    16             11.0000000000
     37256      1204  BMANNA    O5            -25.4237023477      -41.1641710275       62.9158851071  LPSA34    16             11.0000000000
     37257      1204  BMANNA    C2            -27.7277937569      -41.6820232314       62.2781089586  LPSA34    16             11.0000000000
     37258      1204  BMANNA    H2            -28.6503913027      -41.1123516678       61.9912908466  LPSA34    16             11.0000000000
     37259      1204  BMANNA    N             -27.4868308018      -42.6740706158       61.2264456342  LPSA34    16             11.0000000000
     37260      1204  BMANNA    HN            -26.9994020332      -43.4433624875       61.5688724990  LPSA34    16             11.0000000000
     37261      1204  BMANNA    C             -27.8335085156      -42.5390709152       59.9704010620  LPSA34    16             11.0000000000
     37262      1204  BMANNA    O             -28.4931903450      -41.5458724817       59.5582221915  LPSA34    16             11.0000000000
     37263      1204  BMANNA    CT            -27.4022296976      -43.6464423578       59.1331689300  LPSA34    16             11.0000000000
     37264      1204  BMANNA    HT1           -28.1723887079      -44.3402225063       58.8344492748  LPSA34    16             11.0000000000
     37265      1204  BMANNA    HT2           -26.5779833070      -44.2547093487       59.5043001239  LPSA34    16             11.0000000000
     37266      1204  BMANNA    HT3           -27.0339044642      -43.2740033510       58.1231520073  LPSA34    16             11.0000000000
     37267      1204  BMANNA    C3            -27.9204126137      -42.3591110096       63.6119771117  LPSA34    16             11.0000000000
     37268      1204  BMANNA    H3            -28.2362734803      -41.6097220083       64.3839812837  LPSA34    16             11.0000000000
     37269      1204  BMANNA    O3            -28.9405851943      -43.3157920845       63.6122488842  LPSA34    16             11.0000000000
     37270      1204  BMANNA    HO3           -29.5726686301      -43.1338531524       64.2950500102  LPSA34    16             11.0000000000
     37271      1204  BMANNA    C4            -26.6149647536      -42.9965878488       64.1045846713  LPSA34    16             11.0000000000
     37272      1204  BMANNA    H4            -26.2471234004      -43.7778889792       63.4124605202  LPSA34    16             11.0000000000
     37273      1204  BMANNA    O4            -26.6494468155      -43.6593523378       65.3816866120  LPSA34    16             11.0000000000
     37274      1204  BMANNA    HO4           -25.9550521991      -44.3144814586       65.4353184152  LPSA34    16             11.0000000000
     37275      1204  BMANNA    C6            -24.2618335938      -42.3774018086       64.7427751243  LPSA34    16             11.0000000000
     37276      1204  BMANNA    H61           -24.3498964375      -42.3662993937       65.8875394407  LPSA34    16             11.0000000000
     37277      1204  BMANNA    H62           -24.0862266764      -43.4115728910       64.4389269682  LPSA34    16             11.0000000000
     37278      1204  BMANNA    O6            -23.1096359853      -41.5973311818       64.3660927576  LPSA34    16             11.0000000000
     37279      1204  BMANNA    HO6           -22.5607773336      -42.2687084040       63.9036969990  LPSA34    16             11.0000000000
     37280      1205  BGLCNA    C1            -24.3757117811      -37.4669085409       64.1715778089  LPSA34    17             11.0000000000
     37281      1205  BGLCNA    H1            -24.6591766346      -36.3688080174       63.9082176002  LPSA34    17             11.0000000000
     37282      1205  BGLCNA    C5            -22.0944773610      -36.6798132006       64.5563394407  LPSA34    17             11.0000000000
     37283      1205  BGLCNA    H5            -22.3295584034      -35.5837994874       64.2825289487  LPSA34    17             11.0000000000
     37284      1205  BGLCNA    O5            -22.9719820354      -37.5140582109       63.7849982893  LPSA34    17             11.0000000000
     37285      1205  BGLCNA    C2            -24.5746345802      -37.8582006422       65.5899343931  LPSA34    17             11.0000000000
     37286      1205  BGLCNA    H2            -24.2629054454      -38.9315365848       65.8249043900  LPSA34    17             11.0000000000
     37287      1205  BGLCNA    N             -25.9497431845      -37.8998550387       65.8849826081  LPSA34    17             11.0000000000
     37288      1205  BGLCNA    HN            -26.5660964068      -37.2402679625       65.4150135415  LPSA34    17             11.0000000000
     37289      1205  BGLCNA    C             -26.6022029835      -38.5886913440       66.8043620798  LPSA34    17             11.0000000000
     37290      1205  BGLCNA    O             -26.0544043952      -39.4570991287       67.4729873017  LPSA34    17             11.0000000000
     37291      1205  BGLCNA    CT            -28.0360013468      -38.2563703762       66.9728872304  LPSA34    17             11.0000000000
     37292      1205  BGLCNA    HT1           -28.8099041524      -38.9240861594       66.5529393721  LPSA34    17             11.0000000000
     37293      1205  BGLCNA    HT2           -28.1625205085      -37.1897354010       66.7043805047  LPSA34    17             11.0000000000
     37294      1205  BGLCNA    HT3           -28.3081614927      -38.2262115282       68.1408097225  LPSA34    17             11.0000000000
     37295      1205  BGLCNA    C3            -23.7401313494      -36.8979811503       66.4076579941  LPSA34    17             11.0000000000
     37296      1205  BGLCNA    H3            -24.1347144640      -35.8904675224       66.0441361901  LPSA34    17             11.0000000000
     37297      1205  BGLCNA    O3            -24.1201939784      -37.0740643030       67.8205355914  LPSA34    17             11.0000000000
     37298      1205  BGLCNA    C4            -22.2736300781      -37.0947238753       66.0496966154  LPSA34    17             11.0000000000
     37299      1205  BGLCNA    H4            -21.9698617877      -38.1980127741       66.1123142204  LPSA34    17             11.0000000000
     37300      1205  BGLCNA    O4            -21.4067277827      -36.3943548622       66.9186044206  LPSA34    17             11.0000000000
     37301      1205  BGLCNA    HO4           -20.4798552736      -36.4533635012       66.7204061560  LPSA34    17             11.0000000000
     37302      1205  BGLCNA    C6            -20.6359669203      -36.9207058618       64.1200051697  LPSA34    17             11.0000000000
     37303      1205  BGLCNA    H61           -20.0926686659      -35.9959075110       64.1272946536  LPSA34    17             11.0000000000
     37304      1205  BGLCNA    H62           -20.1097021256      -37.6392470831       64.8212395067  LPSA34    17             11.0000000000
     37305      1205  BGLCNA    O6            -20.5417569164      -37.4557160118       62.7926115083  LPSA34    17             11.0000000000
     37306      1205  BGLCNA    HO6           -20.9487254984      -36.8477218390       62.1856770532  LPSA34    17             11.0000000000
     37307      1206  AGAL      C1            -24.1236025089      -35.8637879590       68.6198653987  LPSA34    18             12.0000000000
     37308      1206  AGAL      H1            -23.0441990052      -35.5867025850       68.8082567594  LPSA34    18             12.0000000000
     37309      1206  AGAL      C5            -26.2350134538      -35.0049166850       67.8636918791  LPSA34    18             12.0000000000
     37310      1206  AGAL      H5            -26.3905305902      -35.9863626675       67.4068928888  LPSA34    18             12.0000000000
     37311      1206  AGAL      O5            -24.7823273517      -34.7907042960       67.9834320655  LPSA34    18             12.0000000000
     37312      1206  AGAL      C2            -24.8559673625      -36.0711661429       70.0000206359  LPSA34    18             12.0000000000
     37313      1206  AGAL      H2            -24.7547835504      -35.0325446661       70.3908489884  LPSA34    18             12.0000000000
     37314      1206  AGAL      O2            -24.0970904082      -36.8819622680       70.8342757016  LPSA34    18             12.0000000000
     37315      1206  AGAL      C3            -26.3170587974      -36.3264279382       69.8682924558  LPSA34    18             12.0000000000
     37316      1206  AGAL      H3            -26.4675503022      -37.1855194454       69.0958348126  LPSA34    18             12.0000000000
     37317      1206  AGAL      O3            -26.9091013055      -36.6999609721       71.0758896640  LPSA34    18             12.0000000000
     37318      1206  AGAL      HO3           -27.4832679464      -37.4602768258       70.9682873819  LPSA34    18             12.0000000000
     37319      1206  AGAL      C4            -26.9394211294      -35.1900693379       69.1634745928  LPSA34    18             12.0000000000
     37320      1206  AGAL      H4            -28.0175977057      -35.3092802384       68.9039691178  LPSA34    18             12.0000000000
     37321      1206  AGAL      O4            -26.8702452015      -33.9873418525       69.9734134928  LPSA34    18             12.0000000000
     37322      1206  AGAL      HO4           -27.5574289457      -34.0539083085       70.7236544006  LPSA34    18             12.0000000000
     37323      1206  AGAL      C6            -26.7221187416      -34.1201551857       66.8042742825  LPSA34    18             12.0000000000
     37324      1206  AGAL      H61           -26.2114040055      -34.4197727485       65.8877991861  LPSA34    18             12.0000000000
     37325      1206  AGAL      H62           -27.8060890762      -34.3735180687       66.6499463921  LPSA34    18             12.0000000000
     37326      1206  AGAL      O6            -26.5099299978      -32.8138986370       66.9803033045  LPSA34    18             12.0000000000
     37327      1206  AGAL      HO6           -25.9098100029      -32.5513255690       67.6707071977  LPSA34    18             12.0000000000
     37328      1207  ARHM      C1            -24.0927292564      -36.3413453472       72.1803514454  LPSA34    19             13.0000000000
     37329      1207  ARHM      H1            -24.9161494628      -35.6697782898       72.3185909119  LPSA34    19             13.0000000000
     37330      1207  ARHM      C5            -21.7380535067      -36.0698193995       72.2512180912  LPSA34    19             13.0000000000
     37331      1207  ARHM      H5            -21.7233283179      -36.4918790061       71.2133247196  LPSA34    19             13.0000000000
     37332      1207  ARHM      O5            -23.0066942592      -35.4339842728       72.4162684983  LPSA34    19             13.0000000000
     37333      1207  ARHM      C2            -24.0586454412      -37.4974355049       73.1100514097  LPSA34    19             13.0000000000
     37334      1207  ARHM      H2            -24.7859558683      -38.2494533331       72.9420985559  LPSA34    19             13.0000000000
     37335      1207  ARHM      O2            -24.2054796453      -37.0500055067       74.4131644751  LPSA34    19             13.0000000000
     37336      1207  ARHM      C3            -22.6557046341      -38.1686154793       72.9859276785  LPSA34    19             13.0000000000
     37337      1207  ARHM      H3            -22.5378306072      -38.4662489696       71.9471750908  LPSA34    19             13.0000000000
     37338      1207  ARHM      O3            -22.5750109589      -39.3074400966       73.7644258584  LPSA34    19             13.0000000000
     37339      1207  ARHM      HO3           -22.8768739879      -39.0630751561       74.6464134549  LPSA34    19             13.0000000000
     37340      1207  ARHM      C4            -21.5467223034      -37.2383884519       73.2443334127  LPSA34    19             13.0000000000
     37341      1207  ARHM      H4            -21.6921251056      -36.8772686102       74.2703943704  LPSA34    19             13.0000000000
     37342      1207  ARHM      O4            -20.2713857671      -37.7934150240       73.1708570575  LPSA34    19             13.0000000000
     37343      1207  ARHM      HO4           -20.1500367093      -38.0635213121       72.2126258713  LPSA34    19             13.0000000000
     37344      1207  ARHM      C6            -20.5882978546      -35.0476544006       72.3031700958  LPSA34    19             13.0000000000
     37345      1207  ARHM      H61           -20.8862768447      -34.3703620938       71.5186681997  LPSA34    19             13.0000000000
     37346      1207  ARHM      H62           -20.4785134252      -34.4818794620       73.2001761489  LPSA34    19             13.0000000000
     37347      1207  ARHM      H63           -19.6084675662      -35.4830011962       72.0875448643  LPSA34    19             13.0000000000
     37348      1208  ARHM      C1            -25.5226628470      -36.7112948485       74.6981797177  LPSA34    20             14.0000000000
     37349      1208  ARHM      H1            -26.2502983442      -37.0576750564       73.8936196974  LPSA34    20             14.0000000000
     37350      1208  ARHM      C5            -25.1483066843      -34.7316680835       75.9960310464  LPSA34    20             14.0000000000
     37351      1208  ARHM      H5            -24.0670521113      -34.9544178302       75.8071112250  LPSA34    20             14.0000000000
     37352      1208  ARHM      O5            -25.8142213547      -35.3242014147       74.8741575474  LPSA34    20             14.0000000000
     37353      1208  ARHM      C2            -25.9855898669      -37.4631481072       75.9438944127  LPSA34    20             14.0000000000
     37354      1208  ARHM      H2            -25.6644532137      -38.5762736249       75.7904987900  LPSA34    20             14.0000000000
     37355      1208  ARHM      O2            -27.4006803457      -37.3410721991       76.2145535291  LPSA34    20             14.0000000000
     37356      1208  ARHM      C3            -25.2850193987      -36.8423758648       77.0746584307  LPSA34    20             14.0000000000
     37357      1208  ARHM      H3            -24.1450133264      -36.9669183613       76.9570890266  LPSA34    20             14.0000000000
     37358      1208  ARHM      O3            -25.6474463109      -37.6199446676       78.2431898216  LPSA34    20             14.0000000000
     37359      1208  ARHM      C4            -25.5871504108      -35.3880015871       77.2147849866  LPSA34    20             14.0000000000
     37360      1208  ARHM      H4            -26.6353404595      -35.1829503891       77.2882629629  LPSA34    20             14.0000000000
     37361      1208  ARHM      O4            -24.9736699631      -34.8972354214       78.4294019453  LPSA34    20             14.0000000000
     37362      1208  ARHM      HO4           -24.8373029536      -34.0415222349       78.0714846557  LPSA34    20             14.0000000000
     37363      1208  ARHM      C6            -25.3396255141      -33.2726093629       75.9818768401  LPSA34    20             14.0000000000
     37364      1208  ARHM      H61           -26.3860547768      -32.8482607397       76.0487105533  LPSA34    20             14.0000000000
     37365      1208  ARHM      H62           -24.7189866168      -32.8064376884       76.7492574554  LPSA34    20             14.0000000000
     37366      1208  ARHM      H63           -25.0056980412      -32.7638881689       75.0059134709  LPSA34    20             14.0000000000
     37367      1209  BMANNA    C1            -28.0207903981      -38.3103673189       75.4501725836  LPSA34    21             15.0000000000
     37368      1209  BMANNA    H1            -27.3019993886      -38.7555556366       74.6495731600  LPSA34    21             15.0000000000
     37369      1209  BMANNA    C5            -29.5221179964      -38.7507560535       73.6578092950  LPSA34    21             15.0000000000
     37370      1209  BMANNA    H5            -28.7222613362      -39.3516633212       73.0422409194  LPSA34    21             15.0000000000
     37371      1209  BMANNA    O5            -29.0050273438      -37.7012205640       74.5460975074  LPSA34    21             15.0000000000
     37372      1209  BMANNA    C2            -28.6574451139      -39.3395910371       76.3268603500  LPSA34    21             15.0000000000
     37373      1209  BMANNA    H2            -27.7894405130      -39.7228590951       76.8663433126  LPSA34    21             15.0000000000
     37374      1209  BMANNA    N             -29.6135963616      -38.7500254456       77.2602735953  LPSA34    21             15.0000000000
     37375      1209  BMANNA    HN            -30.2970027798      -38.1854403952       76.8630196157  LPSA34    21             15.0000000000
     37376      1209  BMANNA    C             -29.7934850596      -39.1439620641       78.6142451918  LPSA34    21             15.0000000000
     37377      1209  BMANNA    O             -29.2559610340      -40.1691125448       79.0340579138  LPSA34    21             15.0000000000
     37378      1209  BMANNA    CT            -30.7185777286      -38.2930252422       79.5125915666  LPSA34    21             15.0000000000
     37379      1209  BMANNA    HT1           -31.7736716558      -38.5865622343       79.3040814335  LPSA34    21             15.0000000000
     37380      1209  BMANNA    HT2           -30.4571692572      -37.2386889438       79.3224353366  LPSA34    21             15.0000000000
     37381      1209  BMANNA    HT3           -30.5145867208      -38.5151359909       80.6000991146  LPSA34    21             15.0000000000
     37382      1209  BMANNA    C3            -29.2115522105      -40.4007654499       75.4428482744  LPSA34    21             15.0000000000
     37383      1209  BMANNA    H3            -28.3013345403      -40.7906188663       75.0091666053  LPSA34    21             15.0000000000
     37384      1209  BMANNA    O3            -29.8191659753      -41.4528141579       76.1769203835  LPSA34    21             15.0000000000
     37385      1209  BMANNA    HO3           -30.4674962610      -41.0671111956       76.7354970047  LPSA34    21             15.0000000000
     37386      1209  BMANNA    C4            -30.2176354690      -39.8135131559       74.4866217523  LPSA34    21             15.0000000000
     37387      1209  BMANNA    H4            -31.2096813917      -39.3840969749       75.0002820064  LPSA34    21             15.0000000000
     37388      1209  BMANNA    O4            -30.7465856055      -40.7715085389       73.6152290754  LPSA34    21             15.0000000000
     37389      1209  BMANNA    HO4           -31.7088271291      -40.8976077614       73.7703874424  LPSA34    21             15.0000000000
     37390      1209  BMANNA    C6            -30.3803521269      -38.2115446151       72.6348027846  LPSA34    21             15.0000000000
     37391      1209  BMANNA    H61           -30.6498294197      -38.9479862892       71.8494922130  LPSA34    21             15.0000000000
     37392      1209  BMANNA    H62           -31.4103788745      -38.0533010440       73.0558617198  LPSA34    21             15.0000000000
     37393      1209  BMANNA    O6            -30.0195258033      -36.9894298543       72.0654385618  LPSA34    21             15.0000000000
     37394      1209  BMANNA    HO6           -29.8904294905      -36.3649933336       72.7784055652  LPSA34    21             15.0000000000
     37395      1210  BGLCNA    C1            -24.7071309264      -37.8785458275       79.2248726046  LPSA34    22             15.0000000000
     37396      1210  BGLCNA    H1            -23.8685737591      -37.1237492236       79.2753119810  LPSA34    22             15.0000000000
     37397      1210  BGLCNA    C5            -23.0391180828      -39.3679753987       80.1145289529  LPSA34    22             15.0000000000
     37398      1210  BGLCNA    H5            -22.3076150687      -38.4547248834       80.0727605020  LPSA34    22             15.0000000000
     37399      1210  BGLCNA    O5            -24.0496616209      -39.1036069883       79.0803056561  LPSA34    22             15.0000000000
     37400      1210  BGLCNA    C2            -25.4050446161      -37.8619490017       80.5602818744  LPSA34    22             15.0000000000
     37401      1210  BGLCNA    H2            -26.1447134655      -38.7335368473       80.4633107900  LPSA34    22             15.0000000000
     37402      1210  BGLCNA    N             -26.0917832310      -36.5957116338       80.7025670875  LPSA34    22             15.0000000000
     37403      1210  BGLCNA    HN            -25.5822657940      -35.8012971238       80.4501896382  LPSA34    22             15.0000000000
     37404      1210  BGLCNA    C             -27.2381740027      -36.4298274224       81.3295640408  LPSA34    22             15.0000000000
     37405      1210  BGLCNA    O             -27.8365117653      -37.3919659255       81.8448112003  LPSA34    22             15.0000000000
     37406      1210  BGLCNA    CT            -27.7721304514      -35.0460439059       81.4359073222  LPSA34    22             15.0000000000
     37407      1210  BGLCNA    HT1           -28.3701047670      -34.9678897963       80.5353412834  LPSA34    22             15.0000000000
     37408      1210  BGLCNA    HT2           -26.9185345388      -34.3483374002       81.2752873926  LPSA34    22             15.0000000000
     37409      1210  BGLCNA    HT3           -28.2280890037      -34.7859672894       82.3679651303  LPSA34    22             15.0000000000
     37410      1210  BGLCNA    C3            -24.4341438809      -38.1377602053       81.6855161512  LPSA34    22             15.0000000000
     37411      1210  BGLCNA    H3            -23.6277761318      -37.3631902361       81.6419517197  LPSA34    22             15.0000000000
     37412      1210  BGLCNA    O3            -25.1747007931      -37.9661117221       82.8729300216  LPSA34    22             15.0000000000
     37413      1210  BGLCNA    C4            -23.7297241274      -39.4810121064       81.4704242134  LPSA34    22             15.0000000000
     37414      1210  BGLCNA    H4            -24.5017505187      -40.2025673842       81.4144045074  LPSA34    22             15.0000000000
     37415      1210  BGLCNA    O4            -22.8395004965      -39.8095704392       82.5140850489  LPSA34    22             15.0000000000
     37416      1210  BGLCNA    HO4           -22.9249520668      -40.7579184725       82.7130071916  LPSA34    22             15.0000000000
     37417      1210  BGLCNA    C6            -22.3401175104      -40.6639156978       79.7284495560  LPSA34    22             15.0000000000
     37418      1210  BGLCNA    H61           -21.8537003992      -40.9965120834       80.6924177192  LPSA34    22             15.0000000000
     37419      1210  BGLCNA    H62           -23.0719463918      -41.4566934775       79.4648784538  LPSA34    22             15.0000000000
     37420      1210  BGLCNA    O6            -21.3104301867      -40.5169584552       78.8100863794  LPSA34    22             15.0000000000
     37421      1210  BGLCNA    HO6           -21.6609614821      -40.1127552254       78.0328486455  LPSA34    22             15.0000000000
     37422      1211  AGAL      C1            -24.5160916327      -37.7242992180       84.0628261254  LPSA34    23             16.0000000000
     37423      1211  AGAL      H1            -24.0599136615      -38.6502412280       84.5106287163  LPSA34    23             16.0000000000
     37424      1211  AGAL      C5            -23.9905900919      -35.4217484065       83.7583018441  LPSA34    23             16.0000000000
     37425      1211  AGAL      H5            -24.6824064961      -35.4552820712       82.8366412438  LPSA34    23             16.0000000000
     37426      1211  AGAL      O5            -23.4980834167      -36.7203860214       83.9976212264  LPSA34    23             16.0000000000
     37427      1211  AGAL      C2            -25.4998025427      -37.3138914340       85.1427633740  LPSA34    23             16.0000000000
     37428      1211  AGAL      H2            -24.8945544967      -37.1653976252       86.0076373284  LPSA34    23             16.0000000000
     37429      1211  AGAL      O2            -26.4145931968      -38.3221477629       85.5000844886  LPSA34    23             16.0000000000
     37430      1211  AGAL      C3            -26.0857225445      -35.9626389117       84.9194901020  LPSA34    23             16.0000000000
     37431      1211  AGAL      H3            -26.4979878115      -35.9880616117       83.8641570193  LPSA34    23             16.0000000000
     37432      1211  AGAL      O3            -27.1641797355      -35.6236375091       85.7108298168  LPSA34    23             16.0000000000
     37433      1211  AGAL      HO3           -26.8859253406      -35.8745256488       86.6206525111  LPSA34    23             16.0000000000
     37434      1211  AGAL      C4            -24.9548648558      -34.9784368110       84.8901212015  LPSA34    23             16.0000000000
     37435      1211  AGAL      H4            -25.2911494839      -33.9441199494       84.6506069022  LPSA34    23             16.0000000000
     37436      1211  AGAL      O4            -24.2622859109      -34.7806999521       86.1132943683  LPSA34    23             16.0000000000
     37437      1211  AGAL      HO4           -23.4169593248      -34.6381257081       85.8278371007  LPSA34    23             16.0000000000
     37438      1211  AGAL      C6            -22.8861943933      -34.4938598720       83.3278962909  LPSA34    23             16.0000000000
     37439      1211  AGAL      H61           -22.2772757445      -34.9737760014       82.6074235255  LPSA34    23             16.0000000000
     37440      1211  AGAL      H62           -23.2551863142      -33.6335063113       82.7620574208  LPSA34    23             16.0000000000
     37441      1211  AGAL      O6            -22.0632741824      -34.1835788979       84.3845202183  LPSA34    23             16.0000000000
     37442      1211  AGAL      HO6           -21.3215706457      -33.6359041660       84.1740981585  LPSA34    23             16.0000000000
     37443      1212  ARHM      C1            -26.0967799651      -39.4589825635       86.2818185944  LPSA34    24             17.0000000000
     37444      1212  ARHM      H1            -25.0282029497      -39.5022124990       86.3680542693  LPSA34    24             17.0000000000
     37445      1212  ARHM      C5            -27.9119649970      -40.8834547482       85.6157638072  LPSA34    24             17.0000000000
     37446      1212  ARHM      H5            -28.2718223038      -40.0812094780       85.0070975499  LPSA34    24             17.0000000000
     37447      1212  ARHM      O5            -26.5113345729      -40.8128033902       85.8657410059  LPSA34    24             17.0000000000
     37448      1212  ARHM      C2            -26.7343848574      -39.1361415719       87.5921581840  LPSA34    24             17.0000000000
     37449      1212  ARHM      H2            -26.5425292232      -38.1246196232       87.8984046741  LPSA34    24             17.0000000000
     37450      1212  ARHM      O2            -26.4209400105      -40.1084252437       88.6075763533  LPSA34    24             17.0000000000
     37451      1212  ARHM      C3            -28.2563754355      -39.2442830878       87.4133527752  LPSA34    24             17.0000000000
     37452      1212  ARHM      H3            -28.5094072404      -38.4872954982       86.6640279609  LPSA34    24             17.0000000000
     37453      1212  ARHM      O3            -29.0287368715      -38.8051217750       88.5620392964  LPSA34    24             17.0000000000
     37454      1212  ARHM      HO3           -29.1056316974      -39.5899153868       89.1463757531  LPSA34    24             17.0000000000
     37455      1212  ARHM      C4            -28.6695030197      -40.6315810486       86.9402325015  LPSA34    24             17.0000000000
     37456      1212  ARHM      H4            -28.2525506064      -41.3990852987       87.7071552895  LPSA34    24             17.0000000000
     37457      1212  ARHM      O4            -30.0628908739      -40.8301614082       86.8379508285  LPSA34    24             17.0000000000
     37458      1212  ARHM      HO4           -30.3475851681      -41.7107014590       87.0219124236  LPSA34    24             17.0000000000
     37459      1212  ARHM      C6            -28.3497864573      -42.2364826530       84.9175891319  LPSA34    24             17.0000000000
     37460      1212  ARHM      H61           -29.2840015590      -42.0646067487       84.3853494017  LPSA34    24             17.0000000000
     37461      1212  ARHM      H62           -27.5697141157      -42.4736925080       84.2649634992  LPSA34    24             17.0000000000
     37462      1212  ARHM      H63           -28.3757662164      -43.0835223238       85.6811466487  LPSA34    24             17.0000000000
     37463      1213  ARHM      C1            -25.1313922043      -39.8657846058       89.1588742089  LPSA34    25             18.0000000000
     37464      1213  ARHM      H1            -24.5499227085      -39.3017793224       88.4722246341  LPSA34    25             18.0000000000
     37465      1213  ARHM      C5            -24.9061750254      -42.0236811910       90.1670531641  LPSA34    25             18.0000000000
     37466      1213  ARHM      H5            -25.8723306636      -42.3492246182       89.8870230824  LPSA34    25             18.0000000000
     37467      1213  ARHM      O5            -24.3494981298      -41.0743728723       89.2315309535  LPSA34    25             18.0000000000
     37468      1213  ARHM      C2            -25.2839560627      -39.1976960848       90.4685713243  LPSA34    25             18.0000000000
     37469      1213  ARHM      H2            -26.0117561959      -38.3270069174       90.3413143991  LPSA34    25             18.0000000000
     37470      1213  ARHM      O2            -23.9839817398      -38.7185945992       90.9328696740  LPSA34    25             18.0000000000
     37471      1213  ARHM      C3            -25.8425611748      -40.2729138139       91.4562257518  LPSA34    25             18.0000000000
     37472      1213  ARHM      H3            -26.8485978704      -40.5718584670       91.0689171631  LPSA34    25             18.0000000000
     37473      1213  ARHM      O3            -26.0113375073      -39.6102261380       92.6920647463  LPSA34    25             18.0000000000
     37474      1213  ARHM      C4            -25.0227879074      -41.4382855319       91.5960769721  LPSA34    25             18.0000000000
     37475      1213  ARHM      H4            -23.9243806709      -41.1685138708       91.8876801091  LPSA34    25             18.0000000000
     37476      1213  ARHM      O4            -25.6376088661      -42.2628470929       92.5862492282  LPSA34    25             18.0000000000
     37477      1213  ARHM      HO4           -24.9025783727      -42.6626107823       93.0149361445  LPSA34    25             18.0000000000
     37478      1213  ARHM      C6            -24.1034334254      -43.3230883953       90.2083352735  LPSA34    25             18.0000000000
     37479      1213  ARHM      H61           -23.9111692932      -43.7280799235       89.1912344565  LPSA34    25             18.0000000000
     37480      1213  ARHM      H62           -23.0853173028      -43.2051005786       90.6686969550  LPSA34    25             18.0000000000
     37481      1213  ARHM      H63           -24.6138867448      -44.1577592925       90.8233913566  LPSA34    25             18.0000000000
     37482      1214  BMANNA    C1            -23.5577993833      -37.5281330215       90.3138108879  LPSA34    26             19.0000000000
     37483      1214  BMANNA    H1            -24.4164368332      -36.9683419189       89.8388342826  LPSA34    26             19.0000000000
     37484      1214  BMANNA    C5            -22.2700391467      -36.4294978423       88.6312665858  LPSA34    26             19.0000000000
     37485      1214  BMANNA    H5            -23.1846106911      -36.0472368887       88.1771240033  LPSA34    26             19.0000000000
     37486      1214  BMANNA    O5            -22.5970771103      -37.6878691833       89.2346891933  LPSA34    26             19.0000000000
     37487      1214  BMANNA    C2            -22.9848787519      -36.6890683583       91.3475147821  LPSA34    26             19.0000000000
     37488      1214  BMANNA    H2            -23.8233960326      -36.5612070121       92.1081287357  LPSA34    26             19.0000000000
     37489      1214  BMANNA    N             -21.8161365894      -37.3904848854       91.9238920796  LPSA34    26             19.0000000000
     37490      1214  BMANNA    HN            -21.1311586477      -37.6508775416       91.3050515894  LPSA34    26             19.0000000000
     37491      1214  BMANNA    C             -21.6110759012      -37.5876331842       93.1798471680  LPSA34    26             19.0000000000
     37492      1214  BMANNA    O             -22.5155801767      -37.3521489301       94.0003587425  LPSA34    26             19.0000000000
     37493      1214  BMANNA    CT            -20.2548875974      -38.0875250065       93.6758917343  LPSA34    26             19.0000000000
     37494      1214  BMANNA    HT1           -19.7876728055      -38.5606628585       92.8666282051  LPSA34    26             19.0000000000
     37495      1214  BMANNA    HT2           -20.1269352224      -38.6395711966       94.6620984389  LPSA34    26             19.0000000000
     37496      1214  BMANNA    HT3           -19.6682538172      -37.1771223077       93.8484898219  LPSA34    26             19.0000000000
     37497      1214  BMANNA    C3            -22.6720113706      -35.3323401177       90.7100883268  LPSA34    26             19.0000000000
     37498      1214  BMANNA    H3            -23.6346057619      -34.9004426965       90.3384445889  LPSA34    26             19.0000000000
     37499      1214  BMANNA    O3            -22.2108376597      -34.4438534643       91.7636866611  LPSA34    26             19.0000000000
     37500      1214  BMANNA    HO3           -23.0157015864      -34.2437140709       92.2265744207  LPSA34    26             19.0000000000
     37501      1214  BMANNA    C4            -21.7377600301      -35.5255718896       89.6481622736  LPSA34    26             19.0000000000
     37502      1214  BMANNA    H4            -20.7335204925      -35.9734323064       89.9013799111  LPSA34    26             19.0000000000
     37503      1214  BMANNA    O4            -21.3850465887      -34.2903190858       89.0416847738  LPSA34    26             19.0000000000
     37504      1214  BMANNA    HO4           -20.6877784770      -33.8898025671       89.5591157304  LPSA34    26             19.0000000000
     37505      1214  BMANNA    C6            -21.4054898813      -36.8051355850       87.3900617492  LPSA34    26             19.0000000000
     37506      1214  BMANNA    H61           -21.7475062994      -37.7437304424       86.9191763972  LPSA34    26             19.0000000000
     37507      1214  BMANNA    H62           -21.4233054910      -36.0476812308       86.6504270337  LPSA34    26             19.0000000000
     37508      1214  BMANNA    O6            -20.0355121048      -36.9826927241       87.7329108337  LPSA34    26             19.0000000000
     37509      1214  BMANNA    HO6           -19.7176962329      -36.2193713697       88.1688153196  LPSA34    26             19.0000000000
     37510      1215  BGLCNA    C1            -27.1174209094      -39.7077343677       93.4616184899  LPSA34    27             19.0000000000
     37511      1215  BGLCNA    H1            -27.5124006122      -40.7186118378       93.4392217979  LPSA34    27             19.0000000000
     37512      1215  BGLCNA    C5            -29.3447967627      -39.0545669257       93.9656603721  LPSA34    27             19.0000000000
     37513      1215  BGLCNA    H5            -29.5971228943      -40.1459106871       93.9564344452  LPSA34    27             19.0000000000
     37514      1215  BGLCNA    O5            -28.2428496999      -38.9006549893       93.0607755266  LPSA34    27             19.0000000000
     37515      1215  BGLCNA    C2            -26.6663411437      -39.3540422856       94.8806799918  LPSA34    27             19.0000000000
     37516      1215  BGLCNA    H2            -26.3919126915      -38.2849261596       94.8757458582  LPSA34    27             19.0000000000
     37517      1215  BGLCNA    N             -25.5048171735      -40.1411682131       95.2501113516  LPSA34    27             19.0000000000
     37518      1215  BGLCNA    HN            -25.5815937039      -41.1790741124       95.0827132934  LPSA34    27             19.0000000000
     37519      1215  BGLCNA    C             -24.5123640538      -39.4648141415       95.9523160909  LPSA34    27             19.0000000000
     37520      1215  BGLCNA    O             -24.6404976247      -38.3397397334       96.5238801166  LPSA34    27             19.0000000000
     37521      1215  BGLCNA    CT            -23.1588142749      -40.2369019608       96.0293745529  LPSA34    27             19.0000000000
     37522      1215  BGLCNA    HT1           -23.1816820990      -41.1421125668       95.3635606282  LPSA34    27             19.0000000000
     37523      1215  BGLCNA    HT2           -22.8407019878      -40.4878217120       97.0167906789  LPSA34    27             19.0000000000
     37524      1215  BGLCNA    HT3           -22.3369945223      -39.4861011814       95.7039804309  LPSA34    27             19.0000000000
     37525      1215  BGLCNA    C3            -27.8124467373      -39.5185301321       95.7540348103  LPSA34    27             19.0000000000
     37526      1215  BGLCNA    H3            -28.2073916882      -40.5648080954       95.7401190096  LPSA34    27             19.0000000000
     37527      1215  BGLCNA    O3            -27.2643981592      -39.1965235559       97.0775356047  LPSA34    27             19.0000000000
     37528      1215  BGLCNA    C4            -29.0062741024      -38.6321059832       95.3486864533  LPSA34    27             19.0000000000
     37529      1215  BGLCNA    H4            -28.6791342698      -37.5676050922       95.3090014479  LPSA34    27             19.0000000000
     37530      1215  BGLCNA    O4            -30.0700803823      -38.7799121467       96.2156872787  LPSA34    27             19.0000000000
     37531      1215  BGLCNA    HO4           -30.3905418293      -39.6366802640       96.0162444362  LPSA34    27             19.0000000000
     37532      1215  BGLCNA    C6            -30.5507405952      -38.3214573644       93.2852949846  LPSA34    27             19.0000000000
     37533      1215  BGLCNA    H61           -31.4303609468      -38.6339121712       93.8557506920  LPSA34    27             19.0000000000
     37534      1215  BGLCNA    H62           -30.4765747430      -37.2242949045       93.4725180191  LPSA34    27             19.0000000000
     37535      1215  BGLCNA    O6            -30.6451826176      -38.6431241431       91.9076175409  LPSA34    27             19.0000000000
     37536      1215  BGLCNA    HO6           -31.3975365908      -38.1388134165       91.5273290588  LPSA34    27             19.0000000000
     37537      1216  AGAL      C1            -27.9961325138      -39.5925401622       98.2622020222  LPSA34    28             20.0000000000
     37538      1216  AGAL      H1            -28.8776860737      -39.0113503883       98.3007149491  LPSA34    28             20.0000000000
     37539      1216  AGAL      C5            -27.3332386053      -41.9228927020       98.1710438288  LPSA34    28             20.0000000000
     37540      1216  AGAL      H5            -26.4313184282      -41.5901186204       97.4646141937  LPSA34    28             20.0000000000
     37541      1216  AGAL      O5            -28.4447101759      -40.9380218721       98.1147365872  LPSA34    28             20.0000000000
     37542      1216  AGAL      C2            -27.2762449819      -39.5133387103       99.6197190629  LPSA34    28             20.0000000000
     37543      1216  AGAL      H2            -28.0517236399      -39.8658327885      100.2965066153  LPSA34    28             20.0000000000
     37544      1216  AGAL      O2            -26.9124121138      -38.2203750926      100.0788731798  LPSA34    28             20.0000000000
     37545      1216  AGAL      C3            -26.1481459068      -40.4891871307       99.7396972452  LPSA34    28             20.0000000000
     37546      1216  AGAL      H3            -25.4516115916      -40.3125803210       98.8607737785  LPSA34    28             20.0000000000
     37547      1216  AGAL      O3            -25.3009197224      -40.4425293545      100.9043404272  LPSA34    28             20.0000000000
     37548      1216  AGAL      HO3           -24.4157611574      -40.2126464941      100.5606486229  LPSA34    28             20.0000000000
     37549      1216  AGAL      C4            -26.6667563066      -41.8521667858       99.5102226768  LPSA34    28             20.0000000000
     37550      1216  AGAL      H4            -25.8363731359      -42.5165756501       99.4798298294  LPSA34    28             20.0000000000
     37551      1216  AGAL      O4            -27.5733769860      -42.2801172307      100.4757933835  LPSA34    28             20.0000000000
     37552      1216  AGAL      HO4           -27.0972673380      -42.8480157332      101.0376442747  LPSA34    28             20.0000000000
     37553      1216  AGAL      C6            -27.6840621498      -43.3141420323       97.6362902244  LPSA34    28             20.0000000000
     37554      1216  AGAL      H61           -27.9371513127      -43.2359915205       96.5809275898  LPSA34    28             20.0000000000
     37555      1216  AGAL      H62           -26.8888125407      -44.1364385079       97.7651048223  LPSA34    28             20.0000000000
     37556      1216  AGAL      O6            -28.7922330318      -43.8281108174       98.3456070822  LPSA34    28             20.0000000000
     37557      1216  AGAL      HO6           -29.6095319702      -43.5335734633       97.9416813930  LPSA34    28             20.0000000000
     37558      1217  ARHM      C1            -27.2525718530      -38.1074674218      101.4808913342  LPSA34    29             21.0000000000
     37559      1217  ARHM      H1            -27.2236892398      -39.1214957507      101.9964955809  LPSA34    29             21.0000000000
     37560      1217  ARHM      C5            -28.6518274587      -36.2513714818      101.1486206043  LPSA34    29             21.0000000000
     37561      1217  ARHM      H5            -28.3221181981      -36.3309881131      100.0935446791  LPSA34    29             21.0000000000
     37562      1217  ARHM      O5            -28.5146290787      -37.5372765633      101.6833506475  LPSA34    29             21.0000000000
     37563      1217  ARHM      C2            -26.2064119673      -37.3267771596      102.1437305515  LPSA34    29             21.0000000000
     37564      1217  ARHM      H2            -25.2282011844      -37.6920294474      101.9067628034  LPSA34    29             21.0000000000
     37565      1217  ARHM      O2            -26.3497357890      -37.3312798895      103.5748524404  LPSA34    29             21.0000000000
     37566      1217  ARHM      C3            -26.2984910733      -35.9183638921      101.6289418068  LPSA34    29             21.0000000000
     37567      1217  ARHM      H3            -26.0336165006      -35.9141451605      100.4952263366  LPSA34    29             21.0000000000
     37568      1217  ARHM      O3            -25.2570333629      -35.1734775077      102.1995749427  LPSA34    29             21.0000000000
     37569      1217  ARHM      HO3           -25.5464368931      -34.3250179013      102.2092645043  LPSA34    29             21.0000000000
     37570      1217  ARHM      C4            -27.6126806290      -35.3002108036      101.8247918557  LPSA34    29             21.0000000000
     37571      1217  ARHM      H4            -27.8644641754      -35.1841223340      102.9338171738  LPSA34    29             21.0000000000
     37572      1217  ARHM      O4            -27.7927501086      -33.9483801538      101.3452167393  LPSA34    29             21.0000000000
     37573      1217  ARHM      HO4           -27.3998637057      -33.7802938294      100.4362974805  LPSA34    29             21.0000000000
     37574      1217  ARHM      C6            -30.1481618787      -35.8980716894      101.2162231226  LPSA34    29             21.0000000000
     37575      1217  ARHM      H61           -30.6474791176      -36.8321467038      100.7685423143  LPSA34    29             21.0000000000
     37576      1217  ARHM      H62           -30.4501075644      -35.8144789363      102.3013153741  LPSA34    29             21.0000000000
     37577      1217  ARHM      H63           -30.3270472462      -35.0053320371      100.6072571094  LPSA34    29             21.0000000000
     37578      1218  ARHM      C1            -25.6288181600      -38.1954037389      104.3945976075  LPSA34    30             22.0000000000
     37579      1218  ARHM      H1            -24.5439371742      -38.0351486304      104.2094096401  LPSA34    30             22.0000000000
     37580      1218  ARHM      C5            -27.3717574447      -39.8899953521      104.5143062533  LPSA34    30             22.0000000000
     37581      1218  ARHM      H5            -27.9185716015      -39.1017441886      103.8668162917  LPSA34    30             22.0000000000
     37582      1218  ARHM      O5            -25.9834575879      -39.5815882455      104.2052433351  LPSA34    30             22.0000000000
     37583      1218  ARHM      C2            -25.8981284835      -37.8462008123      105.8471183130  LPSA34    30             22.0000000000
     37584      1218  ARHM      H2            -25.6726114480      -36.8461021919      106.0289718167  LPSA34    30             22.0000000000
     37585      1218  ARHM      O2            -25.1376921750      -38.7444699390      106.5813641610  LPSA34    30             22.0000000000
     37586      1218  ARHM      C3            -27.2761114720      -38.1476523551      106.2079894766  LPSA34    30             22.0000000000
     37587      1218  ARHM      H3            -27.9185145685      -37.6584854805      105.5270001340  LPSA34    30             22.0000000000
     37588      1218  ARHM      O3            -27.6484001996      -37.6869098665      107.5373891676  LPSA34    30             22.0000000000
     37589      1218  ARHM      C4            -27.6341663398      -39.6185201169      105.9708288384  LPSA34    30             22.0000000000
     37590      1218  ARHM      H4            -27.0077792211      -40.3084240209      106.5400372406  LPSA34    30             22.0000000000
     37591      1218  ARHM      O4            -28.9008606372      -39.9825222042      106.2997755749  LPSA34    30             22.0000000000
     37592      1218  ARHM      HO4           -29.6292524629      -39.7864060499      105.6964454668  LPSA34    30             22.0000000000
     37593      1218  ARHM      C6            -27.6969470200      -41.2978262318      104.0930490251  LPSA34    30             22.0000000000
     37594      1218  ARHM      H61           -28.8084191383      -41.4268835513      104.2143179997  LPSA34    30             22.0000000000
     37595      1218  ARHM      H62           -27.5662669764      -41.3801727259      103.0019050467  LPSA34    30             22.0000000000
     37596      1218  ARHM      H63           -27.1063789244      -42.0929651100      104.6493652223  LPSA34    30             22.0000000000
     37597      1219  BMANNA    C1            -23.8484941047      -38.3075149717      106.9502319096  LPSA34    31             23.0000000000
     37598      1219  BMANNA    H1            -23.9077471199      -37.2150442092      107.1550799008  LPSA34    31             23.0000000000
     37599      1219  BMANNA    C5            -21.5514054432      -38.0045255725      106.2136717625  LPSA34    31             23.0000000000
     37600      1219  BMANNA    H5            -21.7176137769      -36.9702507417      106.5467054000  LPSA34    31             23.0000000000
     37601      1219  BMANNA    O5            -22.8729136169      -38.5172872123      105.8742289322  LPSA34    31             23.0000000000
     37602      1219  BMANNA    C2            -23.3890203227      -39.0496404024      108.0830629221  LPSA34    31             23.0000000000
     37603      1219  BMANNA    H2            -24.0813680264      -38.7793141581      108.9031915743  LPSA34    31             23.0000000000
     37604      1219  BMANNA    N             -23.5345342674      -40.4405864162      107.8252935315  LPSA34    31             23.0000000000
     37605      1219  BMANNA    HN            -23.5220867568      -40.7397845894      106.8111160773  LPSA34    31             23.0000000000
     37606      1219  BMANNA    C             -23.7319612907      -41.3461412663      108.7868858964  LPSA34    31             23.0000000000
     37607      1219  BMANNA    O             -23.8773557460      -41.0284282815      109.9536662434  LPSA34    31             23.0000000000
     37608      1219  BMANNA    CT            -23.7822027135      -42.8102083548      108.3237946568  LPSA34    31             23.0000000000
     37609      1219  BMANNA    HT1           -23.0443749336      -42.9421783950      107.5739831696  LPSA34    31             23.0000000000
     37610      1219  BMANNA    HT2           -24.7883636022      -43.0003373477      107.9347099034  LPSA34    31             23.0000000000
     37611      1219  BMANNA    HT3           -23.6930935593      -43.5011501169      109.1768357935  LPSA34    31             23.0000000000
     37612      1219  BMANNA    C3            -22.0395141753      -38.5540814930      108.4884560283  LPSA34    31             23.0000000000
     37613      1219  BMANNA    H3            -22.0425697284      -37.4197252352      108.6988550870  LPSA34    31             23.0000000000
     37614      1219  BMANNA    O3            -21.6262270475      -39.1023967057      109.7404994872  LPSA34    31             23.0000000000
     37615      1219  BMANNA    HO3           -22.4842101460      -39.3725812659      110.0111610137  LPSA34    31             23.0000000000
     37616      1219  BMANNA    C4            -21.0528087961      -38.8040527912      107.4199857710  LPSA34    31             23.0000000000
     37617      1219  BMANNA    H4            -20.9297971837      -39.9309469128      107.0572414185  LPSA34    31             23.0000000000
     37618      1219  BMANNA    O4            -19.7621376577      -38.3995659377      107.8525671122  LPSA34    31             23.0000000000
     37619      1219  BMANNA    HO4           -19.7554085478      -37.4774552816      108.1943429300  LPSA34    31             23.0000000000
     37620      1219  BMANNA    C6            -20.5489199818      -38.0924491783      105.0512686782  LPSA34    31             23.0000000000
     37621      1219  BMANNA    H61           -19.6100914354      -37.4697590087      105.3397811046  LPSA34    31             23.0000000000
     37622      1219  BMANNA    H62           -20.2036490184      -39.1062157651      104.8698551944  LPSA34    31             23.0000000000
     37623      1219  BMANNA    O6            -21.1031859773      -37.5789181697      103.8241467834  LPSA34    31             23.0000000000
     37624      1219  BMANNA    HO6           -21.2216590033      -36.5868475614      103.8134147631  LPSA34    31             23.0000000000
     37625      1220  BGLCNA    C1            -27.2845003657      -38.4901443255      108.6103969990  LPSA34    32             23.0000000000
     37626      1220  BGLCNA    H1            -26.2835149411      -38.9980296141      108.4325564695  LPSA34    32             23.0000000000
     37627      1220  BGLCNA    C5            -27.7822530768      -40.4549197410      109.9277617404  LPSA34    32             23.0000000000
     37628      1220  BGLCNA    H5            -26.7812691842      -40.8647247440      109.5374749077  LPSA34    32             23.0000000000
     37629      1220  BGLCNA    O5            -28.2209866004      -39.5161342240      108.9423333575  LPSA34    32             23.0000000000
     37630      1220  BGLCNA    C2            -27.0784857003      -37.6869687498      109.8194522937  LPSA34    32             23.0000000000
     37631      1220  BGLCNA    H2            -28.0579234974      -37.3835522313      110.1044894257  LPSA34    32             23.0000000000
     37632      1220  BGLCNA    N             -26.2493649980      -36.5516877957      109.5956973249  LPSA34    32             23.0000000000
     37633      1220  BGLCNA    HN            -25.5585621441      -36.7825127510      108.8809076996  LPSA34    32             23.0000000000
     37634      1220  BGLCNA    C             -26.3530240309      -35.2959016858      110.0864625708  LPSA34    32             23.0000000000
     37635      1220  BGLCNA    O             -27.1942021822      -34.9863935396      110.9304085025  LPSA34    32             23.0000000000
     37636      1220  BGLCNA    CT            -25.3288411458      -34.2542688997      109.5841031968  LPSA34    32             23.0000000000
     37637      1220  BGLCNA    HT1           -24.9373825021      -34.8073671914      108.6281101354  LPSA34    32             23.0000000000
     37638      1220  BGLCNA    HT2           -24.4723906660      -34.0956250574      110.1898124037  LPSA34    32             23.0000000000
     37639      1220  BGLCNA    HT3           -25.8019513431      -33.2792714216      109.3122359934  LPSA34    32             23.0000000000
     37640      1220  BGLCNA    C3            -26.5274693245      -38.5777763400      110.8930231790  LPSA34    32             23.0000000000
     37641      1220  BGLCNA    H3            -25.6939816220      -39.0528379040      110.4606187373  LPSA34    32             23.0000000000
     37642      1220  BGLCNA    O3            -26.0728470348      -37.8828395269      112.0657798240  LPSA34    32             23.0000000000
     37643      1220  BGLCNA    C4            -27.5632101625      -39.6327625875      111.1707572500  LPSA34    32             23.0000000000
     37644      1220  BGLCNA    H4            -28.4863146808      -39.1028205304      111.5318289610  LPSA34    32             23.0000000000
     37645      1220  BGLCNA    O4            -27.1636250394      -40.4905690422      112.2070236435  LPSA34    32             23.0000000000
     37646      1220  BGLCNA    HO4           -27.4601550987      -40.1798808108      113.0745323218  LPSA34    32             23.0000000000
     37647      1220  BGLCNA    C6            -28.7668950571      -41.6016261544      110.0229508171  LPSA34    32             23.0000000000
     37648      1220  BGLCNA    H61           -28.3787289764      -42.4332492947      110.7194343748  LPSA34    32             23.0000000000
     37649      1220  BGLCNA    H62           -29.7230085755      -41.2347075204      110.5717638480  LPSA34    32             23.0000000000
     37650      1220  BGLCNA    O6            -29.0083515801      -42.2102637719      108.7709294272  LPSA34    32             23.0000000000
     37651      1220  BGLCNA    HO6           -28.1740191569      -42.2215989258      108.2360311317  LPSA34    32             23.0000000000
     37652      1221  AGAL      C1            -24.8832057543      -38.4420150017      112.6842874521  LPSA34    33             24.0000000000
     37653      1221  AGAL      H1            -24.9731361598      -39.5276474627      112.5979959475  LPSA34    33             24.0000000000
     37654      1221  AGAL      C5            -23.5064035796      -36.5666777952      112.2149219831  LPSA34    33             24.0000000000
     37655      1221  AGAL      H5            -24.4706699753      -36.1452019106      111.8792915250  LPSA34    33             24.0000000000
     37656      1221  AGAL      O5            -23.6432053391      -37.9654060295      112.0726784748  LPSA34    33             24.0000000000
     37657      1221  AGAL      C2            -24.8921379456      -38.0075996825      114.1482787662  LPSA34    33             24.0000000000
     37658      1221  AGAL      H2            -23.8831227314      -38.3828836314      114.5751854976  LPSA34    33             24.0000000000
     37659      1221  AGAL      O2            -25.8652919033      -38.7595218690      114.8486222260  LPSA34    33             24.0000000000
     37660      1221  AGAL      C3            -24.7160643646      -36.5165392766      114.2945545625  LPSA34    33             24.0000000000
     37661      1221  AGAL      H3            -25.5490328928      -35.9626810304      113.7405815065  LPSA34    33             24.0000000000
     37662      1221  AGAL      O3            -24.8975243342      -36.0498880952      115.5672660328  LPSA34    33             24.0000000000
     37663      1221  AGAL      HO3           -24.3970130082      -36.4610493267      116.2400186851  LPSA34    33             24.0000000000
     37664      1221  AGAL      C4            -23.4150301810      -36.0668014741      113.6708488317  LPSA34    33             24.0000000000
     37665      1221  AGAL      H4            -23.3289623756      -34.9734391470      113.6729875792  LPSA34    33             24.0000000000
     37666      1221  AGAL      O4            -22.1776106752      -36.5488312541      114.2435538900  LPSA34    33             24.0000000000
     37667      1221  AGAL      HO4           -22.3091346504      -37.2143196147      114.9085525172  LPSA34    33             24.0000000000
     37668      1221  AGAL      C6            -22.4449349239      -36.0046074880      111.2992528405  LPSA34    33             24.0000000000
     37669      1221  AGAL      H61           -22.8101620686      -36.2369159282      110.2783408757  LPSA34    33             24.0000000000
     37670      1221  AGAL      H62           -22.2732511911      -34.9125918448      111.3458027743  LPSA34    33             24.0000000000
     37671      1221  AGAL      O6            -21.1501923000      -36.5061117068      111.4129476537  LPSA34    33             24.0000000000
     37672      1221  AGAL      HO6           -20.9838959714      -37.3003797488      110.8444757795  LPSA34    33             24.0000000000
     37673      1222  ARHM      C1            -25.4070996785      -39.3710428694      116.0109133884  LPSA34    34             25.0000000000
     37674      1222  ARHM      H1            -24.8083922733      -38.6893657566      116.6389743656  LPSA34    34             25.0000000000
     37675      1222  ARHM      C5            -25.1404458022      -41.5840073807      115.0727799907  LPSA34    34             25.0000000000
     37676      1222  ARHM      H5            -25.3707747109      -41.1617718876      114.0209633333  LPSA34    34             25.0000000000
     37677      1222  ARHM      O5            -24.5411359620      -40.5183405829      115.8926868953  LPSA34    34             25.0000000000
     37678      1222  ARHM      C2            -26.6577562678      -39.7368335848      116.7601555753  LPSA34    34             25.0000000000
     37679      1222  ARHM      H2            -27.4205646024      -38.9189971391      116.8710959342  LPSA34    34             25.0000000000
     37680      1222  ARHM      O2            -26.4308348524      -40.2308537523      118.1592972339  LPSA34    34             25.0000000000
     37681      1222  ARHM      C3            -27.3571575515      -40.8535726061      115.9988665506  LPSA34    34             25.0000000000
     37682      1222  ARHM      H3            -27.6039762677      -40.5427173421      114.9724172480  LPSA34    34             25.0000000000
     37683      1222  ARHM      O3            -28.5860623486      -41.3441449998      116.5878695042  LPSA34    34             25.0000000000
     37684      1222  ARHM      HO3           -29.2665668590      -41.5536020061      115.9559434517  LPSA34    34             25.0000000000
     37685      1222  ARHM      C4            -26.4387356741      -42.0898935554      115.7987835878  LPSA34    34             25.0000000000
     37686      1222  ARHM      H4            -26.0220640531      -42.4613339037      116.7495315617  LPSA34    34             25.0000000000
     37687      1222  ARHM      O4            -27.0611878489      -43.1283129760      115.1362621200  LPSA34    34             25.0000000000
     37688      1222  ARHM      HO4           -27.6655600049      -43.6112094585      115.6953140327  LPSA34    34             25.0000000000
     37689      1222  ARHM      C6            -24.1383080116      -42.7712522157      114.8413279703  LPSA34    34             25.0000000000
     37690      1222  ARHM      H61           -23.8433317688      -43.3107689311      115.7172490283  LPSA34    34             25.0000000000
     37691      1222  ARHM      H62           -24.7187103674      -43.6003287472      114.3996926230  LPSA34    34             25.0000000000
     37692      1222  ARHM      H63           -23.2898417699      -42.5782618602      114.1590834060  LPSA34    34             25.0000000000
     37693      1223  ARHM      C1            -25.7567925519      -39.3480333914      119.0795908573  LPSA34    35             26.0000000000
     37694      1223  ARHM      H1            -26.1307727759      -38.2593115415      118.8787348947  LPSA34    35             26.0000000000
     37695      1223  ARHM      C5            -23.7518112565      -40.7102263014      119.2408916176  LPSA34    35             26.0000000000
     37696      1223  ARHM      H5            -24.2048953331      -41.5092109582      118.5254732223  LPSA34    35             26.0000000000
     37697      1223  ARHM      O5            -24.2745823093      -39.3624634461      118.9290334222  LPSA34    35             26.0000000000
     37698      1223  ARHM      C2            -26.1239821345      -39.7152104088      120.5365485050  LPSA34    35             26.0000000000
     37699      1223  ARHM      H2            -27.2305581304      -39.5948027290      120.7134209997  LPSA34    35             26.0000000000
     37700      1223  ARHM      O2            -25.5002112559      -38.8514862870      121.4126203716  LPSA34    35             26.0000000000
     37701      1223  ARHM      C3            -25.6418903248      -41.1444431412      120.8720061906  LPSA34    35             26.0000000000
     37702      1223  ARHM      H3            -26.1751919151      -41.8293387637      120.1344793452  LPSA34    35             26.0000000000
     37703      1223  ARHM      O3            -26.0745770681      -41.5497052681      122.1540075829  LPSA34    35             26.0000000000
     37704      1223  ARHM      HO3           -26.0873524405      -40.7813335969      122.7288731339  LPSA34    35             26.0000000000
     37705      1223  ARHM      C4            -24.1504931612      -41.1686368177      120.6788917534  LPSA34    35             26.0000000000
     37706      1223  ARHM      H4            -23.5927382661      -40.4410188624      121.3307119103  LPSA34    35             26.0000000000
     37707      1223  ARHM      O4            -23.7244400294      -42.5178329680      120.9693790153  LPSA34    35             26.0000000000
     37708      1223  ARHM      HO4           -24.2909086671      -43.2117131004      120.5581709812  LPSA34    35             26.0000000000
     37709      1223  ARHM      C6            -22.2317497733      -40.7782184798      118.8642347863  LPSA34    35             26.0000000000
     37710      1223  ARHM      H61           -22.0841298337      -40.6707888082      117.7433556958  LPSA34    35             26.0000000000
     37711      1223  ARHM      H62           -21.8260165293      -39.9455272462      119.4176110492  LPSA34    35             26.0000000000
     37712      1223  ARHM      H63           -21.8940234953      -41.8358282835      119.0633705917  LPSA34    35             26.0000000000
     37713      1224  BMANNA    C1            -25.9824908392      -37.5420786633      121.4471464502  LPSA34    36             27.0000000000
     37714      1224  BMANNA    H1            -27.0408556825      -37.4887351141      121.0972061898  LPSA34    36             27.0000000000
     37715      1224  BMANNA    C5            -26.0021944730      -35.2312923947      120.7299884793  LPSA34    36             27.0000000000
     37716      1224  BMANNA    H5            -27.0452524773      -35.3889983313      120.4610684421  LPSA34    36             27.0000000000
     37717      1224  BMANNA    O5            -25.3080893538      -36.5178114882      120.6641532654  LPSA34    36             27.0000000000
     37718      1224  BMANNA    C2            -25.9774059573      -37.0672978922      122.8920138725  LPSA34    36             27.0000000000
     37719      1224  BMANNA    H2            -26.5697899959      -37.7995476443      123.4719477421  LPSA34    36             27.0000000000
     37720      1224  BMANNA    N             -24.6211675536      -37.0697906342      123.4395449790  LPSA34    36             27.0000000000
     37721      1224  BMANNA    HN            -23.8620519300      -36.7322003505      122.8746519580  LPSA34    36             27.0000000000
     37722      1224  BMANNA    C             -24.4080399579      -37.2285624196      124.7737151700  LPSA34    36             27.0000000000
     37723      1224  BMANNA    O             -25.2541098812      -37.5373047025      125.6190347561  LPSA34    36             27.0000000000
     37724      1224  BMANNA    CT            -23.0464893321      -36.9714418543      125.3570716528  LPSA34    36             27.0000000000
     37725      1224  BMANNA    HT1           -22.5855995072      -36.1008620643      124.8802869227  LPSA34    36             27.0000000000
     37726      1224  BMANNA    HT2           -22.3128400342      -37.8062232498      125.1731404614  LPSA34    36             27.0000000000
     37727      1224  BMANNA    HT3           -23.0011084639      -36.8630875953      126.4547536948  LPSA34    36             27.0000000000
     37728      1224  BMANNA    C3            -26.6430798966      -35.7177468631      122.9763638711  LPSA34    36             27.0000000000
     37729      1224  BMANNA    H3            -27.6858706666      -35.7818587211      122.6403873786  LPSA34    36             27.0000000000
     37730      1224  BMANNA    O3            -26.7219539252      -35.2310237212      124.3414054450  LPSA34    36             27.0000000000
     37731      1224  BMANNA    HO3           -27.5891089894      -35.1212648929      124.7171830083  LPSA34    36             27.0000000000
     37732      1224  BMANNA    C4            -25.9675417270      -34.7176273660      122.1146940524  LPSA34    36             27.0000000000
     37733      1224  BMANNA    H4            -24.9648206422      -34.5272381042      122.4263894750  LPSA34    36             27.0000000000
     37734      1224  BMANNA    O4            -26.5881058822      -33.4376553274      122.2172873890  LPSA34    36             27.0000000000
     37735      1224  BMANNA    HO4           -26.5025184736      -33.3377427841      123.1985163392  LPSA34    36             27.0000000000
     37736      1224  BMANNA    C6            -25.4028377797      -34.3137171933      119.7412642597  LPSA34    36             27.0000000000
     37737      1224  BMANNA    H61           -25.5200818873      -34.6946498169      118.6946701192  LPSA34    36             27.0000000000
     37738      1224  BMANNA    H62           -26.0729561015      -33.4492279824      119.7045442506  LPSA34    36             27.0000000000
     37739      1224  BMANNA    O6            -24.0235877815      -33.9331303557      120.0914698020  LPSA34    36             27.0000000000
     37740      1224  BMANNA    HO6           -24.1036811576      -33.1496333988      120.6476247167  LPSA34    36             27.0000000000
     37741      1225  ECLIPA    HB6S           39.6107356656      -41.3416723074       20.4612168218  LPSA35    1               0.0000000000
     37742      1225  ECLIPA    OB6            38.8509170788      -42.7255585286       21.7140249152  LPSA35    1               0.0000000000
     37743      1225  ECLIPA    CB6            39.8527305700      -42.3411012326       20.7042159014  LPSA35    1               0.0000000000
     37744      1225  ECLIPA    HB6R           40.8491644922      -42.5401114333       21.0541931349  LPSA35    1               0.0000000000
     37745      1225  ECLIPA    CB5            39.7674741338      -43.2386168585       19.3988764877  LPSA35    1               0.0000000000
     37746      1225  ECLIPA    OB5            38.3504685798      -43.1274708870       18.9716901872  LPSA35    1               0.0000000000
     37747      1225  ECLIPA    HB5            39.9329767463      -44.2648114977       19.7771798410  LPSA35    1               0.0000000000
     37748      1225  ECLIPA    CB1            38.1364406856      -43.9065571647       17.7717324898  LPSA35    1               0.0000000000
     37749      1225  ECLIPA    HB1            38.3543602840      -44.9895468604       17.9003641080  LPSA35    1               0.0000000000
     37750      1225  ECLIPA    OA6            36.8234986032      -43.7572589762       17.3217246577  LPSA35    1               0.0000000000
     37751      1225  ECLIPA    CA6            36.1202392817      -42.5222111833       17.5745106853  LPSA35    1               0.0000000000
     37752      1225  ECLIPA    HA6R           36.8704165749      -41.7191029876       17.7226451425  LPSA35    1               0.0000000000
     37753      1225  ECLIPA    HA6S           35.3904494407      -42.7095324682       18.4598965841  LPSA35    1               0.0000000000
     37754      1225  ECLIPA    CB4            40.7692967661      -42.7812710936       18.3206521937  LPSA35    1               0.0000000000
     37755      1225  ECLIPA    HB4            40.5788367114      -41.7328749004       18.0085584641  LPSA35    1               0.0000000000
     37756      1225  ECLIPA    OB4            42.0440187959      -43.1330959381       18.9017319965  LPSA35    1               0.0000000000
     37757      1225  ECLIPA    PB             43.0711471266      -41.9673455248       19.3234616795  LPSA35    1               0.0000000000
     37758      1225  ECLIPA    OPB4           43.8433118687      -42.4688308645       20.5579515876  LPSA35    1               0.0000000000
     37759      1225  ECLIPA    OPB3           42.0905901657      -40.8180498772       19.6614545037  LPSA35    1               0.0000000000
     37760      1225  ECLIPA    OPB2           43.9122314963      -41.6314913866       18.0829495795  LPSA35    1               0.0000000000
     37761      1225  ECLIPA    CB3            40.4826087119      -43.6279730226       17.0955893951  LPSA35    1               0.0000000000
     37762      1225  ECLIPA    OB3            41.2431926123      -43.3028469303       15.9186528231  LPSA35    1               0.0000000000
     37763      1225  ECLIPA    HB3            40.4814247594      -44.7362659079       17.3284540628  LPSA35    1               0.0000000000
     37764      1225  ECLIPA    C71            42.3404006444      -43.9448997373       15.6929469039  LPSA35    1               0.0000000000
     37765      1225  ECLIPA    O71            42.7414261772      -44.9105230902       16.3832172580  LPSA35    1               0.0000000000
     37766      1225  ECLIPA    C72            42.9251140904      -43.4214647618       14.3548430386  LPSA35    1               0.0000000000
     37767      1225  ECLIPA    H72R           42.1752984984      -43.5580727835       13.5774555414  LPSA35    1               0.0000000000
     37768      1225  ECLIPA    H72S           43.9432292424      -43.9604418196       14.1464415926  LPSA35    1               0.0000000000
     37769      1225  ECLIPA    CB2            39.0151232501      -43.4189466494       16.6720734084  LPSA35    1               0.0000000000
     37770      1225  ECLIPA    HB2            38.8839389171      -42.2528617060       16.5298168153  LPSA35    1               0.0000000000
     37771      1225  ECLIPA    NB2            38.6517279174      -44.1801518240       15.4577284722  LPSA35    1               0.0000000000
     37772      1225  ECLIPA    HNB2           38.3722174523      -45.1291864752       15.5965609326  LPSA35    1               0.0000000000
     37773      1225  ECLIPA    CA4            34.5756854927      -43.3609652065       15.7929312798  LPSA35    1               0.0000000000
     37774      1225  ECLIPA    HA4            35.3152171973      -44.1455551682       15.4903430209  LPSA35    1               0.0000000000
     37775      1225  ECLIPA    OA4            33.7475439542      -43.8564113128       16.8012065728  LPSA35    1               0.0000000000
     37776      1225  ECLIPA    HOA4           34.1902590223      -43.9679980070       17.5928838569  LPSA35    1               0.0000000000
     37777      1225  ECLIPA    CA5            35.2961719065      -42.2075419974       16.3547806008  LPSA35    1               0.0000000000
     37778      1225  ECLIPA    HA5            34.6749510938      -41.2467761828       16.5880746347  LPSA35    1               0.0000000000
     37779      1225  ECLIPA    OA5            36.2383360996      -41.7628649043       15.3689671688  LPSA35    1               0.0000000000
     37780      1225  ECLIPA    CA1            35.5717620568      -41.4002053255       14.1076640156  LPSA35    1               0.0000000000
     37781      1225  ECLIPA    HA1            36.4554834707      -41.4173228032       13.4118188108  LPSA35    1               0.0000000000
     37782      1225  ECLIPA    OA1            35.0068016294      -40.1041042242       14.1359876212  LPSA35    1               0.0000000000
     37783      1225  ECLIPA    OPA2           35.0717160377      -38.5431676386       15.9734101064  LPSA35    1               0.0000000000
     37784      1225  ECLIPA    OPA3           37.2675943075      -39.1521450044       14.8300177673  LPSA35    1               0.0000000000
     37785      1225  ECLIPA    OPA4           35.6289122997      -37.7510423200       13.6615320840  LPSA35    1               0.0000000000
     37786      1225  ECLIPA    PA             35.8040706793      -38.8582866805       14.6765383084  LPSA35    1               0.0000000000
     37787      1225  ECLIPA    CA3            33.8033366241      -43.0377959337       14.5219348229  LPSA35    1               0.0000000000
     37788      1225  ECLIPA    HA3            32.9645046398      -42.2662994328       14.7377032538  LPSA35    1               0.0000000000
     37789      1225  ECLIPA    OA3            33.0728731887      -44.2200982549       14.2498111976  LPSA35    1               0.0000000000
     37790      1225  ECLIPA    C31            33.7172418718      -45.1708315805       13.5006246295  LPSA35    1               0.0000000000
     37791      1225  ECLIPA    O31            33.8827812889      -45.1524160604       12.2941239937  LPSA35    1               0.0000000000
     37792      1225  ECLIPA    C32            33.7256467993      -46.4950170836       14.2780289507  LPSA35    1               0.0000000000
     37793      1225  ECLIPA    H32R           33.1214464453      -47.2312271794       13.7149713840  LPSA35    1               0.0000000000
     37794      1225  ECLIPA    H32S           33.3144310454      -46.3439897467       15.2729523512  LPSA35    1               0.0000000000
     37795      1225  ECLIPA    CA2            34.8140287711      -42.5568077385       13.4984733916  LPSA35    1               0.0000000000
     37796      1225  ECLIPA    HA2            35.5713698822      -43.3386392225       13.3982259915  LPSA35    1               0.0000000000
     37797      1225  ECLIPA    NA2            34.2102124683      -42.1775859682       12.2035087571  LPSA35    1               0.0000000000
     37798      1225  ECLIPA    HNA2           33.2755950105      -42.4124708212       12.0865030408  LPSA35    1               0.0000000000
     37799      1225  ECLIPA    C73            43.2767206261      -41.9564380355       14.3319064372  LPSA35    1               0.0000000000
     37800      1225  ECLIPA    H73R           43.8026732607      -41.6336545392       15.2227416964  LPSA35    1               0.0000000000
     37801      1225  ECLIPA    O73            42.0220172227      -41.2342566464       14.2644256719  LPSA35    1               0.0000000000
     37802      1225  ECLIPA    C81            41.7945110046      -40.0494548123       14.8555734565  LPSA35    1               0.0000000000
     37803      1225  ECLIPA    O81            42.6593672591      -39.5957692887       15.6690894779  LPSA35    1               0.0000000000
     37804      1225  ECLIPA    C82            40.4906809678      -39.3984608963       14.3536111794  LPSA35    1               0.0000000000
     37805      1225  ECLIPA    H82R           40.2972966555      -38.4545125867       14.8531840528  LPSA35    1               0.0000000000
     37806      1225  ECLIPA    H82S           39.6101179661      -40.0575027654       14.5323473422  LPSA35    1               0.0000000000
     37807      1225  ECLIPA    C83            40.5734814660      -39.1633065615       12.8301722806  LPSA35    1               0.0000000000
     37808      1225  ECLIPA    H83R           40.3266003357      -40.1212251467       12.2351841548  LPSA35    1               0.0000000000
     37809      1225  ECLIPA    H83S           41.6245288428      -38.9918609227       12.5911296392  LPSA35    1               0.0000000000
     37810      1225  ECLIPA    C84            39.5705990271      -38.1156175703       12.3050927261  LPSA35    1               0.0000000000
     37811      1225  ECLIPA    H84R           39.9394257345      -37.1189263813       12.5767117503  LPSA35    1               0.0000000000
     37812      1225  ECLIPA    H84S           38.6381466688      -38.4107058777       12.7369555497  LPSA35    1               0.0000000000
     37813      1225  ECLIPA    C85            39.4151643291      -38.2113654065       10.7695484051  LPSA35    1               0.0000000000
     37814      1225  ECLIPA    H85R           39.3506802291      -39.2849867129       10.5503608829  LPSA35    1               0.0000000000
     37815      1225  ECLIPA    H85S           40.3482791416      -37.8533512254       10.2367999955  LPSA35    1               0.0000000000
     37816      1225  ECLIPA    C86            38.0809054366      -37.5653976963       10.3034592726  LPSA35    1               0.0000000000
     37817      1225  ECLIPA    H86R           38.1888445635      -36.4732693061        9.9932223571  LPSA35    1               0.0000000000
     37818      1225  ECLIPA    H86S           37.3399077961      -37.5783866304       11.0807540114  LPSA35    1               0.0000000000
     37819      1225  ECLIPA    C87            37.3905446329      -38.3856817913        9.1601018854  LPSA35    1               0.0000000000
     37820      1225  ECLIPA    H87R           36.4928344522      -37.8900187624        8.8049419625  LPSA35    1               0.0000000000
     37821      1225  ECLIPA    H87S           37.0400098614      -39.3830077954        9.5406723883  LPSA35    1               0.0000000000
     37822      1225  ECLIPA    C88            38.3432473372      -38.6951914813        8.0318999685  LPSA35    1               0.0000000000
     37823      1225  ECLIPA    H88R           39.0717012745      -39.5117459307        8.3479828359  LPSA35    1               0.0000000000
     37824      1225  ECLIPA    H88S           39.0831928277      -37.8494042213        7.9254521495  LPSA35    1               0.0000000000
     37825      1225  ECLIPA    C89            37.6606596565      -39.1780200255        6.7101000712  LPSA35    1               0.0000000000
     37826      1225  ECLIPA    H89R           36.6159416381      -39.5194385817        6.8746682686  LPSA35    1               0.0000000000
     37827      1225  ECLIPA    H89S           38.1465237853      -40.0066448294        6.2317001698  LPSA35    1               0.0000000000
     37828      1225  ECLIPA    C810           37.6929300088      -38.0132087876        5.7047246593  LPSA35    1               0.0000000000
     37829      1225  ECLIPA    H810R          38.6136430835      -37.4838033365        6.0108430704  LPSA35    1               0.0000000000
     37830      1225  ECLIPA    H810S          36.8310894853      -37.3919876312        5.8554647029  LPSA35    1               0.0000000000
     37831      1225  ECLIPA    C811           37.7414802352      -38.4061568045        4.2179945741  LPSA35    1               0.0000000000
     37832      1225  ECLIPA    H811R          37.4526759739      -37.6811895531        3.5081125689  LPSA35    1               0.0000000000
     37833      1225  ECLIPA    H811S          37.1107040801      -39.3710077181        4.1819101877  LPSA35    1               0.0000000000
     37834      1225  ECLIPA    C812           39.0822159820      -38.9859386541        3.7413673409  LPSA35    1               0.0000000000
     37835      1225  ECLIPA    H812R          38.9118176069      -39.3827979357        2.6403157337  LPSA35    1               0.0000000000
     37836      1225  ECLIPA    H812S          39.5130891371      -39.7166129833        4.4144737196  LPSA35    1               0.0000000000
     37837      1225  ECLIPA    C813           40.2308018352      -37.9622901737        3.6785234959  LPSA35    1               0.0000000000
     37838      1225  ECLIPA    H813R          39.9201570190      -37.1858946038        2.9398073555  LPSA35    1               0.0000000000
     37839      1225  ECLIPA    H813S          40.4647702475      -37.4065342944        4.6616087352  LPSA35    1               0.0000000000
     37840      1225  ECLIPA    C814           41.5251780997      -38.5339134894        3.1377409857  LPSA35    1               0.0000000000
     37841      1225  ECLIPA    H814R          41.4382391332      -39.1910507679        2.1719074593  LPSA35    1               0.0000000000
     37842      1225  ECLIPA    H814S          42.0018239719      -39.1444402855        3.9166242729  LPSA35    1               0.0000000000
     37843      1225  ECLIPA    H814T          42.2465963976      -37.7203346802        2.8964685373  LPSA35    1               0.0000000000
     37844      1225  ECLIPA    C74            44.0863662600      -41.4110847309       13.1792855021  LPSA35    1               0.0000000000
     37845      1225  ECLIPA    H74R           45.0884467023      -41.7936132070       12.9935747315  LPSA35    1               0.0000000000
     37846      1225  ECLIPA    H74S           44.1968845172      -40.2637309647       13.3086690609  LPSA35    1               0.0000000000
     37847      1225  ECLIPA    C75            43.2749893904      -41.5060956840       11.8151371119  LPSA35    1               0.0000000000
     37848      1225  ECLIPA    H75R           43.5528169548      -40.5684044611       11.2107603889  LPSA35    1               0.0000000000
     37849      1225  ECLIPA    H75S           42.1855304359      -41.4726955547       12.0082837783  LPSA35    1               0.0000000000
     37850      1225  ECLIPA    C76            43.5787737284      -42.7426381878       10.9251453624  LPSA35    1               0.0000000000
     37851      1225  ECLIPA    H76R           43.0340044408      -43.6276050266       11.3555905686  LPSA35    1               0.0000000000
     37852      1225  ECLIPA    H76S           44.7003234984      -43.0664468760       10.9731137071  LPSA35    1               0.0000000000
     37853      1225  ECLIPA    C77            43.2259192198      -42.6500516303        9.4191603634  LPSA35    1               0.0000000000
     37854      1225  ECLIPA    H77R           43.8014864007      -41.8406394671        9.0408775908  LPSA35    1               0.0000000000
     37855      1225  ECLIPA    H77S           42.1846162692      -42.2762610225        9.2852383479  LPSA35    1               0.0000000000
     37856      1225  ECLIPA    C78            43.3691077048      -44.0588944774        8.8297405752  LPSA35    1               0.0000000000
     37857      1225  ECLIPA    H78R           44.3319084521      -44.4504754687        9.1562620580  LPSA35    1               0.0000000000
     37858      1225  ECLIPA    H78S           42.5418949268      -44.6455506516        9.3169442960  LPSA35    1               0.0000000000
     37859      1225  ECLIPA    C79            42.9902295808      -44.1365618086        7.2570767761  LPSA35    1               0.0000000000
     37860      1225  ECLIPA    H79R           41.9145129981      -44.4836669816        7.1763205913  LPSA35    1               0.0000000000
     37861      1225  ECLIPA    H79S           43.6245622572      -44.8950139207        6.7882549413  LPSA35    1               0.0000000000
     37862      1225  ECLIPA    C710           43.3476655892      -42.9334700583        6.3785096220  LPSA35    1               0.0000000000
     37863      1225  ECLIPA    H710R          42.8124477033      -42.0741835350        6.8460783027  LPSA35    1               0.0000000000
     37864      1225  ECLIPA    H710S          44.3528914007      -42.7680054861        6.4843026416  LPSA35    1               0.0000000000
     37865      1225  ECLIPA    C711           42.8958778276      -43.0604893896        4.9384125046  LPSA35    1               0.0000000000
     37866      1225  ECLIPA    H711R          43.4518923319      -43.9237028074        4.5670708729  LPSA35    1               0.0000000000
     37867      1225  ECLIPA    H711S          41.7850715273      -43.2011133819        4.9306188492  LPSA35    1               0.0000000000
     37868      1225  ECLIPA    C712           43.2361048948      -41.7698379822        4.2148670498  LPSA35    1               0.0000000000
     37869      1225  ECLIPA    H712R          44.3198341171      -41.6425430857        4.3130666899  LPSA35    1               0.0000000000
     37870      1225  ECLIPA    H712S          42.7979030697      -40.9836113463        4.8522839389  LPSA35    1               0.0000000000
     37871      1225  ECLIPA    C713           42.6510196088      -41.7485512400        2.7357390519  LPSA35    1               0.0000000000
     37872      1225  ECLIPA    H713R          41.5364326268      -41.8110012063        2.8800411466  LPSA35    1               0.0000000000
     37873      1225  ECLIPA    H713S          42.9861175741      -40.7468030911        2.2750064041  LPSA35    1               0.0000000000
     37874      1225  ECLIPA    C714           43.2976735294      -42.8594750237        1.8879763961  LPSA35    1               0.0000000000
     37875      1225  ECLIPA    H714R          44.3766755220      -42.6915753137        1.7626189762  LPSA35    1               0.0000000000
     37876      1225  ECLIPA    H714S          42.9897147201      -43.8623426728        2.2081901572  LPSA35    1               0.0000000000
     37877      1225  ECLIPA    H714T          42.8652696563      -42.6629632703        0.9249202435  LPSA35    1               0.0000000000
     37878      1225  ECLIPA    C51            38.9183388616      -43.6852492560       14.2380633031  LPSA35    1               0.0000000000
     37879      1225  ECLIPA    O51            39.1066038440      -42.4546039332       14.1304636378  LPSA35    1               0.0000000000
     37880      1225  ECLIPA    C52            39.0707553187      -44.6617836065       13.0157035712  LPSA35    1               0.0000000000
     37881      1225  ECLIPA    H52R           40.0614681461      -45.0759160964       12.8950255930  LPSA35    1               0.0000000000
     37882      1225  ECLIPA    H52S           38.3622493578      -45.4325432977       13.2222025935  LPSA35    1               0.0000000000
     37883      1225  ECLIPA    C53            38.5142388035      -43.9007298099       11.7526064304  LPSA35    1               0.0000000000
     37884      1225  ECLIPA    H53R           37.7881617600      -43.1360199665       12.0082431084  LPSA35    1               0.0000000000
     37885      1225  ECLIPA    O53            38.0807067493      -44.9249466316       10.8431816314  LPSA35    1               0.0000000000
     37886      1225  ECLIPA    C61            36.8014746680      -44.9686608376       10.5090573566  LPSA35    1               0.0000000000
     37887      1225  ECLIPA    O61            35.9549869905      -44.2105880838       10.8659713306  LPSA35    1               0.0000000000
     37888      1225  ECLIPA    C62            36.5665758420      -46.1639783125        9.5765835255  LPSA35    1               0.0000000000
     37889      1225  ECLIPA    H62R           36.5123541729      -47.0707794934       10.2152837125  LPSA35    1               0.0000000000
     37890      1225  ECLIPA    H62S           37.5290437353      -46.3311851182        9.0470049452  LPSA35    1               0.0000000000
     37891      1225  ECLIPA    C63            35.3185558443      -45.9579902188        8.6803029234  LPSA35    1               0.0000000000
     37892      1225  ECLIPA    H63R           35.3779418106      -44.9330351139        8.2798705976  LPSA35    1               0.0000000000
     37893      1225  ECLIPA    H63S           34.3372276952      -46.0286407071        9.3252199642  LPSA35    1               0.0000000000
     37894      1225  ECLIPA    C64            35.1296732777      -46.8666527065        7.5279067597  LPSA35    1               0.0000000000
     37895      1225  ECLIPA    H64R           34.1456189664      -46.6941392284        6.9620099216  LPSA35    1               0.0000000000
     37896      1225  ECLIPA    H64S           35.1545056593      -47.9312269714        7.9657393466  LPSA35    1               0.0000000000
     37897      1225  ECLIPA    C65            36.3427633912      -46.7344505664        6.5414948800  LPSA35    1               0.0000000000
     37898      1225  ECLIPA    H65R           37.1666772247      -47.0224238133        7.2423230371  LPSA35    1               0.0000000000
     37899      1225  ECLIPA    H65S           36.4151364968      -45.6840526082        6.1828980290  LPSA35    1               0.0000000000
     37900      1225  ECLIPA    C66            36.3198544226      -47.6329429999        5.2222643966  LPSA35    1               0.0000000000
     37901      1225  ECLIPA    H66R           36.2969600752      -48.6733059190        5.5395647249  LPSA35    1               0.0000000000
     37902      1225  ECLIPA    H66S           37.3381022394      -47.3651421463        4.8113963288  LPSA35    1               0.0000000000
     37903      1225  ECLIPA    C67            35.2770582261      -47.3536429358        4.1696839457  LPSA35    1               0.0000000000
     37904      1225  ECLIPA    H67R           34.2655065805      -47.3068446886        4.5058181646  LPSA35    1               0.0000000000
     37905      1225  ECLIPA    H67S           35.3470277904      -48.1218955463        3.3478820057  LPSA35    1               0.0000000000
     37906      1225  ECLIPA    C68            35.4127624021      -46.0074182646        3.5077075145  LPSA35    1               0.0000000000
     37907      1225  ECLIPA    H68R           36.3783066397      -45.7486292590        3.0112508411  LPSA35    1               0.0000000000
     37908      1225  ECLIPA    H68S           35.1540900335      -45.3385201202        4.3087918325  LPSA35    1               0.0000000000
     37909      1225  ECLIPA    C69            34.4846759559      -45.9317615193        2.2963532923  LPSA35    1               0.0000000000
     37910      1225  ECLIPA    H69R           33.5851876794      -46.5768649412        2.3203210098  LPSA35    1               0.0000000000
     37911      1225  ECLIPA    H69S           35.0365999571      -46.3739523166        1.4693744207  LPSA35    1               0.0000000000
     37912      1225  ECLIPA    C610           34.0662378922      -44.5521915636        1.9396251084  LPSA35    1               0.0000000000
     37913      1225  ECLIPA    H610R          34.9308929724      -43.8428466424        2.0603347121  LPSA35    1               0.0000000000
     37914      1225  ECLIPA    H610S          33.2990248924      -44.1775973225        2.6933643884  LPSA35    1               0.0000000000
     37915      1225  ECLIPA    C611           33.3818549358      -44.4513059427        0.5312153135  LPSA35    1               0.0000000000
     37916      1225  ECLIPA    H611R          32.5028074388      -45.1236296481        0.5735373188  LPSA35    1               0.0000000000
     37917      1225  ECLIPA    H611S          32.8625557345      -43.5201531395        0.3609598123  LPSA35    1               0.0000000000
     37918      1225  ECLIPA    C612           34.3843979656      -44.7184387861       -0.5788949292  LPSA35    1               0.0000000000
     37919      1225  ECLIPA    H612R          35.1168763294      -43.8633369386       -0.6060949542  LPSA35    1               0.0000000000
     37920      1225  ECLIPA    H612S          34.9914853328      -45.5927268055       -0.3132441764  LPSA35    1               0.0000000000
     37921      1225  ECLIPA    H612T          33.9037347260      -44.8050488315       -1.5574606966  LPSA35    1               0.0000000000
     37922      1225  ECLIPA    C54            39.7620918571      -43.2058799994       11.1776054589  LPSA35    1               0.0000000000
     37923      1225  ECLIPA    H54R           40.5095062899      -44.0030292034       10.8869876633  LPSA35    1               0.0000000000
     37924      1225  ECLIPA    H54S           40.2678103955      -42.6138510903       11.9574517429  LPSA35    1               0.0000000000
     37925      1225  ECLIPA    C55            39.6033418865      -42.2620792707        9.9916770240  LPSA35    1               0.0000000000
     37926      1225  ECLIPA    H55R           40.4867008902      -41.6161106656        9.7856946516  LPSA35    1               0.0000000000
     37927      1225  ECLIPA    H55S           38.7352360771      -41.5544883807       10.2436295858  LPSA35    1               0.0000000000
     37928      1225  ECLIPA    C56            39.4613446853      -43.1038088452        8.7515486822  LPSA35    1               0.0000000000
     37929      1225  ECLIPA    H56R           38.5489652276      -43.7698929722        8.8382497819  LPSA35    1               0.0000000000
     37930      1225  ECLIPA    H56S           40.2673651773      -43.7137807774        8.4741334449  LPSA35    1               0.0000000000
     37931      1225  ECLIPA    C57            39.0182491676      -42.3526360608        7.4395707935  LPSA35    1               0.0000000000
     37932      1225  ECLIPA    H57R           39.6761051765      -41.5204372547        7.1827428724  LPSA35    1               0.0000000000
     37933      1225  ECLIPA    H57S           38.0135113493      -41.8861775374        7.5196553379  LPSA35    1               0.0000000000
     37934      1225  ECLIPA    C58            38.8825756389      -43.3709491722        6.2350750625  LPSA35    1               0.0000000000
     37935      1225  ECLIPA    H58R           39.7508420295      -44.0861337717        6.2095761879  LPSA35    1               0.0000000000
     37936      1225  ECLIPA    H58S           38.0621078834      -44.0842384126        6.5224540661  LPSA35    1               0.0000000000
     37937      1225  ECLIPA    C59            38.7883329045      -42.6394720335        4.8667186835  LPSA35    1               0.0000000000
     37938      1225  ECLIPA    H59R           39.6629953739      -41.9973124967        4.6589989540  LPSA35    1               0.0000000000
     37939      1225  ECLIPA    H59S           37.8777343054      -42.0466755181        5.0825555512  LPSA35    1               0.0000000000
     37940      1225  ECLIPA    C510           38.7997211851      -43.6144709355        3.6752379292  LPSA35    1               0.0000000000
     37941      1225  ECLIPA    H510R          38.1283256333      -44.5328980039        3.7937959224  LPSA35    1               0.0000000000
     37942      1225  ECLIPA    H510S          39.8836253596      -44.0340991432        3.4613250382  LPSA35    1               0.0000000000
     37943      1225  ECLIPA    C511           38.4337559054      -43.0163244831        2.3004848829  LPSA35    1               0.0000000000
     37944      1225  ECLIPA    H511R          37.3284582841      -42.9655754494        2.2679211996  LPSA35    1               0.0000000000
     37945      1225  ECLIPA    H511S          38.7815711490      -41.9478320150        2.1940961976  LPSA35    1               0.0000000000
     37946      1225  ECLIPA    C512           38.8631066764      -43.8211372140        1.0189424135  LPSA35    1               0.0000000000
     37947      1225  ECLIPA    H512R          38.7433286765      -43.1824337017        0.0815295424  LPSA35    1               0.0000000000
     37948      1225  ECLIPA    H512S          39.9129043951      -44.1254624264        1.1129704346  LPSA35    1               0.0000000000
     37949      1225  ECLIPA    C513           37.9164057561      -45.0506865540        0.6457389972  LPSA35    1               0.0000000000
     37950      1225  ECLIPA    H513R          36.8429970065      -44.7143513510        0.5010832175  LPSA35    1               0.0000000000
     37951      1225  ECLIPA    H513S          37.8948259080      -45.7338117421        1.4088770719  LPSA35    1               0.0000000000
     37952      1225  ECLIPA    C514           38.3405362700      -45.6722677523       -0.6567184026  LPSA35    1               0.0000000000
     37953      1225  ECLIPA    H514R          39.3936563027      -45.9510444695       -0.6273993866  LPSA35    1               0.0000000000
     37954      1225  ECLIPA    H514S          37.7864595763      -46.6124417474       -0.7024724270  LPSA35    1               0.0000000000
     37955      1225  ECLIPA    H514T          38.1432485125      -44.9652035715       -1.5427815912  LPSA35    1               0.0000000000
     37956      1225  ECLIPA    C33            35.1349888565      -47.2134334142       14.4880792826  LPSA35    1               0.0000000000
     37957      1225  ECLIPA    H33R           34.9204916902      -48.2615368973       14.8828993596  LPSA35    1               0.0000000000
     37958      1225  ECLIPA    O33            35.9021015425      -46.5412825251       15.4699768821  LPSA35    1               0.0000000000
     37959      1225  ECLIPA    HO33           35.5308318485      -46.7177095887       16.2926205744  LPSA35    1               0.0000000000
     37960      1225  ECLIPA    C34            36.0202920346      -47.3848283645       13.2255459338  LPSA35    1               0.0000000000
     37961      1225  ECLIPA    H34R           36.2357188423      -46.4104248536       12.8010908313  LPSA35    1               0.0000000000
     37962      1225  ECLIPA    H34S           35.4215880897      -47.8982005389       12.3772221142  LPSA35    1               0.0000000000
     37963      1225  ECLIPA    C35            37.3575929989      -48.1209876829       13.4256256262  LPSA35    1               0.0000000000
     37964      1225  ECLIPA    H35R           37.1367641879      -49.1509665493       13.6963698038  LPSA35    1               0.0000000000
     37965      1225  ECLIPA    H35S           37.8908034732      -47.6595053823       14.2668166019  LPSA35    1               0.0000000000
     37966      1225  ECLIPA    C36            38.2621680118      -48.2803194569       12.1865608177  LPSA35    1               0.0000000000
     37967      1225  ECLIPA    H36R           37.9926380543      -47.2997102133       11.7430812241  LPSA35    1               0.0000000000
     37968      1225  ECLIPA    H36S           37.9891475947      -49.1257282835       11.4785220412  LPSA35    1               0.0000000000
     37969      1225  ECLIPA    C37            39.7371370535      -48.1754273361       12.5255831563  LPSA35    1               0.0000000000
     37970      1225  ECLIPA    H37R           40.0651960629      -49.3010589865       12.6765215637  LPSA35    1               0.0000000000
     37971      1225  ECLIPA    H37S           39.9112735919      -47.7086264776       13.5128993321  LPSA35    1               0.0000000000
     37972      1225  ECLIPA    C38            40.6550837926      -47.5622129706       11.4317274953  LPSA35    1               0.0000000000
     37973      1225  ECLIPA    H38R           40.6282861883      -46.4601199194       11.4067421357  LPSA35    1               0.0000000000
     37974      1225  ECLIPA    H38S           41.6978670165      -47.7833073575       11.7230999881  LPSA35    1               0.0000000000
     37975      1225  ECLIPA    C39            40.2694576299      -48.0525187617       10.0213367345  LPSA35    1               0.0000000000
     37976      1225  ECLIPA    H39R           39.1853564883      -47.8502123191        9.8128797222  LPSA35    1               0.0000000000
     37977      1225  ECLIPA    H39S           40.5666250097      -49.1335442310        9.9697980947  LPSA35    1               0.0000000000
     37978      1225  ECLIPA    C310           41.0724774614      -47.4674242863        8.8401719124  LPSA35    1               0.0000000000
     37979      1225  ECLIPA    H310R          42.1412699065      -47.8393793318        9.0626900142  LPSA35    1               0.0000000000
     37980      1225  ECLIPA    H310S          41.0592599791      -46.3396909237        8.8945759064  LPSA35    1               0.0000000000
     37981      1225  ECLIPA    C311           40.3959850017      -47.6957715647        7.5676235846  LPSA35    1               0.0000000000
     37982      1225  ECLIPA    H311R          39.9278907726      -48.7127748326        7.5507520616  LPSA35    1               0.0000000000
     37983      1225  ECLIPA    H311S          39.5808994436      -46.9601458608        7.2851462164  LPSA35    1               0.0000000000
     37984      1225  ECLIPA    C312           41.3050693689      -47.5440066033        6.3280121142  LPSA35    1               0.0000000000
     37985      1225  ECLIPA    H312R          42.0592128146      -46.7322436745        6.4861373960  LPSA35    1               0.0000000000
     37986      1225  ECLIPA    H312S          41.8405347161      -48.5156017613        6.1820758986  LPSA35    1               0.0000000000
     37987      1225  ECLIPA    C313           40.5484293432      -47.2611720805        4.9895779706  LPSA35    1               0.0000000000
     37988      1225  ECLIPA    H313R          40.0889258263      -48.1779000912        4.7825120466  LPSA35    1               0.0000000000
     37989      1225  ECLIPA    H313S          39.7472809721      -46.4881089273        5.1572698764  LPSA35    1               0.0000000000
     37990      1225  ECLIPA    C314           41.3690626093      -46.8502083557        3.8116661598  LPSA35    1               0.0000000000
     37991      1225  ECLIPA    H314R          42.1415092338      -47.6406020541        3.6067793993  LPSA35    1               0.0000000000
     37992      1225  ECLIPA    H314S          40.8196573477      -46.6650385139        2.8849361441  LPSA35    1               0.0000000000
     37993      1225  ECLIPA    H314T          41.9649440619      -45.8991931221        4.0446347774  LPSA35    1               0.0000000000
     37994      1225  ECLIPA    C11            34.7525232251      -41.4110379813       11.2900808200  LPSA35    1               0.0000000000
     37995      1225  ECLIPA    O11            35.9261175231      -41.0942966815       11.1394597694  LPSA35    1               0.0000000000
     37996      1225  ECLIPA    C12            33.7430317177      -40.7806817025       10.2853014675  LPSA35    1               0.0000000000
     37997      1225  ECLIPA    H12R           33.6010387516      -39.6879960866       10.4852637814  LPSA35    1               0.0000000000
     37998      1225  ECLIPA    H12S           32.7925190328      -41.3282876896       10.5222272274  LPSA35    1               0.0000000000
     37999      1225  ECLIPA    C13            34.0756155592      -40.9679128617        8.8110583416  LPSA35    1               0.0000000000
     38000      1225  ECLIPA    H13R           35.1927198074      -40.7836401232        8.5839874118  LPSA35    1               0.0000000000
     38001      1225  ECLIPA    O13            33.3244234099      -39.9286449470        8.1311342176  LPSA35    1               0.0000000000
     38002      1225  ECLIPA    HO13           33.7276750788      -39.7291412982        7.3064966676  LPSA35    1               0.0000000000
     38003      1225  ECLIPA    C14            33.7308132925      -42.3959608604        8.4581579993  LPSA35    1               0.0000000000
     38004      1225  ECLIPA    H14R           32.7644786391      -42.7536536129        8.9706443184  LPSA35    1               0.0000000000
     38005      1225  ECLIPA    H14S           34.6087173770      -43.0208093197        8.7243868424  LPSA35    1               0.0000000000
     38006      1225  ECLIPA    C15            33.5069696325      -42.6325953958        6.9526486677  LPSA35    1               0.0000000000
     38007      1225  ECLIPA    H15R           32.7996698149      -41.9267970569        6.5500123177  LPSA35    1               0.0000000000
     38008      1225  ECLIPA    H15S           33.1503423698      -43.6611924702        6.8782608049  LPSA35    1               0.0000000000
     38009      1225  ECLIPA    C16            34.8255893899      -42.4408670524        6.1622847334  LPSA35    1               0.0000000000
     38010      1225  ECLIPA    H16R           35.5155290549      -43.3551832131        6.2733383262  LPSA35    1               0.0000000000
     38011      1225  ECLIPA    H16S           35.4385827423      -41.7108282047        6.7182496574  LPSA35    1               0.0000000000
     38012      1225  ECLIPA    C17            34.6018825847      -42.1494320220        4.6801229578  LPSA35    1               0.0000000000
     38013      1225  ECLIPA    H17R           33.8022999238      -42.9103730767        4.4246758429  LPSA35    1               0.0000000000
     38014      1225  ECLIPA    H17S           35.4407877452      -42.3467898361        4.0046542873  LPSA35    1               0.0000000000
     38015      1225  ECLIPA    C18            34.1235894726      -40.7416923585        4.4504458171  LPSA35    1               0.0000000000
     38016      1225  ECLIPA    H18R           33.2804986451      -40.6897070375        5.0865821920  LPSA35    1               0.0000000000
     38017      1225  ECLIPA    H18S           34.9448789902      -40.0406124574        4.7749867078  LPSA35    1               0.0000000000
     38018      1225  ECLIPA    C19            33.7597052406      -40.4826691768        3.0097966450  LPSA35    1               0.0000000000
     38019      1225  ECLIPA    H19R           33.3078281257      -39.5044543127        2.9245509529  LPSA35    1               0.0000000000
     38020      1225  ECLIPA    H19S           33.0404175790      -41.2781945117        2.6238151240  LPSA35    1               0.0000000000
     38021      1225  ECLIPA    C110           35.0152550005      -40.4408312817        2.1045801788  LPSA35    1               0.0000000000
     38022      1225  ECLIPA    H110R          35.8195602189      -39.7848767328        2.4416701971  LPSA35    1               0.0000000000
     38023      1225  ECLIPA    H110S          35.3186483586      -41.5095519742        2.1583327743  LPSA35    1               0.0000000000
     38024      1225  ECLIPA    C111           34.5955590147      -40.1044024467        0.7563571155  LPSA35    1               0.0000000000
     38025      1225  ECLIPA    H111R          33.6630078866      -40.6247988385        0.3999767799  LPSA35    1               0.0000000000
     38026      1225  ECLIPA    H111S          34.3144925338      -39.0842198784        0.7977177860  LPSA35    1               0.0000000000
     38027      1225  ECLIPA    C112           35.7098377445      -40.2354175933       -0.2937360943  LPSA35    1               0.0000000000
     38028      1225  ECLIPA    H112R          36.4764346952      -39.5806670746        0.1973446929  LPSA35    1               0.0000000000
     38029      1225  ECLIPA    H112S          36.2121158113      -41.2031027367       -0.2177998937  LPSA35    1               0.0000000000
     38030      1225  ECLIPA    C113           35.2286623267      -40.0926292105       -1.7468031795  LPSA35    1               0.0000000000
     38031      1225  ECLIPA    H113R          34.5729207615      -40.9630931686       -1.9802017524  LPSA35    1               0.0000000000
     38032      1225  ECLIPA    H113S          34.5601415506      -39.2323777115       -1.8531093719  LPSA35    1               0.0000000000
     38033      1225  ECLIPA    C114           36.2439936190      -39.8483158310       -2.8344928043  LPSA35    1               0.0000000000
     38034      1225  ECLIPA    H114R          36.9841876659      -39.0545348805       -2.7829422503  LPSA35    1               0.0000000000
     38035      1225  ECLIPA    H114S          36.8514088493      -40.7826151175       -2.9951089580  LPSA35    1               0.0000000000
     38036      1225  ECLIPA    H114T          35.7216159048      -39.4825274394       -3.7399523103  LPSA35    1               0.0000000000
     38037      1226  AKDO      C1             39.8943930707      -44.6912654770       22.4410509549  LPSA35    2               0.0000000000
     38038      1226  AKDO      O11            41.1663423286      -44.8132552731       22.4913720772  LPSA35    2               0.0000000000
     38039      1226  AKDO      O12            39.0091074887      -45.5167230712       22.0800765534  LPSA35    2               0.0000000000
     38040      1226  AKDO      C2             39.3588175167      -43.3284799193       22.8913181237  LPSA35    2               0.0000000000
     38041      1226  AKDO      C6             40.0591954834      -41.2597367883       23.8039205188  LPSA35    2               0.0000000000
     38042      1226  AKDO      H6             39.7027831926      -40.7476429190       22.9487387861  LPSA35    2               0.0000000000
     38043      1226  AKDO      O6             40.4400769247      -42.6437487586       23.4267274814  LPSA35    2               0.0000000000
     38044      1226  AKDO      C3             38.3396245289      -43.4251461661       23.9587385105  LPSA35    2               0.0000000000
     38045      1226  AKDO      H31            38.6170089594      -44.0053558538       24.7868435866  LPSA35    2               0.0000000000
     38046      1226  AKDO      H32            37.3747336976      -43.8699710631       23.4151264596  LPSA35    2               0.0000000000
     38047      1226  AKDO      C4             37.8988963692      -42.0273288353       24.3842593775  LPSA35    2               0.0000000000
     38048      1226  AKDO      H4             37.5720870756      -41.4226654852       23.5563617270  LPSA35    2               0.0000000000
     38049      1226  AKDO      O4             36.8492477797      -42.1334769814       25.3355834555  LPSA35    2               0.0000000000
     38050      1226  AKDO      C5             38.9920537496      -41.2236229366       24.9292437177  LPSA35    2               0.0000000000
     38051      1226  AKDO      H5             38.6880525092      -40.1467556804       25.0107888161  LPSA35    2               0.0000000000
     38052      1226  AKDO      O5             39.4289763056      -41.8515751984       26.2083878813  LPSA35    2               0.0000000000
     38053      1226  AKDO      C7             41.3242639356      -40.3674072817       24.1981149098  LPSA35    2               0.0000000000
     38054      1226  AKDO      H7             41.7696491844      -40.7955122475       25.0939202098  LPSA35    2               0.0000000000
     38055      1226  AKDO      O7             40.9712786716      -38.9669484938       24.3482682347  LPSA35    2               0.0000000000
     38056      1226  AKDO      HO7            40.8787516584      -38.6399992423       23.4945166536  LPSA35    2               0.0000000000
     38057      1226  AKDO      C8             42.3126677121      -40.4684348654       22.9864433882  LPSA35    2               0.0000000000
     38058      1226  AKDO      H81            42.5488310677      -41.5571904864       22.9153150275  LPSA35    2               0.0000000000
     38059      1226  AKDO      H82            41.7562409375      -40.0358266034       22.0745354517  LPSA35    2               0.0000000000
     38060      1226  AKDO      O8             43.5454277291      -39.7190780507       23.3537996748  LPSA35    2               0.0000000000
     38061      1226  AKDO      HO8            44.3154854028      -40.1683390422       22.9179804014  LPSA35    2               0.0000000000
     38062      1227  AKDO      C1             35.1852469691      -41.4232497580       23.8027969005  LPSA35    3               1.0000000000
     38063      1227  AKDO      O11            35.1513087355      -41.9437271739       22.6471489042  LPSA35    3               1.0000000000
     38064      1227  AKDO      O12            34.9674848791      -40.2165120772       24.0656860145  LPSA35    3               1.0000000000
     38065      1227  AKDO      C2             35.4824749700      -42.2921728033       25.0166033796  LPSA35    3               1.0000000000
     38066      1227  AKDO      C6             35.5847731896      -44.5731939383       25.7688829792  LPSA35    3               1.0000000000
     38067      1227  AKDO      H6             36.7001131455      -44.4884741351       25.9810553331  LPSA35    3               1.0000000000
     38068      1227  AKDO      O6             35.2306299058      -43.7075334936       24.7076657818  LPSA35    3               1.0000000000
     38069      1227  AKDO      C3             34.7201960748      -41.9283066656       26.3187707743  LPSA35    3               1.0000000000
     38070      1227  AKDO      H31            33.5718037556      -42.0502397438       26.1504935106  LPSA35    3               1.0000000000
     38071      1227  AKDO      H32            34.8909795474      -40.8781045013       26.5929217108  LPSA35    3               1.0000000000
     38072      1227  AKDO      C4             35.1675206703      -42.8744441638       27.4036122013  LPSA35    3               1.0000000000
     38073      1227  AKDO      H4             36.2618191795      -42.8691085979       27.4051754129  LPSA35    3               1.0000000000
     38074      1227  AKDO      O4             34.7361028993      -42.5730797915       28.7388570077  LPSA35    3               1.0000000000
     38075      1227  AKDO      HO4            35.4337285593      -42.4540706230       29.3717785514  LPSA35    3               1.0000000000
     38076      1227  AKDO      C5             34.8584981490      -44.2046673809       27.0369167275  LPSA35    3               1.0000000000
     38077      1227  AKDO      H5             35.1195271031      -44.8968375667       27.9236884022  LPSA35    3               1.0000000000
     38078      1227  AKDO      O5             33.4395625397      -44.3631803530       26.8495261943  LPSA35    3               1.0000000000
     38079      1227  AKDO      HO5            33.1377113115      -43.7748737251       26.1887877298  LPSA35    3               1.0000000000
     38080      1227  AKDO      C7             35.2697847823      -45.9799826636       25.3258859863  LPSA35    3               1.0000000000
     38081      1227  AKDO      H7             34.1655955113      -46.1150720635       25.1324849511  LPSA35    3               1.0000000000
     38082      1227  AKDO      O7             35.7056930080      -46.8977900132       26.3661029982  LPSA35    3               1.0000000000
     38083      1227  AKDO      HO7            35.3523028757      -47.7900175450       26.1647669547  LPSA35    3               1.0000000000
     38084      1227  AKDO      C8             36.1130560044      -46.2666323966       24.1539635864  LPSA35    3               1.0000000000
     38085      1227  AKDO      H81            35.8929873278      -45.5611550553       23.3419478721  LPSA35    3               1.0000000000
     38086      1227  AKDO      H82            37.2054895733      -46.2505807856       24.2853144505  LPSA35    3               1.0000000000
     38087      1227  AKDO      O8             35.8175256099      -47.5514127578       23.6541307456  LPSA35    3               1.0000000000
     38088      1227  AKDO      HO8            34.9644834904      -47.3091491801       23.2473452835  LPSA35    3               1.0000000000
     38089      1228  AHEP      C1             39.8522166983      -41.0235264351       27.2793229502  LPSA35    4               2.0000000000
     38090      1228  AHEP      H1             40.8963921173      -40.8684137313       26.8517192453  LPSA35    4               2.0000000000
     38091      1228  AHEP      C5             37.9687939724      -39.6899229039       28.0185271385  LPSA35    4               2.0000000000
     38092      1228  AHEP      H5             37.3648830657      -40.5670936274       27.5619054335  LPSA35    4               2.0000000000
     38093      1228  AHEP      O5             39.2490676093      -39.7324935662       27.3942805697  LPSA35    4               2.0000000000
     38094      1228  AHEP      C2             40.0665871304      -41.5302147224       28.6827861277  LPSA35    4               2.0000000000
     38095      1228  AHEP      H2             40.4857523540      -42.5406183641       28.7442425996  LPSA35    4               2.0000000000
     38096      1228  AHEP      O2             40.9560231420      -40.7023387977       29.3407203943  LPSA35    4               2.0000000000
     38097      1228  AHEP      HO2            41.5480826904      -41.2220472932       29.8507927467  LPSA35    4               2.0000000000
     38098      1228  AHEP      C3             38.7501033078      -41.5367340693       29.4857672188  LPSA35    4               2.0000000000
     38099      1228  AHEP      H3             38.0311116027      -42.3261541329       29.2269906369  LPSA35    4               2.0000000000
     38100      1228  AHEP      O3             39.0052093125      -41.8236454395       30.7882097304  LPSA35    4               2.0000000000
     38101      1228  AHEP      C4             38.1425762911      -40.1578030316       29.4546205599  LPSA35    4               2.0000000000
     38102      1228  AHEP      H4             38.7250950455      -39.3594258732       29.9788637739  LPSA35    4               2.0000000000
     38103      1228  AHEP      O4             36.8636688644      -40.2123777350       30.0145912217  LPSA35    4               2.0000000000
     38104      1228  AHEP      P4             36.5054296559      -39.5538099199       31.4978499249  LPSA35    4               2.0000000000
     38105      1228  AHEP      OP42           35.4756305146      -40.3840065575       32.1560374192  LPSA35    4               2.0000000000
     38106      1228  AHEP      OP43           35.9793325053      -38.2254377070       31.0397938518  LPSA35    4               2.0000000000
     38107      1228  AHEP      OP44           37.8225078537      -39.3491111122       32.3098937101  LPSA35    4               2.0000000000
     38108      1228  AHEP      C6             37.2609875897      -38.3047554761       27.7982482844  LPSA35    4               2.0000000000
     38109      1228  AHEP      H6             36.1773639486      -38.4685231473       28.0833143566  LPSA35    4               2.0000000000
     38110      1228  AHEP      O6             37.8507706076      -37.3746191652       28.7103505027  LPSA35    4               2.0000000000
     38111      1228  AHEP      HO6            37.1642606593      -36.8669408023       29.2203787365  LPSA35    4               2.0000000000
     38112      1228  AHEP      C7             37.3016320860      -37.8002706505       26.3054198206  LPSA35    4               2.0000000000
     38113      1228  AHEP      H71            36.6374130395      -36.8848607624       26.1576126064  LPSA35    4               2.0000000000
     38114      1228  AHEP      H72            37.0831023592      -38.6534605718       25.6323487339  LPSA35    4               2.0000000000
     38115      1228  AHEP      O7             38.6083986479      -37.3387342592       25.9755159574  LPSA35    4               2.0000000000
     38116      1228  AHEP      HO7            38.6988182462      -36.4382544629       26.3256794122  LPSA35    4               2.0000000000
     38117      1229  AHEP      C1             38.4231611740      -42.9786925271       31.4342177374  LPSA35    5               3.0000000000
     38118      1229  AHEP      H1             37.4334082237      -43.2461832293       30.9794447437  LPSA35    5               3.0000000000
     38119      1229  AHEP      C5             40.5439382232      -43.9512448487       31.9165413065  LPSA35    5               3.0000000000
     38120      1229  AHEP      H5             40.9602420174      -42.9342947116       31.6031509785  LPSA35    5               3.0000000000
     38121      1229  AHEP      O5             39.2775781266      -44.1294203120       31.3013865768  LPSA35    5               3.0000000000
     38122      1229  AHEP      C2             38.1849859978      -42.8043414838       32.9718957084  LPSA35    5               3.0000000000
     38123      1229  AHEP      H2             37.5667671417      -41.8571478573       33.0921707216  LPSA35    5               3.0000000000
     38124      1229  AHEP      O2             37.4392351114      -43.8997155819       33.4691025827  LPSA35    5               3.0000000000
     38125      1229  AHEP      HO2            36.5410757334      -43.6347848183       33.6403503244  LPSA35    5               3.0000000000
     38126      1229  AHEP      C3             39.5246946299      -42.5708476223       33.7004304811  LPSA35    5               3.0000000000
     38127      1229  AHEP      H3             40.0093506263      -41.6577351424       33.3375632548  LPSA35    5               3.0000000000
     38128      1229  AHEP      O3             39.4495140402      -42.4196690785       35.1462238331  LPSA35    5               3.0000000000
     38129      1229  AHEP      C4             40.3626064850      -43.7778374198       33.4524658705  LPSA35    5               3.0000000000
     38130      1229  AHEP      H4             39.8765684437      -44.7147744853       33.8188816395  LPSA35    5               3.0000000000
     38131      1229  AHEP      O4             41.6618406002      -43.5638895796       34.0881196202  LPSA35    5               3.0000000000
     38132      1229  AHEP      P4             42.1478180033      -44.5035210776       35.2810123301  LPSA35    5               3.0000000000
     38133      1229  AHEP      OP42           43.4049699258      -43.8629473119       35.8202965042  LPSA35    5               3.0000000000
     38134      1229  AHEP      OP43           42.4343401344      -45.8732615130       34.6107506294  LPSA35    5               3.0000000000
     38135      1229  AHEP      OP44           40.9939149537      -44.6177536711       36.2417033353  LPSA35    5               3.0000000000
     38136      1229  AHEP      C6             41.5601710601      -45.0435536122       31.5493607386  LPSA35    5               3.0000000000
     38137      1229  AHEP      H6             42.5626230642      -44.8241053827       31.9533288164  LPSA35    5               3.0000000000
     38138      1229  AHEP      O6             41.1245010698      -46.3057549226       32.0428602265  LPSA35    5               3.0000000000
     38139      1229  AHEP      HO6            40.3911748071      -46.7459786170       31.5367188277  LPSA35    5               3.0000000000
     38140      1229  AHEP      C7             41.8277067636      -45.0155063461       30.0822725317  LPSA35    5               3.0000000000
     38141      1229  AHEP      H71            42.8864803518      -45.3128937032       29.9169108581  LPSA35    5               3.0000000000
     38142      1229  AHEP      H72            41.6964232004      -44.0200968894       29.6179339851  LPSA35    5               3.0000000000
     38143      1229  AHEP      O7             41.0282192762      -46.0642257533       29.4957736452  LPSA35    5               3.0000000000
     38144      1230  AHEP      C1             39.9144894992      -45.6019247462       28.7926622005  LPSA35    6               4.0000000000
     38145      1230  AHEP      H1             39.7143404735      -44.5024407107       29.0422981953  LPSA35    6               4.0000000000
     38146      1230  AHEP      C5             40.3480894173      -47.0218536786       26.9237617191  LPSA35    6               4.0000000000
     38147      1230  AHEP      H5             41.2023940082      -47.4296083114       27.4818042043  LPSA35    6               4.0000000000
     38148      1230  AHEP      O5             40.0820400376      -45.6777969788       27.3547530115  LPSA35    6               4.0000000000
     38149      1230  AHEP      C2             38.7048588030      -46.3749838979       29.2397872647  LPSA35    6               4.0000000000
     38150      1230  AHEP      H2             38.5922581041      -46.1984054963       30.3523091474  LPSA35    6               4.0000000000
     38151      1230  AHEP      O2             37.5086732311      -45.8477749411       28.7267108980  LPSA35    6               4.0000000000
     38152      1230  AHEP      HO2            37.0955572888      -45.4480265337       29.4669064354  LPSA35    6               4.0000000000
     38153      1230  AHEP      C3             38.9186061807      -47.8583253205       28.8468391403  LPSA35    6               4.0000000000
     38154      1230  AHEP      H3             39.7733875874      -48.2209449401       29.4311808254  LPSA35    6               4.0000000000
     38155      1230  AHEP      O3             37.7631033606      -48.7556069783       29.2225362108  LPSA35    6               4.0000000000
     38156      1230  AHEP      HO3            37.8545689288      -49.2577860418       29.9865592523  LPSA35    6               4.0000000000
     38157      1230  AHEP      C4             39.1327065145      -47.8821689231       27.2761740859  LPSA35    6               4.0000000000
     38158      1230  AHEP      H4             38.1969687859      -47.6357440472       26.7944950683  LPSA35    6               4.0000000000
     38159      1230  AHEP      O4             39.3715114582      -49.2130629648       26.7938835778  LPSA35    6               4.0000000000
     38160      1230  AHEP      HO4            40.3182338049      -49.4079154162       27.1589530594  LPSA35    6               4.0000000000
     38161      1230  AHEP      C6             40.7808988557      -47.1108152158       25.4906533340  LPSA35    6               4.0000000000
     38162      1230  AHEP      H6             41.0428267508      -48.1529667731       25.3442628137  LPSA35    6               4.0000000000
     38163      1230  AHEP      O6             39.6517476055      -46.9131369798       24.6375675438  LPSA35    6               4.0000000000
     38164      1230  AHEP      HO6            39.8171470670      -46.2144903467       23.9977784313  LPSA35    6               4.0000000000
     38165      1230  AHEP      C7             42.0064401390      -46.3019190789       25.1799756221  LPSA35    6               4.0000000000
     38166      1230  AHEP      H71            42.3336528368      -46.5767772112       24.1408078076  LPSA35    6               4.0000000000
     38167      1230  AHEP      H72            42.7645152490      -46.6021814644       25.9252229174  LPSA35    6               4.0000000000
     38168      1230  AHEP      O7             41.8120019203      -44.9203637270       25.2517430265  LPSA35    6               4.0000000000
     38169      1230  AHEP      HO7            41.9283321171      -44.7113817407       26.2011285002  LPSA35    6               4.0000000000
     38170      1231  AGLC      C1             39.2240917681      -41.1118324177       35.6520976122  LPSA35    7               4.0000000000
     38171      1231  AGLC      H1             40.0029432700      -40.4028634037       35.2047739589  LPSA35    7               4.0000000000
     38172      1231  AGLC      C5             36.9205499272      -41.3535745681       36.0987679218  LPSA35    7               4.0000000000
     38173      1231  AGLC      H5             36.9488898312      -42.4200293760       35.8327124756  LPSA35    7               4.0000000000
     38174      1231  AGLC      O5             37.9207292017      -40.6530309743       35.4366254460  LPSA35    7               4.0000000000
     38175      1231  AGLC      C2             39.4303455052      -41.0556119249       37.1582745954  LPSA35    7               4.0000000000
     38176      1231  AGLC      H2             39.1601412731      -39.9888980621       37.4887389927  LPSA35    7               4.0000000000
     38177      1231  AGLC      O2             40.8279531800      -41.1213062762       37.5024056006  LPSA35    7               4.0000000000
     38178      1231  AGLC      HO2            41.0078727535      -42.0481254199       37.6430208865  LPSA35    7               4.0000000000
     38179      1231  AGLC      C3             38.4882464217      -41.7769722663       37.9903802326  LPSA35    7               4.0000000000
     38180      1231  AGLC      H3             38.5987799205      -42.8145590498       37.6727250444  LPSA35    7               4.0000000000
     38181      1231  AGLC      O3             38.7607440168      -41.8293703421       39.4204481292  LPSA35    7               4.0000000000
     38182      1231  AGLC      C4             37.1590617365      -41.2043298020       37.5928595998  LPSA35    7               4.0000000000
     38183      1231  AGLC      H4             37.0686974773      -40.1150318719       37.9560286200  LPSA35    7               4.0000000000
     38184      1231  AGLC      O4             36.1824145721      -42.0600177609       38.2243117391  LPSA35    7               4.0000000000
     38185      1231  AGLC      HO4            35.4715754103      -41.5971046875       38.6132003238  LPSA35    7               4.0000000000
     38186      1231  AGLC      C6             35.5365511786      -40.9598498444       35.5245160098  LPSA35    7               4.0000000000
     38187      1231  AGLC      H61            35.6093769744      -41.0809149052       34.4135318240  LPSA35    7               4.0000000000
     38188      1231  AGLC      H62            34.6472982741      -41.5278852238       35.8722646349  LPSA35    7               4.0000000000
     38189      1231  AGLC      O6             35.3851318557      -39.5170141455       35.6892983147  LPSA35    7               4.0000000000
     38190      1231  AGLC      HO6            34.8520049615      -39.5110876470       36.4386090630  LPSA35    7               4.0000000000
     38191      1232  AGLC      C1             39.0711822063      -43.0763590074       39.9328324507  LPSA35    8               5.0000000000
     38192      1232  AGLC      H1             38.3326446172      -43.8211795424       39.5884769495  LPSA35    8               5.0000000000
     38193      1232  AGLC      C5             41.5225317968      -42.8023975778       40.2153373402  LPSA35    8               5.0000000000
     38194      1232  AGLC      H5             41.4238438951      -41.7766088865       39.8400606936  LPSA35    8               5.0000000000
     38195      1232  AGLC      O5             40.4260822318      -43.5485324701       39.6195505863  LPSA35    8               5.0000000000
     38196      1232  AGLC      C2             38.9638377562      -43.0826060392       41.4170311384  LPSA35    8               5.0000000000
     38197      1232  AGLC      H2             39.0656295245      -44.1660214035       41.6529594578  LPSA35    8               5.0000000000
     38198      1232  AGLC      O2             37.6721951435      -42.8015139096       41.9438754185  LPSA35    8               5.0000000000
     38199      1232  AGLC      C3             40.0099687173      -42.3040724751       42.1297388169  LPSA35    8               5.0000000000
     38200      1232  AGLC      H3             39.8167273869      -41.2926771185       41.6567950186  LPSA35    8               5.0000000000
     38201      1232  AGLC      O3             39.7428810979      -42.2890782066       43.5370978028  LPSA35    8               5.0000000000
     38202      1232  AGLC      C4             41.2994284903      -42.8705593114       41.7603093222  LPSA35    8               5.0000000000
     38203      1232  AGLC      H4             41.3567473489      -43.9061767160       42.0401368658  LPSA35    8               5.0000000000
     38204      1232  AGLC      O4             42.3528287385      -42.1813496076       42.3914819843  LPSA35    8               5.0000000000
     38205      1232  AGLC      HO4            42.1541626030      -41.2771418815       42.3800652601  LPSA35    8               5.0000000000
     38206      1232  AGLC      C6             42.9453810428      -43.1746590531       39.7357334439  LPSA35    8               5.0000000000
     38207      1232  AGLC      H61            43.0339549277      -43.3001210674       38.6468043611  LPSA35    8               5.0000000000
     38208      1232  AGLC      H62            43.7158687854      -42.4855672622       40.0276014644  LPSA35    8               5.0000000000
     38209      1232  AGLC      O6             43.4500778946      -44.3470347890       40.3040784562  LPSA35    8               5.0000000000
     38210      1232  AGLC      HO6            43.7835301886      -44.2077276853       41.2121845210  LPSA35    8               5.0000000000
     38211      1233  AGAL      C1             36.5644108141      -43.4970752828       41.4573847493  LPSA35    9               6.0000000000
     38212      1233  AGAL      H1             36.5935258199      -43.5353384029       40.3420235153  LPSA35    9               6.0000000000
     38213      1233  AGAL      C5             36.1899705492      -44.9857545699       43.2125447641  LPSA35    9               6.0000000000
     38214      1233  AGAL      H5             36.9646547681      -44.3046510790       43.7424973645  LPSA35    9               6.0000000000
     38215      1233  AGAL      O5             36.4058889058      -44.8968181599       41.8451689838  LPSA35    9               6.0000000000
     38216      1233  AGAL      C2             35.3249517690      -42.7321897449       41.8393925249  LPSA35    9               6.0000000000
     38217      1233  AGAL      H2             34.4614054233      -43.2210293449       41.4115621152  LPSA35    9               6.0000000000
     38218      1233  AGAL      O2             35.2408454878      -41.4648330045       41.1608705954  LPSA35    9               6.0000000000
     38219      1233  AGAL      C3             35.0550205833      -42.8059335899       43.3264191845  LPSA35    9               6.0000000000
     38220      1233  AGAL      H3             35.8990352694      -42.2677584725       43.9424563891  LPSA35    9               6.0000000000
     38221      1233  AGAL      O3             33.9714746696      -42.0341328687       43.7491515633  LPSA35    9               6.0000000000
     38222      1233  AGAL      HO3            33.9479983302      -41.2669258571       43.1585960960  LPSA35    9               6.0000000000
     38223      1233  AGAL      C4             34.9208834154      -44.2396634489       43.6505755014  LPSA35    9               6.0000000000
     38224      1233  AGAL      H4             34.8212714732      -44.4332774025       44.7734818408  LPSA35    9               6.0000000000
     38225      1233  AGAL      O4             33.8396072523      -44.8830527458       43.0499075873  LPSA35    9               6.0000000000
     38226      1233  AGAL      HO4            33.5623437424      -45.5820620477       43.6622427513  LPSA35    9               6.0000000000
     38227      1233  AGAL      C6             36.4827936448      -46.3517184567       43.8349081587  LPSA35    9               6.0000000000
     38228      1233  AGAL      H61            37.5239159847      -46.7181625904       43.6417203355  LPSA35    9               6.0000000000
     38229      1233  AGAL      H62            36.4130234284      -46.3819399097       44.9292747136  LPSA35    9               6.0000000000
     38230      1233  AGAL      O6             35.5678577640      -47.3146691401       43.4062227539  LPSA35    9               6.0000000000
     38231      1233  AGAL      HO6            36.0007738007      -47.8182423924       42.6923548993  LPSA35    9               6.0000000000
     38232      1234  AGAL      C1             34.9634654285      -40.1734505390       41.7517281777  LPSA35    10              7.0000000000
     38233      1234  AGAL      H1             33.8689354141      -40.1730118859       41.8429972083  LPSA35    10              7.0000000000
     38234      1234  AGAL      C5             36.9220504843      -39.6842986376       43.0613392294  LPSA35    10              7.0000000000
     38235      1234  AGAL      H5             37.3406234848      -40.6950519671       42.6233508762  LPSA35    10              7.0000000000
     38236      1234  AGAL      O5             35.4839245617      -39.7654221153       43.0470213554  LPSA35    10              7.0000000000
     38237      1234  AGAL      C2             35.4198274008      -39.1228445059       40.7227968417  LPSA35    10              7.0000000000
     38238      1234  AGAL      H2             34.8920217142      -38.1427742477       41.0433947026  LPSA35    10              7.0000000000
     38239      1234  AGAL      O2             34.7255091210      -39.1764535324       39.5532095562  LPSA35    10              7.0000000000
     38240      1234  AGAL      HO2            34.3499087405      -38.3314288245       39.3379401176  LPSA35    10              7.0000000000
     38241      1234  AGAL      C3             36.8993523467      -38.9775038493       40.6928251787  LPSA35    10              7.0000000000
     38242      1234  AGAL      H3             37.2444335599      -39.9846211799       40.4679648945  LPSA35    10              7.0000000000
     38243      1234  AGAL      O3             37.3907956347      -38.0491401240       39.7732034444  LPSA35    10              7.0000000000
     38244      1234  AGAL      HO3            37.7776106144      -38.5530233503       39.0151094934  LPSA35    10              7.0000000000
     38245      1234  AGAL      C4             37.3795433286      -38.6000403642       42.0524071915  LPSA35    10              7.0000000000
     38246      1234  AGAL      H4             38.4850701415      -38.5843669381       42.1099272557  LPSA35    10              7.0000000000
     38247      1234  AGAL      O4             36.9294442371      -37.3532698346       42.4965010455  LPSA35    10              7.0000000000
     38248      1234  AGAL      HO4            35.9982537204      -37.4631054672       42.5675127347  LPSA35    10              7.0000000000
     38249      1234  AGAL      C6             37.5819960528      -39.5469730372       44.3959537205  LPSA35    10              7.0000000000
     38250      1234  AGAL      H61            37.2381204667      -40.2943619584       45.1044438806  LPSA35    10              7.0000000000
     38251      1234  AGAL      H62            38.7411504137      -39.8016194622       44.2564473849  LPSA35    10              7.0000000000
     38252      1234  AGAL      O6             37.5299682547      -38.2944439322       45.1112340130  LPSA35    10              7.0000000000
     38253      1234  AGAL      HO6            37.0110981835      -38.4365938435       45.9237589285  LPSA35    10              7.0000000000
     38254      1235  BGLC      C1             40.2865940155      -43.1717738715       44.5018065681  LPSA35    11              6.0000000000
     38255      1235  BGLC      H1             41.3027191768      -42.8163911355       44.5883763758  LPSA35    11              6.0000000000
     38256      1235  BGLC      C5             40.6836053758      -45.5660495603       45.1248117688  LPSA35    11              6.0000000000
     38257      1235  BGLC      H5             41.7868300512      -45.4003110455       45.3871201921  LPSA35    11              6.0000000000
     38258      1235  BGLC      O5             40.1490615160      -44.5879734378       44.0830650888  LPSA35    11              6.0000000000
     38259      1235  BGLC      C2             39.5338774081      -43.0088243271       45.7977571702  LPSA35    11              6.0000000000
     38260      1235  BGLC      H2             38.4283458905      -43.1694022953       45.7293388291  LPSA35    11              6.0000000000
     38261      1235  BGLC      O2             39.6251952919      -41.6217697943       46.0886391483  LPSA35    11              6.0000000000
     38262      1235  BGLC      HO2            38.7669769560      -41.2948958831       46.2788110113  LPSA35    11              6.0000000000
     38263      1235  BGLC      C3             39.9785621916      -43.9100950583       46.8736276645  LPSA35    11              6.0000000000
     38264      1235  BGLC      H3             41.0569787049      -43.5912282037       47.1984917368  LPSA35    11              6.0000000000
     38265      1235  BGLC      O3             39.1497011479      -43.6726927227       48.0056213318  LPSA35    11              6.0000000000
     38266      1235  BGLC      C4             39.8921006698      -45.2887855790       46.4390836423  LPSA35    11              6.0000000000
     38267      1235  BGLC      H4             38.7905100791      -45.4727588116       46.2001611147  LPSA35    11              6.0000000000
     38268      1235  BGLC      O4             40.2237034089      -46.1967001956       47.4766894645  LPSA35    11              6.0000000000
     38269      1235  BGLC      HO4            39.5094295720      -46.1840491478       48.1247908570  LPSA35    11              6.0000000000
     38270      1235  BGLC      C6             40.6817225713      -46.9845185665       44.5291127165  LPSA35    11              6.0000000000
     38271      1235  BGLC      H61            40.7263446907      -47.7912270045       45.2481190913  LPSA35    11              6.0000000000
     38272      1235  BGLC      H62            39.7661628895      -47.0640633632       43.8913252379  LPSA35    11              6.0000000000
     38273      1235  BGLC      O6             41.7381811542      -47.2395322304       43.5637942269  LPSA35    11              6.0000000000
     38274      1235  BGLC      HO6            42.2747274799      -47.8547771732       44.0054369298  LPSA35    11              6.0000000000
     38275      1236  BGLCNA    C1             39.6807457498      -43.4056687193       49.3238540420  LPSA35    12              7.0000000000
     38276      1236  BGLCNA    H1             39.8755902504      -42.2821826758       49.3874222992  LPSA35    12              7.0000000000
     38277      1236  BGLCNA    C5             41.4743491400      -43.7511376581       50.8763077070  LPSA35    12              7.0000000000
     38278      1236  BGLCNA    H5             41.6789855848      -42.5925900773       50.9814236466  LPSA35    12              7.0000000000
     38279      1236  BGLCNA    O5             40.9140744839      -44.1113331650       49.5875345322  LPSA35    12              7.0000000000
     38280      1236  BGLCNA    C2             38.6593848594      -43.8337503301       50.3245054808  LPSA35    12              7.0000000000
     38281      1236  BGLCNA    H2             38.6805855160      -45.0053711445       50.3375086743  LPSA35    12              7.0000000000
     38282      1236  BGLCNA    N              37.3567787984      -43.2032416372       50.0347611965  LPSA35    12              7.0000000000
     38283      1236  BGLCNA    HN             37.4843372664      -42.2679059953       49.9972643287  LPSA35    12              7.0000000000
     38284      1236  BGLCNA    C              36.2833392141      -43.9192607330       49.8903426450  LPSA35    12              7.0000000000
     38285      1236  BGLCNA    O              36.3249290512      -45.1257953125       50.0855928044  LPSA35    12              7.0000000000
     38286      1236  BGLCNA    CT             35.0180746705      -43.1841230431       49.5677689528  LPSA35    12              7.0000000000
     38287      1236  BGLCNA    HT1            34.2837900758      -43.2344539257       50.3918503408  LPSA35    12              7.0000000000
     38288      1236  BGLCNA    HT2            34.4369191088      -43.7488454279       48.7104760971  LPSA35    12              7.0000000000
     38289      1236  BGLCNA    HT3            35.3206185960      -42.1615251698       49.2316245990  LPSA35    12              7.0000000000
     38290      1236  BGLCNA    C3             39.0985245957      -43.5017271359       51.6995695120  LPSA35    12              7.0000000000
     38291      1236  BGLCNA    H3             39.1742911080      -42.3292541597       51.8605307917  LPSA35    12              7.0000000000
     38292      1236  BGLCNA    O3             38.1292927818      -43.8455350177       52.7272334264  LPSA35    12              7.0000000000
     38293      1236  BGLCNA    C4             40.4074084701      -44.1770083109       51.9591692987  LPSA35    12              7.0000000000
     38294      1236  BGLCNA    H4             40.3690067739      -45.3302390346       51.9037868612  LPSA35    12              7.0000000000
     38295      1236  BGLCNA    O4             40.8943595444      -43.8976831448       53.2294962294  LPSA35    12              7.0000000000
     38296      1236  BGLCNA    HO4            41.2742807263      -42.9724496915       53.2834945119  LPSA35    12              7.0000000000
     38297      1236  BGLCNA    C6             42.8682308565      -44.4065618255       50.9528560558  LPSA35    12              7.0000000000
     38298      1236  BGLCNA    H61            43.3004936341      -44.2524479270       51.9144325068  LPSA35    12              7.0000000000
     38299      1236  BGLCNA    H62            42.6494255443      -45.4614095975       50.8287962869  LPSA35    12              7.0000000000
     38300      1236  BGLCNA    O6             43.6579065847      -44.0109802902       49.8597561973  LPSA35    12              7.0000000000
     38301      1236  BGLCNA    HO6            44.0941321901      -43.2375800175       50.1903398796  LPSA35    12              7.0000000000
     38302      1237  AGAL      C1             37.9665470215      -42.8771733524       53.8132743488  LPSA35    13              8.0000000000
     38303      1237  AGAL      H1             38.9701936602      -42.5862225152       54.1959401301  LPSA35    13              8.0000000000
     38304      1237  AGAL      C5             35.6961087973      -42.2561151102       53.2950732168  LPSA35    13              8.0000000000
     38305      1237  AGAL      H5             35.7605178393      -43.0592058449       52.5641412600  LPSA35    13              8.0000000000
     38306      1237  AGAL      O5             37.0374468854      -41.7814044572       53.4918445955  LPSA35    13              8.0000000000
     38307      1237  AGAL      C2             37.3383357685      -43.4780033516       55.1010141246  LPSA35    13              8.0000000000
     38308      1237  AGAL      H2             37.0935055307      -42.6462807729       55.7917211299  LPSA35    13              8.0000000000
     38309      1237  AGAL      O2             38.2149342812      -44.3602785560       55.7701983428  LPSA35    13              8.0000000000
     38310      1237  AGAL      C3             35.8872665552      -43.9770112721       54.8979691660  LPSA35    13              8.0000000000
     38311      1237  AGAL      H3             35.8754291127      -44.6515514124       54.0477453328  LPSA35    13              8.0000000000
     38312      1237  AGAL      O3             35.4209081539      -44.7853875988       55.9888739531  LPSA35    13              8.0000000000
     38313      1237  AGAL      HO3            34.9042247739      -45.5246268428       55.6848713412  LPSA35    13              8.0000000000
     38314      1237  AGAL      C4             35.0383469497      -42.8922705977       54.5514025965  LPSA35    13              8.0000000000
     38315      1237  AGAL      H4             34.0050319585      -43.2690076103       54.1954731349  LPSA35    13              8.0000000000
     38316      1237  AGAL      O4             34.8901921836      -41.9318362265       55.5743212917  LPSA35    13              8.0000000000
     38317      1237  AGAL      HO4            35.6920649288      -41.6690497236       56.0499681296  LPSA35    13              8.0000000000
     38318      1237  AGAL      C6             34.7792301165      -41.3218339002       52.5301443486  LPSA35    13              8.0000000000
     38319      1237  AGAL      H61            35.2899728181      -40.9639134834       51.6253596531  LPSA35    13              8.0000000000
     38320      1237  AGAL      H62            33.8050767169      -41.8470093706       52.3684678279  LPSA35    13              8.0000000000
     38321      1237  AGAL      O6             34.4535489486      -40.1819032270       53.2985910507  LPSA35    13              8.0000000000
     38322      1237  AGAL      HO6            33.7583685073      -40.4245318228       53.9299633642  LPSA35    13              8.0000000000
     38323      1238  ARHM      C1             38.7575808753      -44.0096151089       57.0117786358  LPSA35    14              9.0000000000
     38324      1238  ARHM      H1             38.7934132048      -42.9005011486       56.9981767125  LPSA35    14              9.0000000000
     38325      1238  ARHM      C5             40.1430123009      -45.8715799631       57.1930138837  LPSA35    14              9.0000000000
     38326      1238  ARHM      H5             39.6885868734      -46.2381249572       56.1976867078  LPSA35    14              9.0000000000
     38327      1238  ARHM      O5             40.0813170097      -44.4943670935       57.1718909996  LPSA35    14              9.0000000000
     38328      1238  ARHM      C2             37.8536070390      -44.5504389111       58.1413490634  LPSA35    14              9.0000000000
     38329      1238  ARHM      H2             36.8682843853      -44.1804368571       57.8875987320  LPSA35    14              9.0000000000
     38330      1238  ARHM      O2             38.2277394847      -44.1790363921       59.4330148990  LPSA35    14              9.0000000000
     38331      1238  ARHM      C3             37.8767699389      -46.0512648373       58.1095432995  LPSA35    14              9.0000000000
     38332      1238  ARHM      H3             37.6867679297      -46.3754708393       57.0440121713  LPSA35    14              9.0000000000
     38333      1238  ARHM      O3             36.8753168919      -46.6702293468       58.8567888868  LPSA35    14              9.0000000000
     38334      1238  ARHM      HO3            37.1586930631      -46.5588190867       59.8104957846  LPSA35    14              9.0000000000
     38335      1238  ARHM      C4             39.2839714800      -46.4634009378       58.3490442956  LPSA35    14              9.0000000000
     38336      1238  ARHM      H4             39.7585745580      -46.0990598269       59.2902338481  LPSA35    14              9.0000000000
     38337      1238  ARHM      O4             39.3443103967      -47.9132099585       58.4446785014  LPSA35    14              9.0000000000
     38338      1238  ARHM      HO4            39.5756278391      -48.2787238888       59.2969967688  LPSA35    14              9.0000000000
     38339      1238  ARHM      C6             41.6106176566      -46.3283416180       57.2492155848  LPSA35    14              9.0000000000
     38340      1238  ARHM      H61            42.3136049390      -45.7693593586       56.5358243550  LPSA35    14              9.0000000000
     38341      1238  ARHM      H62            41.9016260145      -46.2580008915       58.3170764683  LPSA35    14              9.0000000000
     38342      1238  ARHM      H63            41.8720273315      -47.3438061994       56.9421594120  LPSA35    14              9.0000000000
     38343      1239  ARHM      C1             38.4550018091      -42.8909035449       59.7267990175  LPSA35    15             10.0000000000
     38344      1239  ARHM      H1             37.8928378784      -42.2159470007       59.0458905905  LPSA35    15             10.0000000000
     38345      1239  ARHM      C5             40.7485907203      -43.1364942836       60.6468530148  LPSA35    15             10.0000000000
     38346      1239  ARHM      H5             40.8627101529      -44.2480962655       60.4457705401  LPSA35    15             10.0000000000
     38347      1239  ARHM      O5             39.8550058121      -42.5190899256       59.6688136410  LPSA35    15             10.0000000000
     38348      1239  ARHM      C2             37.9593873283      -42.5952110363       61.1407671534  LPSA35    15             10.0000000000
     38349      1239  ARHM      H2             36.8790431592      -42.9996554189       61.2133420761  LPSA35    15             10.0000000000
     38350      1239  ARHM      O2             38.0224439545      -41.1496888808       61.3234079317  LPSA35    15             10.0000000000
     38351      1239  ARHM      C3             38.8176747737      -43.3351817668       62.1677656617  LPSA35    15             10.0000000000
     38352      1239  ARHM      H3             38.8108732126      -44.4186066024       61.8628392879  LPSA35    15             10.0000000000
     38353      1239  ARHM      O3             38.0654283990      -43.2786764910       63.4092175029  LPSA35    15             10.0000000000
     38354      1239  ARHM      C4             40.1852548682      -42.8613273964       62.0487117432  LPSA35    15             10.0000000000
     38355      1239  ARHM      H4             40.1772694280      -41.7027323436       62.1496903561  LPSA35    15             10.0000000000
     38356      1239  ARHM      O4             41.1551147998      -43.3787008569       62.9635513464  LPSA35    15             10.0000000000
     38357      1239  ARHM      HO4            41.9017758154      -42.7989113383       62.9565205260  LPSA35    15             10.0000000000
     38358      1239  ARHM      C6             42.1491864072      -42.6050747470       60.4460959132  LPSA35    15             10.0000000000
     38359      1239  ARHM      H61            42.9282080229      -43.0852585831       61.0956562646  LPSA35    15             10.0000000000
     38360      1239  ARHM      H62            42.3781027100      -42.5719147868       59.3910198679  LPSA35    15             10.0000000000
     38361      1239  ARHM      H63            42.2714894699      -41.5639200560       60.8578185328  LPSA35    15             10.0000000000
     38362      1240  BMANNA    C1             37.5180534430      -40.5666665438       62.5145562334  LPSA35    16             11.0000000000
     38363      1240  BMANNA    H1             38.2752473321      -40.8308687634       63.3432051365  LPSA35    16             11.0000000000
     38364      1240  BMANNA    C5             35.8684038976      -40.4359342165       64.1851548173  LPSA35    16             11.0000000000
     38365      1240  BMANNA    H5             36.5986942603      -40.6362317776       64.9800677769  LPSA35    16             11.0000000000
     38366      1240  BMANNA    O5             36.2366176985      -41.0367540309       62.9158851071  LPSA35    16             11.0000000000
     38367      1240  BMANNA    C2             37.4950789517      -39.0384338861       62.2781089586  LPSA35    16             11.0000000000
     38368      1240  BMANNA    H2             38.5496948035      -38.7864471264       61.9912908466  LPSA35    16             11.0000000000
     38369      1240  BMANNA    N              36.6219876961      -38.5093471089       61.2264456342  LPSA35    16             11.0000000000
     38370      1240  BMANNA    HN             35.7328951825      -38.3120876592       61.5688724990  LPSA35    16             11.0000000000
     38371      1240  BMANNA    C              36.9622393120      -38.3588838433       59.9704010620  LPSA35    16             11.0000000000
     38372      1240  BMANNA    O              38.1315423869      -38.5920223501       59.5582221915  LPSA35    16             11.0000000000
     38373      1240  BMANNA    CT             35.8731507389      -37.8833220591       59.1331689300  LPSA35    16             11.0000000000
     38374      1240  BMANNA    HT1            35.9247736925      -36.8480390706       58.8344492748  LPSA35    16             11.0000000000
     38375      1240  BMANNA    HT2            34.8605653546      -38.0383758702       59.5043001239  LPSA35    16             11.0000000000
     38376      1240  BMANNA    HT3            35.8772663928      -38.4071133847       58.1231520073  LPSA35    16             11.0000000000
     38377      1240  BMANNA    C3             37.1510917558      -38.4242493110       63.6119771117  LPSA35    16             11.0000000000
     38378      1240  BMANNA    H3             37.9050414258      -38.7290637748       64.3839812837  LPSA35    16             11.0000000000
     38379      1240  BMANNA    O3             37.1927664039      -37.0263029612       63.6122488842  LPSA35    16             11.0000000000
     38380      1240  BMANNA    HO3            37.7676322788      -36.7066774450       64.2950500102  LPSA35    16             11.0000000000
     38381      1240  BMANNA    C4             35.7783283683      -38.8997401291       64.1045846713  LPSA35    16             11.0000000000
     38382      1240  BMANNA    H4             34.9650905119      -38.6092527694       63.4124605202  LPSA35    16             11.0000000000
     38383      1240  BMANNA    O4             35.3329308931      -38.4077372129       65.3816866120  LPSA35    16             11.0000000000
     38384      1240  BMANNA    HO4            34.3787400075      -38.4377005566       65.4353184152  LPSA35    16             11.0000000000
     38385      1240  BMANNA    C6             34.5570894943      -41.0043049820       64.7427751243  LPSA35    16             11.0000000000
     38386      1240  BMANNA    H61            34.6270843581      -40.9497243344       65.8875394407  LPSA35    16             11.0000000000
     38387      1240  BMANNA    H62            33.7002508439      -40.3991809085       64.4389269682  LPSA35    16             11.0000000000
     38388      1240  BMANNA    O6             34.2971045530      -42.3712275629       64.3660927576  LPSA35    16             11.0000000000
     38389      1240  BMANNA    HO6            33.4340701859      -42.2865819761       63.9036969990  LPSA35    16             11.0000000000
     38390      1241  BGLCNA    C1             38.1176613937      -44.3878297894       64.1715778089  LPSA35    17             11.0000000000
     38391      1241  BGLCNA    H1             39.0959001768      -44.9616119486       63.9082176002  LPSA35    17             11.0000000000
     38392      1241  BGLCNA    C5             37.0661469613      -46.5598949248       64.5563394407  LPSA35    17             11.0000000000
     38393      1241  BGLCNA    H5             38.0087731432      -47.1664961424       64.2825289487  LPSA35    17             11.0000000000
     38394      1241  BGLCNA    O5             37.0939474578      -45.3494378528       63.7849982893  LPSA35    17             11.0000000000
     38395      1241  BGLCNA    C2             37.9806745931      -43.9707993288       65.5899343931  LPSA35    17             11.0000000000
     38396      1241  BGLCNA    H2             37.0000475445      -43.4345198396       65.8249043900  LPSA35    17             11.0000000000
     38397      1241  BGLCNA    N              38.9212585442      -42.9668269222       65.8849826081  LPSA35    17             11.0000000000
     38398      1241  BGLCNA    HN             39.8235526198      -42.9953191485       65.4150135415  LPSA35    17             11.0000000000
     38399      1241  BGLCNA    C              38.8933514228      -42.0184491297       66.8043620798  LPSA35    17             11.0000000000
     38400      1241  BGLCNA    O              37.8914226437      -41.7940519469       67.4729873017  LPSA35    17             11.0000000000
     38401      1241  BGLCNA    CT             40.1403886387      -41.2367118629       66.9728872304  LPSA35    17             11.0000000000
     38402      1241  BGLCNA    HT1            40.2131254514      -40.2171632983       66.5529393721  LPSA35    17             11.0000000000
     38403      1241  BGLCNA    HT2            40.9856053305      -41.8995285891       66.7043805047  LPSA35    17             11.0000000000
     38404      1241  BGLCNA    HT3            40.3537656359      -41.0650990482       68.1408097225  LPSA35    17             11.0000000000
     38405      1241  BGLCNA    C3             38.0724929742      -45.2396517630       66.4076579941  LPSA35    17             11.0000000000
     38406      1241  BGLCNA    H3             39.0649209871      -45.6707737688       66.0441361901  LPSA35    17             11.0000000000
     38407      1241  BGLCNA    O3             38.2158218410      -44.8460660487       67.8205355914  LPSA35    17             11.0000000000
     38408      1241  BGLCNA    C4             36.8984735601      -46.1402138619       66.0496966154  LPSA35    17             11.0000000000
     38409      1241  BGLCNA    H4             35.9022340156      -45.5771611658       66.1123142204  LPSA35    17             11.0000000000
     38410      1241  BGLCNA    O4             36.7832703128      -47.2487103916       66.9186044206  LPSA35    17             11.0000000000
     38411      1241  BGLCNA    HO4            36.0875627612      -47.8639872968       66.7204061560  LPSA35    17             11.0000000000
     38412      1241  BGLCNA    C6             35.8664743233      -47.4236469388       64.1200051697  LPSA35    17             11.0000000000
     38413      1241  BGLCNA    H61            36.1386265998      -48.4611237440       64.1272946536  LPSA35    17             11.0000000000
     38414      1241  BGLCNA    H62            34.9859526453      -47.2897152573       64.8212395067  LPSA35    17             11.0000000000
     38415      1241  BGLCNA    O6             35.4208315557      -47.1129800608       62.7926115083  LPSA35    17             11.0000000000
     38416      1241  BGLCNA    HO6            36.1388441898      -47.2534727586       62.1856770532  LPSA35    17             11.0000000000
     38417      1242  AGAL      C1             39.0759904857      -45.6974709756       68.6198653987  LPSA35    18             12.0000000000
     38418      1242  AGAL      H1             38.5108772674      -46.6579579765       68.8082567594  LPSA35    18             12.0000000000
     38419      1242  AGAL      C5             41.1742510888      -44.8069551223       67.8636918791  LPSA35    18             12.0000000000
     38420      1242  AGAL      H5             40.5883805158      -44.0043484515       67.4068928888  LPSA35    18             12.0000000000
     38421      1242  AGAL      O5             40.3012358089      -45.9876448275       67.9834320655  LPSA35    18             12.0000000000
     38422      1242  AGAL      C2             39.4456801922      -45.0321188051       70.0000206359  LPSA35    18             12.0000000000
     38423      1242  AGAL      H2             40.1104038279      -45.8365535284       70.3908489884  LPSA35    18             12.0000000000
     38424      1242  AGAL      O2             38.3356720774      -44.9979636710       70.8342757016  LPSA35    18             12.0000000000
     38425      1242  AGAL      C3             40.2955321206      -43.8165125921       69.8682924558  LPSA35    18             12.0000000000
     38426      1242  AGAL      H3             39.7928328643      -43.1037858783       69.0958348126  LPSA35    18             12.0000000000
     38427      1242  AGAL      O3             40.4484682151      -43.1333934152       71.0758896640  LPSA35    18             12.0000000000
     38428      1242  AGAL      HO3            40.3146671784      -42.1900775554       70.9682873819  LPSA35    18             12.0000000000
     38429      1242  AGAL      C4             41.5399696727      -44.1770967289       69.1634745928  LPSA35    18             12.0000000000
     38430      1242  AGAL      H4             42.2161083324      -43.3288559133       68.9039691178  LPSA35    18             12.0000000000
     38431      1242  AGAL      O4             42.3435816058      -45.0746191932       69.9734134928  LPSA35    18             12.0000000000
     38432      1242  AGAL      HO4            42.7811951941      -44.5406276776       70.7236544006  LPSA35    18             12.0000000000
     38433      1242  AGAL      C6             42.1449526470      -45.0859048613       66.8042742825  LPSA35    18             12.0000000000
     38434      1242  AGAL      H61            41.5723066042      -45.2364928263       65.8877991861  LPSA35    18             12.0000000000
     38435      1242  AGAL      H62            42.7301005902      -44.1389168353       66.6499463921  LPSA35    18             12.0000000000
     38436      1242  AGAL      O6             42.9210470683      -46.1578226209       66.9803033045  LPSA35    18             12.0000000000
     38437      1242  AGAL      HO6            42.6837714005      -46.7683870169       67.6707071977  LPSA35    18             12.0000000000
     38438      1243  ARHM      C1             38.7157489896      -45.3824467207       72.1803514454  LPSA35    19             13.0000000000
     38439      1243  ARHM      H1             39.7726144309      -45.2726351193       72.3185909119  LPSA35    19             13.0000000000
     38440      1243  ARHM      C5             37.2470219126      -47.2428404961       72.2512180912  LPSA35    19             13.0000000000
     38441      1243  ARHM      H5             36.9375056499      -46.9555239009       71.2133247196  LPSA35    19             13.0000000000
     38442      1243  ARHM      O5             38.5926552389      -46.7922779386       72.4162684983  LPSA35    19             13.0000000000
     38443      1243  ARHM      C2             37.8723432671      -44.5910094543       73.1100514097  LPSA35    19             13.0000000000
     38444      1243  ARHM      H2             37.8524625580      -43.5450094405       72.9420985559  LPSA35    19             13.0000000000
     38445      1243  ARHM      O2             38.2930401021      -44.8025940943       74.4131644751  LPSA35    19             13.0000000000
     38446      1243  ARHM      C3             36.4069144071      -45.1118200937       72.9859276785  LPSA35    19             13.0000000000
     38447      1243  ARHM      H3             36.1128141563      -44.9853882018       71.9471750908  LPSA35    19             13.0000000000
     38448      1243  ARHM      O3             35.5428632322      -44.3655972413       73.7644258584  LPSA35    19             13.0000000000
     38449      1243  ARHM      HO3            35.9290100379      -44.3240501969       74.6464134549  LPSA35    19             13.0000000000
     38450      1243  ARHM      C4             36.2838377466      -46.5540462438       73.2443334127  LPSA35    19             13.0000000000
     38451      1243  ARHM      H4             36.6423538185      -46.7057556406       74.2703943704  LPSA35    19             13.0000000000
     38452      1243  ARHM      O4             34.9907524779      -47.0663628104       73.1708570575  LPSA35    19             13.0000000000
     38453      1243  ARHM      HO4            34.7137101414      -46.9618135661       72.2126258713  LPSA35    19             13.0000000000
     38454      1243  ARHM      C6             37.1603402281      -48.7788240995       72.3031700958  LPSA35    19             13.0000000000
     38455      1243  ARHM      H61            37.8505772875      -49.0454495843       71.5186681997  LPSA35    19             13.0000000000
     38456      1243  ARHM      H62            37.4838739123      -49.2557725844       73.2001761489  LPSA35    19             13.0000000000
     38457      1243  ARHM      H63            36.1605485933      -49.1661365233       72.0875448643  LPSA35    19             13.0000000000
     38458      1244  ARHM      C1             39.4623367349      -44.1080137308       74.6981797177  LPSA35    20             14.0000000000
     38459      1244  ARHM      H1             39.7301745328      -43.3479508523       73.8936196974  LPSA35    20             14.0000000000
     38460      1244  ARHM      C5             40.6012663420      -45.7699114458       75.9960310464  LPSA35    20             14.0000000000
     38461      1244  ARHM      H5             39.6805970886      -46.3790887823       75.8071112250  LPSA35    20             14.0000000000
     38462      1244  ARHM      O5             40.6511044998      -44.8799371458       74.8741575474  LPSA35    20             14.0000000000
     38463      1244  ARHM      C2             39.2560565667      -43.2495073297       75.9438944127  LPSA35    20             14.0000000000
     38464      1244  ARHM      H2             38.2405925163      -42.6918246866       75.7904987900  LPSA35    20             14.0000000000
     38465      1244  ARHM      O2             40.3408879983      -42.3327061760       76.2145535291  LPSA35    20             14.0000000000
     38466      1244  ARHM      C3             39.2017834591      -44.1839652409       77.0746584307  LPSA35    20             14.0000000000
     38467      1244  ARHM      H3             38.3092692635      -44.9040646012       76.9570890266  LPSA35    20             14.0000000000
     38468      1244  ARHM      O3             38.9063774167      -43.3785449904       78.2431898216  LPSA35    20             14.0000000000
     38469      1244  ARHM      C4             40.4456940925      -44.9958605694       77.2147849866  LPSA35    20             14.0000000000
     38470      1244  ARHM      H4             41.3304935609      -44.3976312881       77.2882629629  LPSA35    20             14.0000000000
     38471      1244  ARHM      O4             40.3607211583      -45.7768786802       78.4294019453  LPSA35    20             14.0000000000
     38472      1244  ARHM      HO4            40.8709905733      -46.4772115603       78.0714846557  LPSA35    20             14.0000000000
     38473      1244  ARHM      C6             41.7703216868      -46.6636478979       75.9818768401  LPSA35    20             14.0000000000
     38474      1244  ARHM      H61            42.8093025072      -46.2213755715       76.0487105533  LPSA35    20             14.0000000000
     38475      1244  ARHM      H62            41.6628676871      -47.4323886272       76.7492574554  LPSA35    20             14.0000000000
     38476      1244  ARHM      H63            41.8952919494      -47.2592041453       75.0059134709  LPSA35    20             14.0000000000
     38477      1245  BMANNA    C1             40.0913882127      -41.2093988435       75.4501725836  LPSA35    21             15.0000000000
     38478      1245  BMANNA    H1             39.2687784498      -41.4047608961       74.6495731600  LPSA35    21             15.0000000000
     38479      1245  BMANNA    C5             40.8384200221      -39.8346733178       73.6578092950  LPSA35    21             15.0000000000
     38480      1245  BMANNA    H5             39.8482570885      -39.9776334040       73.0422409194  LPSA35    21             15.0000000000
     38481      1245  BMANNA    O5             41.2174665800      -40.9415749366       74.5460975074  LPSA35    21             15.0000000000
     38482      1245  BMANNA    C2             39.8110868507      -40.0320875694       76.3268603500  LPSA35    21             15.0000000000
     38483      1245  BMANNA    H2             38.9270955047      -40.3768856140       76.8663433126  LPSA35    21             15.0000000000
     38484      1245  BMANNA    N              40.9034736013      -39.7703549152       77.2602735953  LPSA35    21             15.0000000000
     38485      1245  BMANNA    HN             41.7857409168      -39.6843026310       76.8630196157  LPSA35    21             15.0000000000
     38486      1245  BMANNA    C              40.7511844438      -39.3649489266       78.6142451918  LPSA35    21             15.0000000000
     38487      1245  BMANNA    O              39.6454152403      -39.0226916334       79.0340579138  LPSA35    21             15.0000000000
     38488      1245  BMANNA    CT             42.0069027996      -39.3096196206       79.5125915666  LPSA35    21             15.0000000000
     38489      1245  BMANNA    HT1            42.5432063787      -38.3547554250       79.3040814335  LPSA35    21             15.0000000000
     38490      1245  BMANNA    HT2            42.5697294446      -40.2386974357       79.3224353366  LPSA35    21             15.0000000000
     38491      1245  BMANNA    HT3            41.7055746388      -39.2975012284       80.6000991146  LPSA35    21             15.0000000000
     38492      1245  BMANNA    C3             39.4499055974      -38.8907401591       75.4428482744  LPSA35    21             15.0000000000
     38493      1245  BMANNA    H3             38.5314666851      -39.2608102307       75.0091666053  LPSA35    21             15.0000000000
     38494      1245  BMANNA    O3             39.1329397007      -37.7179087171       76.1769203835  LPSA35    21             15.0000000000
     38495      1245  BMANNA    HO3            39.8636818337      -37.5305190974       76.7354970047  LPSA35    21             15.0000000000
     38496      1245  BMANNA    C4             40.5758786604      -38.5919870151       74.4866217523  LPSA35    21             15.0000000000
     38497      1245  BMANNA    H4             41.5800849012      -38.1918330508       75.0002820064  LPSA35    21             15.0000000000
     38498      1245  BMANNA    O4             40.2700762683      -37.5412595064       73.6152290754  LPSA35    21             15.0000000000
     38499      1245  BMANNA    HO4            40.8595435663      -36.7703262613       73.7703874424  LPSA35    21             15.0000000000
     38500      1245  BMANNA    C6             41.8260409154      -39.6068142186       72.6348027846  LPSA35    21             15.0000000000
     38501      1245  BMANNA    H61            41.4942093610      -38.8962847187       71.8494922130  LPSA35    21             15.0000000000
     38502      1245  BMANNA    H62            42.6648524572      -38.9884362387       73.0558617198  LPSA35    21             15.0000000000
     38503      1245  BMANNA    O6             42.4376409747      -40.7247164914       72.0654385618  LPSA35    21             15.0000000000
     38504      1245  BMANNA    HO6            42.7891260511      -41.2567362914       72.7784055652  LPSA35    21             15.0000000000
     38505      1246  BGLCNA    C1             38.0597282338      -43.8625416260       79.2248726046  LPSA35    22             15.0000000000
     38506      1246  BGLCNA    H1             38.0030964731      -44.9893463473       79.2753119810  LPSA35    22             15.0000000000
     38507      1246  BGLCNA    C5             35.8273761478      -43.9939625468       80.1145289529  LPSA35    22             15.0000000000
     38508      1246  BGLCNA    H5             35.9585701776      -45.1566797480       80.0727605020  LPSA35    22             15.0000000000
     38509      1246  BGLCNA    O5             36.7276570400      -43.4642614859       79.0803056561  LPSA35    22             15.0000000000
     38510      1246  BGLCNA    C2             38.5638521853      -43.3796151156       80.5602818744  LPSA35    22             15.0000000000
     38511      1246  BGLCNA    H2             38.4679467057      -42.2405025144       80.4633107900  LPSA35    22             15.0000000000
     38512      1246  BGLCNA    N              39.9457551469      -43.7861999182       80.7025670875  LPSA35    22             15.0000000000
     38513      1246  BGLCNA    HN             40.1493315097      -44.7077524652       80.4501896382  LPSA35    22             15.0000000000
     38514      1246  BGLCNA    C              40.8720738729      -43.0907410836       81.3295640408  LPSA35    22             15.0000000000
     38515      1246  BGLCNA    O              40.6122864015      -41.9879133332       81.8448112003  LPSA35    22             15.0000000000
     38516      1246  BGLCNA    CT             42.2295016676      -43.6885337667       81.4359073222  LPSA35    22             15.0000000000
     38517      1246  BGLCNA    HT1            42.7067485501      -43.3198648637       80.5353412834  LPSA35    22             15.0000000000
     38518      1246  BGLCNA    HT2            42.1217987418      -44.7857212757       81.2752873926  LPSA35    22             15.0000000000
     38519      1246  BGLCNA    HT3            42.7354945345      -43.5488581910       82.3679651303  LPSA35    22             15.0000000000
     38520      1246  BGLCNA    C3             37.6834284344      -43.8731473602       81.6855161512  LPSA35    22             15.0000000000
     38521      1246  BGLCNA    H3             37.6635195857      -44.9910879766       81.6419517197  LPSA35    22             15.0000000000
     38522      1246  BGLCNA    O3             38.3275265304      -43.4693833392       82.8729300216  LPSA35    22             15.0000000000
     38523      1246  BGLCNA    C4             36.2344690383      -43.4247618927       81.4704242134  LPSA35    22             15.0000000000
     38524      1246  BGLCNA    H4             36.2677242052      -42.3685607462       81.4144045074  LPSA35    22             15.0000000000
     38525      1246  BGLCNA    O4             35.3735773473      -43.8239037065       82.5140850489  LPSA35    22             15.0000000000
     38526      1246  BGLCNA    HO4            34.7617348556      -43.0943046875       82.7130071916  LPSA35    22             15.0000000000
     38527      1246  BGLCNA    C6             34.4157711944      -43.5751135115       79.7284495560  LPSA35    22             15.0000000000
     38528      1246  BGLCNA    H61            33.8368933245      -43.6852151619       80.6924177192  LPSA35    22             15.0000000000
     38529      1246  BGLCNA    H62            34.3701901814      -42.4971559562       79.4648784538  LPSA35    22             15.0000000000
     38530      1246  BGLCNA    O6             33.7935053052      -44.4085627174       78.8100863794  LPSA35    22             15.0000000000
     38531      1246  BGLCNA    HO6            34.3272692269      -44.4452848617       78.0328486455  LPSA35    22             15.0000000000
     38532      1247  AGAL      C1             38.0342744542      -44.1067549209       84.0628261254  LPSA35    23             16.0000000000
     38533      1247  AGAL      H1             37.0562053407      -43.7768340871       84.5106287163  LPSA35    23             16.0000000000
     38534      1247  AGAL      C5             39.2954419103      -46.1035896053       83.7583018441  LPSA35    23             16.0000000000
     38535      1247  AGAL      H5             39.7597351908      -45.5896186007       82.8366412438  LPSA35    23             16.0000000000
     38536      1247  AGAL      O5             38.0276017241      -45.5364884306       83.9976212264  LPSA35    23             16.0000000000
     38537      1247  AGAL      C2             39.0191286478      -43.6990982995       85.1427633740  LPSA35    23             16.0000000000
     38538      1247  AGAL      H2             38.6973834130      -44.2328169636       86.0076373284  LPSA35    23             16.0000000000
     38539      1247  AGAL      O2             38.9499057606      -42.3394546119       85.5000844886  LPSA35    23             16.0000000000
     38540      1247  AGAL      C3             40.3901596494      -44.2371128161       84.9194901020  LPSA35    23             16.0000000000
     38541      1247  AGAL      H3             40.6629848851      -43.9269912999       83.8641570193  LPSA35    23             16.0000000000
     38542      1247  AGAL      O3             41.3912469200      -43.7119308091       85.7108298168  LPSA35    23             16.0000000000
     38543      1247  AGAL      HO3            41.0171322211      -43.7321436524       86.6206525111  LPSA35    23             16.0000000000
     38544      1247  AGAL      C4             40.2899044236      -45.7329208843       84.8901212015  LPSA35    23             16.0000000000
     38545      1247  AGAL      H4             41.2602006287      -46.2242700430       84.6506069022  LPSA35    23             16.0000000000
     38546      1247  AGAL      O4             39.9414495778      -46.3632737067       86.1132943683  LPSA35    23             16.0000000000
     38547      1247  AGAL      HO4            39.4461393466      -47.0629680879       85.8278371007  LPSA35    23             16.0000000000
     38548      1247  AGAL      C6             39.1739436383      -47.5409153030       83.3278962909  LPSA35    23             16.0000000000
     38549      1247  AGAL      H61            38.4042333854      -47.6339074461       82.6074235255  LPSA35    23             16.0000000000
     38550      1247  AGAL      H62            40.0440203386      -47.8863567925       82.7620574208  LPSA35    23             16.0000000000
     38551      1247  AGAL      O6             38.8133000262      -48.3430425631       84.3845202183  LPSA35    23             16.0000000000
     38552      1247  AGAL      HO6            38.6782018425      -49.2550843544       84.1740981585  LPSA35    23             16.0000000000
     38553      1248  ARHM      C1             37.9199827284      -41.7626902216       86.2818185944  LPSA35    24             17.0000000000
     38554      1248  ARHM      H1             37.1354889812      -42.4895294236       86.3680542693  LPSA35    24             17.0000000000
     38555      1248  ARHM      C5             38.1909799491      -39.4712762015       85.6157638072  LPSA35    24             17.0000000000
     38556      1248  ARHM      H5             39.0134290784      -39.7821977101       85.0070975499  LPSA35    24             17.0000000000
     38557      1248  ARHM      O5             37.2529421047      -40.5137934444       85.8657410059  LPSA35    24             17.0000000000
     38558      1248  ARHM      C2             38.5986059392      -41.5385544540       87.5921581840  LPSA35    24             17.0000000000
     38559      1248  ARHM      H2             39.1801564417      -42.3881333204       87.8984046741  LPSA35    24             17.0000000000
     38560      1248  ARHM      O2             37.6883876785      -41.0747808795       88.6075763533  LPSA35    24             17.0000000000
     38561      1248  ARHM      C3             39.5956898850      -40.3835767432       87.4133527752  LPSA35    24             17.0000000000
     38562      1248  ARHM      H3             40.3107005506      -40.7382809201       86.6640279609  LPSA35    24             17.0000000000
     38563      1248  ARHM      O3             40.4518207437      -40.1459956012       88.5620392964  LPSA35    24             17.0000000000
     38564      1248  ARHM      HO3            39.9498582573      -39.5378447239       89.1463757531  LPSA35    24             17.0000000000
     38565      1248  ARHM      C4             38.9039161471      -39.1120740384       86.9402325015  LPSA35    24             17.0000000000
     38566      1248  ARHM      H4             38.0658099446      -38.8661267225       87.7071552895  LPSA35    24             17.0000000000
     38567      1248  ARHM      O4             39.7461768992      -37.9844390367       86.8379508285  LPSA35    24             17.0000000000
     38568      1248  ARHM      HO4            39.3229531505      -37.1614668132       87.0219124236  LPSA35    24             17.0000000000
     38569      1248  ARHM      C6             37.5409154975      -38.2064488018       84.9175891319  LPSA35    24             17.0000000000
     38570      1248  ARHM      H61            38.3217959403      -37.6655930753       84.3853494017  LPSA35    24             17.0000000000
     38571      1248  ARHM      H62            36.8224746483      -38.5919667906       84.2649634992  LPSA35    24             17.0000000000
     38572      1248  ARHM      H63            36.9589177646      -37.5904700760       85.6811466487  LPSA35    24             17.0000000000
     38573      1249  ARHM      C1             36.9506105848      -42.1599043674       89.1588742089  LPSA35    25             18.0000000000
     38574      1249  ARHM      H1             36.9401276561      -42.9699036528       88.4722246341  LPSA35    25             18.0000000000
     38575      1249  ARHM      C5             35.2623506118      -40.7971796287       90.1670531641  LPSA35    25             18.0000000000
     38576      1249  ARHM      H5             35.7132263315      -39.8827692583       89.8870230824  LPSA35    25             18.0000000000
     38577      1249  ARHM      O5             35.5424356284      -41.8614295211       89.2315309535  LPSA35    25             18.0000000000
     38578      1249  ARHM      C2             37.5317377523      -42.5230974538       90.4685713243  LPSA35    25             18.0000000000
     38579      1249  ARHM      H2             38.6622701582      -42.6215308797       90.3413143991  LPSA35    25             18.0000000000
     38580      1249  ARHM      O2             36.9541928488      -43.7824279736       90.9328696740  LPSA35    25             18.0000000000
     38581      1249  ARHM      C3             37.1637767641      -41.3686549271       91.4562257518  LPSA35    25             18.0000000000
     38582      1249  ARHM      H3             37.6616390604      -40.4447442862       91.0689171631  LPSA35    25             18.0000000000
     38583      1249  ARHM      O3             37.7525136770      -41.7165475162       92.6920647463  LPSA35    25             18.0000000000
     38584      1249  ARHM      C4             35.7595079917      -41.1275145822       91.5960769721  LPSA35    25             18.0000000000
     38585      1249  ARHM      H4             35.1758046227      -42.0963105274       91.8876801091  LPSA35    25             18.0000000000
     38586      1249  ARHM      O4             35.6088544743      -40.1100618330       92.5862492282  LPSA35    25             18.0000000000
     38587      1249  ARHM      HO4            34.8069821277      -40.3489793361       93.0149361445  LPSA35    25             18.0000000000
     38588      1249  ARHM      C6             33.7751017605      -40.4494095703       90.2083352735  LPSA35    25             18.0000000000
     38589      1249  ARHM      H61            33.3524327980      -40.2999619789       89.1912344565  LPSA35    25             18.0000000000
     38590      1249  ARHM      H62            33.1404674561      -41.2542206435       90.6686969550  LPSA35    25             18.0000000000
     38591      1249  ARHM      H63            33.5436545692      -39.4987938248       90.8233913566  LPSA35    25             18.0000000000
     38592      1250  BMANNA    C1             37.4972521212      -44.9243197353       90.3138108879  LPSA35    26             19.0000000000
     38593      1250  BMANNA    H1             38.4997430545      -44.7106932449       89.8388342826  LPSA35    26             19.0000000000
     38594      1250  BMANNA    C5             37.3674085601      -46.6120597430       88.6312665858  LPSA35    26             19.0000000000
     38595      1250  BMANNA    H5             38.2835379886      -46.2335476340       88.1771240033  LPSA35    26             19.0000000000
     38596      1250  BMANNA    O5             36.7062753591      -45.4925262902       89.2346891933  LPSA35    26             19.0000000000
     38597      1250  BMANNA    C2             37.6877441472      -45.9223078850       91.3475147821  LPSA35    26             19.0000000000
     38598      1250  BMANNA    H2             38.3699174790      -45.4182252536       92.1081287357  LPSA35    26             19.0000000000
     38599      1250  BMANNA    N              36.3661070892      -46.2558028233       91.9238920796  LPSA35    26             19.0000000000
     38600      1250  BMANNA    HN             35.6983225979      -46.5575692714       91.3050515894  LPSA35    26             19.0000000000
     38601      1250  BMANNA    C              36.0817160320      -46.2620529543       93.1798471680  LPSA35    26             19.0000000000
     38602      1250  BMANNA    O              36.8867176068      -45.7871284521       94.0003587425  LPSA35    26             19.0000000000
     38603      1250  BMANNA    CT             34.7706676706      -46.8705681501       93.6758917343  LPSA35    26             19.0000000000
     38604      1250  BMANNA    HT1            34.1057300549      -46.8679118608       92.8666282051  LPSA35    26             19.0000000000
     38605      1250  BMANNA    HT2            34.2891464558      -46.5717971242       94.6620984389  LPSA35    26             19.0000000000
     38606      1250  BMANNA    HT3            35.0020450942      -47.9286025323       93.8484898219  LPSA35    26             19.0000000000
     38607      1250  BMANNA    C3             38.4285832312      -47.1011865763       90.7100883268  LPSA35    26             19.0000000000
     38608      1250  BMANNA    H3             39.4137706686      -46.7236563689       90.3384445889  LPSA35    26             19.0000000000
     38609      1250  BMANNA    O3             38.7329370504      -48.0548419006       91.7636866611  LPSA35    26             19.0000000000
     38610      1250  BMANNA    HO3            39.4425946658      -47.6256009588       92.2265744207  LPSA35    26             19.0000000000
     38611      1250  BMANNA    C4             37.6325415932      -47.6270019388       89.6481622736  LPSA35    26             19.0000000000
     38612      1250  BMANNA    H4             36.6066609949      -48.0227859708       89.9013799111  LPSA35    26             19.0000000000
     38613      1250  BMANNA    O4             38.2591764724      -48.7484229075       89.0416847738  LPSA35    26             19.0000000000
     38614      1250  BMANNA    HO4            38.0511303747      -49.5251552440       89.5591157304  LPSA35    26             19.0000000000
     38615      1250  BMANNA    C6             36.4912627336      -46.9597918765       87.3900617492  LPSA35    26             19.0000000000
     38616      1250  BMANNA    H61            36.0673329398      -46.0552372532       86.9191763972  LPSA35    26             19.0000000000
     38617      1250  BMANNA    H62            37.0406648784      -47.4815310622       86.6504270337  LPSA35    26             19.0000000000
     38618      1250  BMANNA    O6             35.3989357862      -47.8054794582       87.7329108337  LPSA35    26             19.0000000000
     38619      1250  BMANNA    HO6            35.7157161867      -48.5692311170       88.1688153196  LPSA35    26             19.0000000000
     38620      1251  BGLCNA    C1             38.4637213479      -40.8638388929       93.4616184899  LPSA35    27             19.0000000000
     38621      1251  BGLCNA    H1             38.0259267235      -39.8707537546       93.4392217979  LPSA35    27             19.0000000000
     38622      1251  BGLCNA    C5             40.4980030850      -39.7460156899       93.9656603721  LPSA35    27             19.0000000000
     38623      1251  BGLCNA    H5             39.9025406213      -38.7972669684       93.9564344452  LPSA35    27             19.0000000000
     38624      1251  BGLCNA    O5             39.8296887268      -40.6355841988       93.0607755266  LPSA35    27             19.0000000000
     38625      1251  BGLCNA    C2             38.3961690990      -41.4330556685       94.8806799918  LPSA35    27             19.0000000000
     38626      1251  BGLCNA    H2             38.9602854292      -42.3817879976       94.8757458582  LPSA35    27             19.0000000000
     38627      1251  BGLCNA    N              37.0188791338      -41.7009689208       95.2501113516  LPSA35    27             19.0000000000
     38628      1251  BGLCNA    HN             36.3374439057      -40.9143372909       95.0827132934  LPSA35    27             19.0000000000
     38629      1251  BGLCNA    C              36.7980826128      -42.8815056299       95.9523160909  LPSA35    27             19.0000000000
     38630      1251  BGLCNA    O              37.6858562450      -43.5844057749       96.5238801166  LPSA35    27             19.0000000000
     38631      1251  BGLCNA    CT             35.2959811058      -43.2961231254       96.0293745529  LPSA35    27             19.0000000000
     38632      1251  BGLCNA    HT1            34.6705602578      -42.6413117469       95.3635606282  LPSA35    27             19.0000000000
     38633      1251  BGLCNA    HT2            34.8937252247      -43.3445623114       97.0167906789  LPSA35    27             19.0000000000
     38634      1251  BGLCNA    HT3            35.2483252095      -44.4082465140       95.7039804309  LPSA35    27             19.0000000000
     38635      1251  BGLCNA    C3             39.0881407248      -40.5047294584       95.7540348103  LPSA35    27             19.0000000000
     38636      1251  BGLCNA    H3             38.6252320503      -39.4866947587       95.7401190096  LPSA35    27             19.0000000000
     38637      1251  BGLCNA    O3             38.9297227300      -41.1203179719       97.0775356047  LPSA35    27             19.0000000000
     38638      1251  BGLCNA    C4             40.5585959801      -40.2839741833       95.3486864533  LPSA35    27             19.0000000000
     38639      1251  BGLCNA    H4             41.0822547333      -41.2668089238       95.3090014479  LPSA35    27             19.0000000000
     38640      1251  BGLCNA    O4             41.2043303081      -39.4257448195       96.2156872787  LPSA35    27             19.0000000000
     38641      1251  BGLCNA    HO4            40.8231873977      -38.5941937221       96.0162444362  LPSA35    27             19.0000000000
     38642      1251  BGLCNA    C6             41.8683469521      -39.4085133314       93.2852949846  LPSA35    27             19.0000000000
     38643      1251  BGLCNA    H61            42.2674504720      -38.5646671667       93.8557506920  LPSA35    27             19.0000000000
     38644      1251  BGLCNA    H62            42.5936210904      -40.2350987543       93.4725180191  LPSA35    27             19.0000000000
     38645      1251  BGLCNA    O6             41.7069973265      -39.1146509308       91.9076175409  LPSA35    27             19.0000000000
     38646      1251  BGLCNA    HO6            42.5951870100      -38.9372110928       91.5273290588  LPSA35    27             19.0000000000
     38647      1252  AGAL      C1             39.1652731688      -40.3223328161       98.2622020222  LPSA35    28             20.0000000000
     38648      1252  AGAL      H1             40.1990968293      -40.1075611437       98.3007149491  LPSA35    28             20.0000000000
     38649      1252  AGAL      C5             37.0460174554      -39.1481409599       98.1710438288  LPSA35    28             20.0000000000
     38650      1252  AGAL      H5             36.6455829096      -40.0221265261       97.4646141937  LPSA35    28             20.0000000000
     38651      1252  AGAL      O5             38.5281452022      -39.0552057883       98.1147365872  LPSA35    28             20.0000000000
     38652      1252  AGAL      C2             38.7135427012      -40.8884163022       99.6197190629  LPSA35    28             20.0000000000
     38653      1252  AGAL      H2             39.0107995834      -40.0901321609      100.2965066153  LPSA35    28             20.0000000000
     38654      1252  AGAL      O2             39.3732347107      -42.0584315692      100.0788731798  LPSA35    28             20.0000000000
     38655      1252  AGAL      C3             37.2260791410      -40.9995010434       99.7396972452  LPSA35    28             20.0000000000
     38656      1252  AGAL      H3             36.8598582926      -41.6177504329       98.8607737785  LPSA35    28             20.0000000000
     38657      1252  AGAL      O3             36.6614495261      -41.6328749880      100.9043404272  LPSA35    28             20.0000000000
     38658      1252  AGAL      HO3            36.1999173840      -42.4223937632      100.5606486229  LPSA35    28             20.0000000000
     38659      1252  AGAL      C4             36.6259561869      -39.6703950555       99.5102226768  LPSA35    28             20.0000000000
     38660      1252  AGAL      H4             35.5692517977      -39.7901914785       99.4798298294  LPSA35    28             20.0000000000
     38661      1252  AGAL      O4             36.9622520976      -38.7259334628      100.4757933835  LPSA35    28             20.0000000000
     38662      1252  AGAL      HO4            36.2238792801      -38.6627299151      101.0376442747  LPSA35    28             20.0000000000
     38663      1252  AGAL      C6             36.3074892556      -37.9180076516       97.6362902244  LPSA35    28             20.0000000000
     38664      1252  AGAL      H61            36.5414254603      -37.7937680483       96.5809275898  LPSA35    28             20.0000000000
     38665      1252  AGAL      H62            35.1636704235      -37.9015178359       97.7651048223  LPSA35    28             20.0000000000
     38666      1252  AGAL      O6             36.7250098327      -36.7700167181       98.3456070822  LPSA35    28             20.0000000000
     38667      1252  AGAL      HO6            37.5103430934      -36.3985581371       97.9416813930  LPSA35    28             20.0000000000
     38668      1253  ARHM      C1             39.6932306804      -41.8970024217      101.4808913342  LPSA35    29             21.0000000000
     38669      1253  ARHM      H1             38.9541783300      -41.2021000684      101.9964955809  LPSA35    29             21.0000000000
     38670      1253  ARHM      C5             41.9958499663      -42.2147331451      101.1486206043  LPSA35    29             21.0000000000
     38671      1253  ARHM      H5             41.7068210484      -42.3922417057      100.0935446791  LPSA35    29             21.0000000000
     38672      1253  ARHM      O5             40.9876951624      -41.4047953911      101.6833506475  LPSA35    29             21.0000000000
     38673      1253  ARHM      C2             39.5084919429      -43.1892095996      102.1437305515  LPSA35    29             21.0000000000
     38674      1253  ARHM      H2             38.5595211917      -43.6248242035      101.9067628034  LPSA35    29             21.0000000000
     38675      1253  ARHM      O2             39.6064121923      -43.0844545654      103.5748524404  LPSA35    29             21.0000000000
     38676      1253  ARHM      C3             40.5716419092      -44.1175514779      101.6289418068  LPSA35    29             21.0000000000
     38677      1253  ARHM      H3             40.3877692674      -44.3082533095      100.4952263366  LPSA35    29             21.0000000000
     38678      1253  ARHM      O3             40.3648450165      -45.3811672950      102.1995749427  LPSA35    29             21.0000000000
     38679      1253  ARHM      HO3            41.1703443835      -45.7746248871      102.2092645043  LPSA35    29             21.0000000000
     38680      1253  ARHM      C4             41.9368769519      -43.6222326843      101.8247918557  LPSA35    29             21.0000000000
     38681      1253  ARHM      H4             42.1967799967      -43.5256827269      102.9338171738  LPSA35    29             21.0000000000
     38682      1253  ARHM      O4             43.0219999716      -44.4482951248      101.3452167393  LPSA35    29             21.0000000000
     38683      1253  ARHM      HO4            42.8639566184      -44.8453279150      100.4362974805  LPSA35    29             21.0000000000
     38684      1253  ARHM      C6             43.3018732632      -41.4034745010      101.2162231226  LPSA35    29             21.0000000000
     38685      1253  ARHM      H61            42.9921187579      -40.3906240757      100.7685423143  LPSA35    29             21.0000000000
     38686      1253  ARHM      H62            43.5741336639      -41.2484479878      102.3013153741  LPSA35    29             21.0000000000
     38687      1253  ARHM      H63            44.0607875159      -41.9064985745      100.6072571094  LPSA35    29             21.0000000000
     38688      1254  ARHM      C1             38.4853882908      -42.9857749475      104.3945976075  LPSA35    30             22.0000000000
     38689      1254  ARHM      H1             37.8336092586      -43.8677231016      104.2094096401  LPSA35    30             22.0000000000
     38690      1254  ARHM      C5             38.5139750592      -40.5550012267      104.5143062533  LPSA35    30             22.0000000000
     38691      1254  ARHM      H5             39.4583996218      -40.7235475533      103.8668162917  LPSA35    30             22.0000000000
     38692      1254  ARHM      O5             37.7531417172      -41.7565103033      104.2052433351  LPSA35    30             22.0000000000
     38693      1254  ARHM      C2             38.9228721970      -43.0412597745      105.8471183130  LPSA35    30             22.0000000000
     38694      1254  ARHM      H2             39.4725792943      -43.9066367392      106.0289718167  LPSA35    30             22.0000000000
     38695      1254  ARHM      O2             37.7497689042      -42.9464997222      106.5813641610  LPSA35    30             22.0000000000
     38696      1254  ARHM      C3             39.6813568829      -41.8519695952      106.2079894766  LPSA35    30             22.0000000000
     38697      1254  ARHM      H3             40.4812459210      -41.7417720620      105.5270001340  LPSA35    30             22.0000000000
     38698      1254  ARHM      O3             40.2705414421      -41.9131585860      107.5373891676  LPSA35    30             22.0000000000
     38699      1254  ARHM      C4             38.8915019162      -40.5605423256      105.9708288384  LPSA35    30             22.0000000000
     38700      1254  ARHM      H4             37.9606426026      -40.5177736746      106.5400372406  LPSA35    30             22.0000000000
     38701      1254  ARHM      O4             39.5271434256      -39.4059983315      106.2997755749  LPSA35    30             22.0000000000
     38702      1254  ARHM      HO4            40.1800004182      -39.0281174709      105.6964454668  LPSA35    30             22.0000000000
     38703      1254  ARHM      C6             37.7456108064      -39.3313377022      104.0930490251  LPSA35    30             22.0000000000
     38704      1254  ARHM      H61            38.4382601732      -38.4525527933      104.2143179997  LPSA35    30             22.0000000000
     38705      1254  ARHM      H62            37.5950574374      -39.3658616354      103.0019050467  LPSA35    30             22.0000000000
     38706      1254  ARHM      H63            36.7654373412      -39.1889421642      104.6493652223  LPSA35    30             22.0000000000
     38707      1255  BMANNA    C1             37.1499557150      -44.1684593966      106.9502319096  LPSA35    31             23.0000000000
     38708      1255  BMANNA    H1             37.9660284697      -44.8971764514      107.1550799008  LPSA35    31             23.0000000000
     38709      1255  BMANNA    C5             35.7441541531      -46.0102359475      106.2136717625  LPSA35    31             23.0000000000
     38710      1255  BMANNA    H5             36.5944358601      -46.6220943090      106.5467054000  LPSA35    31             23.0000000000
     38711      1255  BMANNA    O5             36.3130345711      -44.7118972311      105.8742289322  LPSA35    31             23.0000000000
     38712      1255  BMANNA    C2             36.2998385485      -43.9705525638      108.0830629221  LPSA35    31             23.0000000000
     38713      1255  BMANNA    H2             36.9798625003      -43.6705708207      108.9031915743  LPSA35    31             23.0000000000
     38714      1255  BMANNA    N              35.4166843659      -42.8861431342      107.8252935315  LPSA35    31             23.0000000000
     38715      1255  BMANNA    HN             35.1958510267      -42.6838880386      106.8111160773  LPSA35    31             23.0000000000
     38716      1255  BMANNA    C              34.9141668304      -42.1073728583      108.7868858964  LPSA35    31             23.0000000000
     38717      1255  BMANNA    O              35.2419130981      -42.2284656838      109.9536662434  LPSA35    31             23.0000000000
     38718      1255  BMANNA    CT             33.9119767968      -41.0389011569      108.3237946568  LPSA35    31             23.0000000000
     38719      1255  BMANNA    HT1            33.2979254997      -41.4687231302      107.5739831696  LPSA35    31             23.0000000000
     38720      1255  BMANNA    HT2            34.4870480678      -40.1916693107      107.9347099034  LPSA35    31             23.0000000000
     38721      1255  BMANNA    HT3            33.3594185181      -40.6146131549      109.1768357935  LPSA35    31             23.0000000000
     38722      1255  BMANNA    C3             35.6990140776      -45.2765982865      108.4884560283  LPSA35    31             23.0000000000
     38723      1255  BMANNA    H3             36.5051265580      -46.0746935972      108.6988550870  LPSA35    31             23.0000000000
     38724      1255  BMANNA    O3             35.0188403712      -45.1826858190      109.7404994872  LPSA35    31             23.0000000000
     38725      1255  BMANNA    HO3            35.4326376941      -44.3839953473      110.0111610137  LPSA35    31             23.0000000000
     38726      1255  BMANNA    C4             34.8257541527      -45.7995612476      107.4199857710  LPSA35    31             23.0000000000
     38727      1255  BMANNA    H4             33.9403042455      -45.0917472326      107.0572414185  LPSA35    31             23.0000000000
     38728      1255  BMANNA    O4             34.2018904931      -46.9996594671      107.8525671122  LPSA35    31             23.0000000000
     38729      1255  BMANNA    HO4            34.8506744537      -47.6549553663      108.1943429300  LPSA35    31             23.0000000000
     38730      1255  BMANNA    C6             34.9746104734      -46.6587035146      105.0512686782  LPSA35    31             23.0000000000
     38731      1255  BMANNA    H61            34.7536113584      -47.7633760806      105.3397811046  LPSA35    31             23.0000000000
     38732      1255  BMANNA    H62            34.0125393049      -46.1882209989      104.8698551944  LPSA35    31             23.0000000000
     38733      1255  BMANNA    O6             35.7295886103      -46.6281600495      103.8241467834  LPSA35    31             23.0000000000
     38734      1255  BMANNA    HO6            36.5162826451      -47.2440759896      103.8134147631  LPSA35    31             23.0000000000
     38735      1256  BGLCNA    C1             39.4445393361      -41.6044043050      108.6103969990  LPSA35    32             23.0000000000
     38736      1256  BGLCNA    H1             38.3784127676      -41.9555359422      108.4325564695  LPSA35    32             23.0000000000
     38737      1256  BGLCNA    C5             38.4031886638      -39.8655285268      109.9277617404  LPSA35    32             23.0000000000
     38738      1256  BGLCNA    H5             37.4065760104      -40.2858523458      109.5374749077  LPSA35    32             23.0000000000
     38739      1256  BGLCNA    O5             39.3780537719      -40.2168736173      108.9423333575  LPSA35    32             23.0000000000
     38740      1256  BGLCNA    C2             39.8684388239      -42.3170348348      109.8194522937  LPSA35    32             23.0000000000
     38741      1256  BGLCNA    H2             40.7744500909      -41.8369269657      110.1044894257  LPSA35    32             23.0000000000
     38742      1256  BGLCNA    N              40.0881264609      -43.7055741126      109.5956973249  LPSA35    32             23.0000000000
     38743      1256  BGLCNA    HN             39.4371882704      -44.0323281714      108.8809076996  LPSA35    32             23.0000000000
     38744      1256  BGLCNA    C              41.0512737277      -44.5180341372      110.0864625708  LPSA35    32             23.0000000000
     38745      1256  BGLCNA    O              41.8640635047      -44.1402130772      110.9304085025  LPSA35    32             23.0000000000
     38746      1256  BGLCNA    CT             41.0669780740      -45.9787541024      109.5841031968  LPSA35    32             23.0000000000
     38747      1256  BGLCNA    HT1            40.3988139040      -45.8659966993      108.6281101354  LPSA35    32             23.0000000000
     38748      1256  BGLCNA    HT2            40.5752092759      -46.6976690781      110.1898124037  LPSA35    32             23.0000000000
     38749      1256  BGLCNA    HT3            42.0917597419      -46.3312819370      109.3122359934  LPSA35    32             23.0000000000
     38750      1256  BGLCNA    C3             38.8483644697      -42.0791156868      110.8930231790  LPSA35    32             23.0000000000
     38751      1256  BGLCNA    H3             37.9236667803      -42.3346923347      110.4606187373  LPSA35    32             23.0000000000
     38752      1256  BGLCNA    O3             39.0201648031      -42.8915830683      112.0657798240  LPSA35    32             23.0000000000
     38753      1256  BGLCNA    C4             38.8313499271      -40.6007836634      111.1707572500  LPSA35    32             23.0000000000
     38754      1256  BGLCNA    H4             39.8581657832      -40.3204093898      111.5318289610  LPSA35    32             23.0000000000
     38755      1256  BGLCNA    O4             37.9414956838      -40.2788215385      112.2070236435  LPSA35    32             23.0000000000
     38756      1256  BGLCNA    HO4            38.3708857804      -40.2878436276      113.0745323218  LPSA35    32             23.0000000000
     38757      1256  BGLCNA    C6             38.2851199127      -38.3587056448      110.0229508171  LPSA35    32             23.0000000000
     38758      1256  BGLCNA    H61            37.4218785328      -38.0471221508      110.7194343748  LPSA35    32             23.0000000000
     38759      1256  BGLCNA    H62            39.2196825747      -37.9399276907      110.5717638480  LPSA35    32             23.0000000000
     38760      1256  BGLCNA    O6             38.0240994652      -37.7581980862      108.7709294272  LPSA35    32             23.0000000000
     38761      1256  BGLCNA    HO6            37.4274645248      -38.3415211751      108.2360311317  LPSA35    32             23.0000000000
     38762      1257  AGAL      C1             37.7845949949      -43.3402375421      112.6842874521  LPSA35    33             24.0000000000
     38763      1257  AGAL      H1             37.0786140698      -42.5106133792      112.5979959475  LPSA35    33             24.0000000000
     38764      1257  AGAL      C5             38.1424096455      -45.6390290816      112.2149219831  LPSA35    33             24.0000000000
     38765      1257  AGAL      H5             39.1213905443      -45.2529617259      111.8792915250  LPSA35    33             24.0000000000
     38766      1257  AGAL      O5             37.2475937027      -44.5553041058      112.0726784748  LPSA35    33             24.0000000000
     38767      1257  AGAL      C2             38.0987813517      -43.6403764878      114.1482787662  LPSA35    33             24.0000000000
     38768      1257  AGAL      H2             37.1209690405      -44.0907461458      114.5751854976  LPSA35    33             24.0000000000
     38769      1257  AGAL      O2             38.2524050878      -42.4202062753      114.8486222260  LPSA35    33             24.0000000000
     38770      1257  AGAL      C3             39.0313309254      -44.8170728516      114.2945545625  LPSA35    33             24.0000000000
     38771      1257  AGAL      H3             40.0115082387      -44.6174533124      113.7405815065  LPSA35    33             24.0000000000
     38772      1257  AGAL      O3             39.4900781061      -45.0176771135      115.5672660328  LPSA35    33             24.0000000000
     38773      1257  AGAL      HO3            38.8455755303      -45.0823422161      116.2400186851  LPSA35    33             24.0000000000
     38774      1257  AGAL      C4             38.4322272749      -46.0564391630      113.6708488317  LPSA35    33             24.0000000000
     38775      1257  AGAL      H4             39.1464115898      -46.8887790032      113.6729875792  LPSA35    33             24.0000000000
     38776      1257  AGAL      O4             37.2176268628      -46.5933801107      114.2435538900  LPSA35    33             24.0000000000
     38777      1257  AGAL      HO4            36.8387596083      -46.0306786644      114.9085525172  LPSA35    33             24.0000000000
     38778      1257  AGAL      C6             37.7919275435      -46.7878550185      111.2992528405  LPSA35    33             24.0000000000
     38779      1257  AGAL      H61            37.8849415616      -46.3651181369      110.2783408757  LPSA35    33             24.0000000000
     38780      1257  AGAL      H62            38.4447574531      -47.6799237255      111.3458027743  LPSA35    33             24.0000000000
     38781      1257  AGAL      O6             36.5230848618      -47.3516840643      111.4129476537  LPSA35    33             24.0000000000
     38782      1257  AGAL      HO6            35.8428420508      -46.9092070485      110.8444757795  LPSA35    33             24.0000000000
     38783      1258  ARHM      C1             37.4957558307      -42.3135294238      116.0109133884  LPSA35    34             25.0000000000
     38784      1258  ARHM      H1             37.5565100018      -43.2187604297      116.6389743656  LPSA35    34             25.0000000000
     38785      1258  ARHM      C5             35.7392347583      -40.9413231930      115.0727799907  LPSA35    34             25.0000000000
     38786      1258  ARHM      H5             36.2009788838      -41.0759581824      114.0209633333  LPSA35    34             25.0000000000
     38787      1258  ARHM      O5             36.0717104762      -42.1178765940      115.8926868953  LPSA35    34             25.0000000000
     38788      1258  ARHM      C2             38.1188154636      -41.1690900651      116.7601555753  LPSA35    34             25.0000000000
     38789      1258  ARHM      H2             39.2365867868      -41.2054256722      116.8710959342  LPSA35    34             25.0000000000
     38790      1258  ARHM      O2             37.6085990019      -40.9813977189      118.1592972339  LPSA35    34             25.0000000000
     38791      1258  ARHM      C3             37.8207552147      -39.8855682362      115.9988665506  LPSA35    34             25.0000000000
     38792      1258  ARHM      H3             38.2151935437      -39.9299402824      114.9724172480  LPSA35    34             25.0000000000
     38793      1258  ARHM      O3             38.3400324652      -38.6685146585      116.5878695042  LPSA35    34             25.0000000000
     38794      1258  ARHM      HO3            38.6716626227      -38.0384511183      115.9559434517  LPSA35    34             25.0000000000
     38795      1258  ARHM      C4             36.2966081023      -39.6642905510      115.7987835878  LPSA35    34             25.0000000000
     38796      1258  ARHM      H4             35.7394039500      -39.6975577248      116.7495315617  LPSA35    34             25.0000000000
     38797      1258  ARHM      O4             35.9997698843      -38.4905577554      115.1362621200  LPSA35    34             25.0000000000
     38798      1258  ARHM      HO4            36.0838946514      -37.7215468717      115.6953140327  LPSA35    34             25.0000000000
     38799      1258  ARHM      C6             34.1908100065      -40.8139998336      114.8413279703  LPSA35    34             25.0000000000
     38800      1258  ARHM      H61            33.6003375603      -40.6424435448      115.7172490283  LPSA35    34             25.0000000000
     38801      1258  ARHM      H62            34.0126750847      -39.8177555165      114.3996926230  LPSA35    34             25.0000000000
     38802      1258  ARHM      H63            33.7290164373      -41.5514867420      114.1590834060  LPSA35    34             25.0000000000
     38803      1259  ARHM      C1             37.7587632890      -42.0819228205      119.0795908573  LPSA35    35             26.0000000000
     38804      1259  ARHM      H1             38.7942114902      -42.5849372308      118.8787348947  LPSA35    35             26.0000000000
     38805      1259  ARHM      C5             35.3788650653      -42.5419271291      119.2408916176  LPSA35    35             26.0000000000
     38806      1259  ARHM      H5             35.1322373141      -41.6571466961      118.5254732223  LPSA35    35             26.0000000000
     38807      1259  ARHM      O5             36.7028727661      -43.1222355781      118.9290334222  LPSA35    35             26.0000000000
     38808      1259  ARHM      C2             37.7575758118      -41.5626485755      120.5365485050  LPSA35    35             26.0000000000
     38809      1259  ARHM      H2             38.6235754125      -40.8633252342      120.7134209997  LPSA35    35             26.0000000000
     38810      1259  ARHM      O2             37.9296712161      -42.6140726761      121.4126203716  LPSA35    35             26.0000000000
     38811      1259  ARHM      C3             36.4045258595      -40.8960343368      120.8720061906  LPSA35    35             26.0000000000
     38812      1259  ARHM      H3             36.2953484017      -40.0348880759      120.1344793452  LPSA35    35             26.0000000000
     38813      1259  ARHM      O3             36.4225528315      -40.3034719033      122.1540075829  LPSA35    35             26.0000000000
     38814      1259  ARHM      HO3            36.9761366848      -40.8364851796      122.7288731339  LPSA35    35             26.0000000000
     38815      1259  ARHM      C4             35.3352343754      -41.9359701788      120.6788917534  LPSA35    35             26.0000000000
     38816      1259  ARHM      H4             35.4574393889      -42.8445869003      121.3307119103  LPSA35    35             26.0000000000
     38817      1259  ARHM      O4             34.0784430021      -41.2861032948      120.9693790153  LPSA35    35             26.0000000000
     38818      1259  ARHM      HO4            33.9862964657      -40.3951120650      120.5581709812  LPSA35    35             26.0000000000
     38819      1259  ARHM      C6             34.2583101095      -43.5712795663      118.8642347863  LPSA35    35             26.0000000000
     38820      1259  ARHM      H61            34.2303068770      -43.7516918715      117.7433556958  LPSA35    35             26.0000000000
     38821      1259  ARHM      H62            34.5622317245      -44.4462800279      119.4176110492  LPSA35    35             26.0000000000
     38822      1259  ARHM      H63            33.2704883549      -43.0645195470      119.0633705917  LPSA35    35             26.0000000000
     38823      1260  BMANNA    C1             39.1979295080      -43.1960201191      121.4471464502  LPSA35    36             27.0000000000
     38824      1260  BMANNA    H1             39.9823866770      -42.4835535405      121.0972061898  LPSA35    36             27.0000000000
     38825      1260  BMANNA    C5             40.8495627678      -44.8122592683      120.7299884793  LPSA35    36             27.0000000000
     38826      1260  BMANNA    H5             41.4736433836      -43.9617508629      120.4610684421  LPSA35    36             27.0000000000
     38827      1260  BMANNA    O5             39.4480885669      -44.3965870913      120.6641532654  LPSA35    36             27.0000000000
     38828      1260  BMANNA    C2             39.5308355276      -43.5345702908      122.8920138725  LPSA35    36             27.0000000000
     38829      1260  BMANNA    H2             39.4297778248      -42.5981430970      123.4719477421  LPSA35    36             27.0000000000
     38830      1260  BMANNA    N              38.5722754677      -44.4940240068      123.4395449790  LPSA35    36             27.0000000000
     38831      1260  BMANNA    HN             38.2759994843      -45.2701968427      122.8746519580  LPSA35    36             27.0000000000
     38832      1260  BMANNA    C              38.3093921428      -44.5330651308      124.7737151700  LPSA35    36             27.0000000000
     38833      1260  BMANNA    O              38.6874578395      -43.7156163916      125.6190347561  LPSA35    36             27.0000000000
     38834      1260  BMANNA    CT             37.5310812196      -45.6794347042      125.3570716528  LPSA35    36             27.0000000000
     38835      1260  BMANNA    HT1            37.8229441105      -46.6202559701      124.8802869227  LPSA35    36             27.0000000000
     38836      1260  BMANNA    HT2            36.4218714288      -45.6104788441      125.1731404614  LPSA35    36             27.0000000000
     38837      1260  BMANNA    HT3            37.5758604642      -45.7880389762      126.4547536948  LPSA35    36             27.0000000000
     38838      1260  BMANNA    C3             40.9569250958      -44.0148601171      122.9763638711  LPSA35    36             27.0000000000
     38839      1260  BMANNA    H3             41.6471504910      -43.2305694668      122.6403873786  LPSA35    36             27.0000000000
     38840      1260  BMANNA    O3             41.3575260590      -44.3023308068      124.3414054450  LPSA35    36             27.0000000000
     38841      1260  BMANNA    HO3            42.0470727838      -43.7651807160      124.7171830083  LPSA35    36             27.0000000000
     38842      1260  BMANNA    C4             41.1891679708      -45.1991970936      122.1146940524  LPSA35    36             27.0000000000
     38843      1260  BMANNA    H4             40.6167078596      -46.0441746472      122.4263894750  LPSA35    36             27.0000000000
     38844      1260  BMANNA    O4             42.5341206810      -45.6623714644      122.2172873890  LPSA35    36             27.0000000000
     38845      1260  BMANNA    HO4            42.5445522533      -45.7935160529      123.1985163392  LPSA35    36             27.0000000000
     38846      1260  BMANNA    C6             41.0770478806      -45.8843708388      119.7412642597  LPSA35    36             27.0000000000
     38847      1260  BMANNA    H61            40.8897808543      -45.5325372058      118.6946701192  LPSA35    36             27.0000000000
     38848      1260  BMANNA    H62            42.1624930446      -46.0193114072      119.7045442506  LPSA35    36             27.0000000000
     38849      1260  BMANNA    O6             40.3737552252      -47.1303870262      120.0914698020  LPSA35    36             27.0000000000
     38850      1260  BMANNA    HO6            40.9855501052      -47.6263602666      120.6476247167  LPSA35    36             27.0000000000
     38851      1261  PVPG      C13             3.2403640442        1.2663605954      -19.6674834500  MEMB      1               0.0000000000
     38852      1261  PVPG      H13A            3.2104907520        2.3416943767      -19.3898404954  MEMB      1               0.0000000000
     38853      1261  PVPG      H13B            3.5790808893        0.6752751514      -18.7898673860  MEMB      1               0.0000000000
     38854      1261  PVPG      OC3             3.8901577986        0.9310458918      -20.8581030944  MEMB      1               0.0000000000
     38855      1261  PVPG      HO3             3.3080729773        0.4582126311      -21.4574411002  MEMB      1               0.0000000000
     38856      1261  PVPG      C12             1.7521129747        0.7755869197      -19.5931838960  MEMB      1               0.0000000000
     38857      1261  PVPG      H12A            1.1651838540        1.3872678925      -20.3171587814  MEMB      1               0.0000000000
     38858      1261  PVPG      OC2             1.2217475005        1.0087197941      -18.2876562568  MEMB      1               0.0000000000
     38859      1261  PVPG      HO2             0.3544474576        0.5486131702      -18.3161056928  MEMB      1               0.0000000000
     38860      1261  PVPG      C11             1.4925798513       -0.6777981471      -19.9600479342  MEMB      1               0.0000000000
     38861      1261  PVPG      H11A            1.9112344871       -0.9371216139      -20.9559398840  MEMB      1               0.0000000000
     38862      1261  PVPG      H11B            0.3884347837       -0.8007444366      -19.9517418566  MEMB      1               0.0000000000
     38863      1261  PVPG      P               1.5842850253       -2.7131145446      -18.3573009147  MEMB      1               0.0000000000
     38864      1261  PVPG      O13             1.3942254662       -3.7550602808      -19.3642846841  MEMB      1               0.0000000000
     38865      1261  PVPG      O14             0.3383712634       -2.3225846038      -17.5670231735  MEMB      1               0.0000000000
     38866      1261  PVPG      O12             2.1901246745       -1.4164903546      -18.9829087629  MEMB      1               0.0000000000
     38867      1261  PVPG      O11             2.7425970171       -3.2118983869      -17.3620078627  MEMB      1               0.0000000000
     38868      1261  PVPG      C1              4.0811057386       -3.1685124311      -17.9025856614  MEMB      1               0.0000000000
     38869      1261  PVPG      HA              4.3771172273       -2.1475413997      -18.2255660590  MEMB      1               0.0000000000
     38870      1261  PVPG      HB              4.0432749038       -4.0000045891      -18.6384597181  MEMB      1               0.0000000000
     38871      1261  PVPG      C2              5.1484411493       -3.7464504913      -16.9676094689  MEMB      1               0.0000000000
     38872      1261  PVPG      HS              5.8333543760       -4.3301455625      -17.6191577023  MEMB      1               0.0000000000
     38873      1261  PVPG      O21             4.5524916158       -4.5128713463      -15.9070978919  MEMB      1               0.0000000000
     38874      1261  PVPG      C21             4.2398862803       -5.7256634844      -16.2664518022  MEMB      1               0.0000000000
     38875      1261  PVPG      O22             4.7276169329       -6.3115165174      -17.2271963058  MEMB      1               0.0000000000
     38876      1261  PVPG      C22             3.3012080299       -6.3437835868      -15.2409618596  MEMB      1               0.0000000000
     38877      1261  PVPG      H2R             2.9889991598       -7.3672921878      -15.5397524262  MEMB      1               0.0000000000
     38878      1261  PVPG      H2S             2.3563034517       -5.7626458080      -15.1796808869  MEMB      1               0.0000000000
     38879      1261  PVPG      C3              5.9767474614       -2.7729810609      -16.1958643691  MEMB      1               0.0000000000
     38880      1261  PVPG      HX              6.7411709739       -3.2677364964      -15.5593152011  MEMB      1               0.0000000000
     38881      1261  PVPG      HY              6.4020662576       -2.1109911085      -16.9802075859  MEMB      1               0.0000000000
     38882      1261  PVPG      O31             5.1258190551       -1.9923173437      -15.3443840219  MEMB      1               0.0000000000
     38883      1261  PVPG      C31             4.6548864288       -0.7981759816      -15.7750304302  MEMB      1               0.0000000000
     38884      1261  PVPG      O32             4.9922134940       -0.2481000896      -16.8527943198  MEMB      1               0.0000000000
     38885      1261  PVPG      C32             3.9532220700       -0.1987960451      -14.6298321246  MEMB      1               0.0000000000
     38886      1261  PVPG      H2X             4.1450925642        0.8904052169      -14.7354141765  MEMB      1               0.0000000000
     38887      1261  PVPG      H2Y             4.2111185039       -0.7532430751      -13.7022548222  MEMB      1               0.0000000000
     38888      1261  PVPG      C23             3.9134541730       -6.2486973528      -13.8249177878  MEMB      1               0.0000000000
     38889      1261  PVPG      H3R             4.3878833018       -5.2753312736      -13.5763294233  MEMB      1               0.0000000000
     38890      1261  PVPG      H3S             4.6956175597       -7.0305226526      -13.7186618279  MEMB      1               0.0000000000
     38891      1261  PVPG      C24             2.8799496231       -6.3855229094      -12.6817324998  MEMB      1               0.0000000000
     38892      1261  PVPG      H4R             2.4601433872       -7.4129585505      -12.6321397061  MEMB      1               0.0000000000
     38893      1261  PVPG      H4S             2.0240288378       -5.6877143549      -12.8033208553  MEMB      1               0.0000000000
     38894      1261  PVPG      C25             3.5394896209       -6.0773221041      -11.3209417356  MEMB      1               0.0000000000
     38895      1261  PVPG      H5R             2.7803244076       -6.1301678377      -10.5114999126  MEMB      1               0.0000000000
     38896      1261  PVPG      H5S             3.7309607971       -4.9829473814      -11.3190555726  MEMB      1               0.0000000000
     38897      1261  PVPG      C26             4.8272570325       -6.9119252904      -11.0516724587  MEMB      1               0.0000000000
     38898      1261  PVPG      H6R             5.5627794408       -6.4834664839      -11.7656407075  MEMB      1               0.0000000000
     38899      1261  PVPG      H6S             4.6698742515       -7.9913514756      -11.2623650961  MEMB      1               0.0000000000
     38900      1261  PVPG      C27             5.3068606258       -6.8749555634       -9.5314237503  MEMB      1               0.0000000000
     38901      1261  PVPG      H7R             5.1919836251       -5.8092150600       -9.2393259664  MEMB      1               0.0000000000
     38902      1261  PVPG      H7S             6.3431935454       -7.2685900625       -9.4580233126  MEMB      1               0.0000000000
     38903      1261  PVPG      C28             4.3923219183       -7.6985926203       -8.6534642514  MEMB      1               0.0000000000
     38904      1261  PVPG      H8R             4.7285774935       -8.7429805243       -8.4788007505  MEMB      1               0.0000000000
     38905      1261  PVPG      H8S             3.4208775707       -7.8043576644       -9.1820766742  MEMB      1               0.0000000000
     38906      1261  PVPG      C29             4.1288507555       -7.0401191692       -7.2841542102  MEMB      1               0.0000000000
     38907      1261  PVPG      H9R             3.3905852109       -7.7048953091       -6.7868035223  MEMB      1               0.0000000000
     38908      1261  PVPG      H9S             3.5256423794       -6.1435878579       -7.5424017423  MEMB      1               0.0000000000
     38909      1261  PVPG      C210            5.2499982327       -6.5904305672       -6.3819246062  MEMB      1               0.0000000000
     38910      1261  PVPG      H10R            4.8428157694       -5.9740908092       -5.5520762903  MEMB      1               0.0000000000
     38911      1261  PVPG      H10S            5.9151264708       -6.0331428553       -7.0757225754  MEMB      1               0.0000000000
     38912      1261  PVPG      C211            6.0100750311       -7.6270004866       -5.6793143594  MEMB      1               0.0000000000
     38913      1261  PVPG      H111            5.3750713643       -8.3652274020       -5.1676578677  MEMB      1               0.0000000000
     38914      1261  PVPG      C212            7.3389774482       -7.6459593982       -5.4715322999  MEMB      1               0.0000000000
     38915      1261  PVPG      H121            7.8506217411       -8.4792631835       -4.9677214519  MEMB      1               0.0000000000
     38916      1261  PVPG      C213            8.4015286387       -6.6224243976       -5.9116432917  MEMB      1               0.0000000000
     38917      1261  PVPG      H13R            7.9643308195       -5.8826048035       -6.6158062416  MEMB      1               0.0000000000
     38918      1261  PVPG      H13S            9.2659103535       -7.1298527042       -6.3908947493  MEMB      1               0.0000000000
     38919      1261  PVPG      C214            9.1531608405       -6.0299532539       -4.6916209128  MEMB      1               0.0000000000
     38920      1261  PVPG      H14R            9.8218904575       -5.3748792394       -5.2899513460  MEMB      1               0.0000000000
     38921      1261  PVPG      H14S            9.7631451739       -6.7893352498       -4.1572247348  MEMB      1               0.0000000000
     38922      1261  PVPG      C215            8.1659021084       -5.2677374000       -3.7210598296  MEMB      1               0.0000000000
     38923      1261  PVPG      H15R            8.6672394246       -4.9460524130       -2.7832431065  MEMB      1               0.0000000000
     38924      1261  PVPG      H15S            7.4486223884       -6.0520218031       -3.3974413224  MEMB      1               0.0000000000
     38925      1261  PVPG      C216            7.4183864513       -4.0562403630       -4.3545570608  MEMB      1               0.0000000000
     38926      1261  PVPG      H16R            6.8493635644       -4.2893821119       -5.2798561600  MEMB      1               0.0000000000
     38927      1261  PVPG      H16S            8.3095575804       -3.4341704281       -4.5851303172  MEMB      1               0.0000000000
     38928      1261  PVPG      C217            6.4947639959       -3.3310263190       -3.4011579982  MEMB      1               0.0000000000
     38929      1261  PVPG      H17R            5.8871961459       -2.5744751550       -3.9422790168  MEMB      1               0.0000000000
     38930      1261  PVPG      H17S            7.0736783441       -2.7214746398       -2.6747795238  MEMB      1               0.0000000000
     38931      1261  PVPG      C218            5.4285776026       -4.1892260220       -2.5870216922  MEMB      1               0.0000000000
     38932      1261  PVPG      H18R            6.0046293018       -4.8065699012       -1.8649608586  MEMB      1               0.0000000000
     38933      1261  PVPG      H18S            4.7289540097       -3.5454830126       -2.0121810163  MEMB      1               0.0000000000
     38934      1261  PVPG      H18T            4.8401222581       -4.8172009238       -3.2896512462  MEMB      1               0.0000000000
     38935      1261  PVPG      C33             2.4420504863       -0.3977402484      -14.7125094564  MEMB      1               0.0000000000
     38936      1261  PVPG      H3X             2.3395154571       -1.4655074468      -15.0017858195  MEMB      1               0.0000000000
     38937      1261  PVPG      H3Y             2.0101691851        0.1660570329      -15.5668704443  MEMB      1               0.0000000000
     38938      1261  PVPG      C34             1.7560488181       -0.3286718293      -13.3939771197  MEMB      1               0.0000000000
     38939      1261  PVPG      H4X             0.6781271720       -0.3803820146      -13.6580453017  MEMB      1               0.0000000000
     38940      1261  PVPG      H4Y             1.8460496066        0.7255895283      -13.0552232772  MEMB      1               0.0000000000
     38941      1261  PVPG      C35             2.2651687203       -1.1536537461      -12.1925238900  MEMB      1               0.0000000000
     38942      1261  PVPG      H5X             3.2191190129       -0.6998549082      -11.8484793595  MEMB      1               0.0000000000
     38943      1261  PVPG      H5Y             2.5185998605       -2.1580292155      -12.5941751566  MEMB      1               0.0000000000
     38944      1261  PVPG      C36             1.2985794787       -1.3424169653      -11.0102015825  MEMB      1               0.0000000000
     38945      1261  PVPG      H6X             0.3797616470       -1.8996235145      -11.2923641512  MEMB      1               0.0000000000
     38946      1261  PVPG      H6Y             0.9987636913       -0.3415708974      -10.6323939251  MEMB      1               0.0000000000
     38947      1261  PVPG      C37             1.9126605952       -2.0945118072       -9.8358431531  MEMB      1               0.0000000000
     38948      1261  PVPG      H7X             2.5097202852       -1.3285310722       -9.2962930571  MEMB      1               0.0000000000
     38949      1261  PVPG      H7Y             2.6256986205       -2.8751831634      -10.1770908265  MEMB      1               0.0000000000
     38950      1261  PVPG      C38             0.9073744289       -2.6716762872       -8.8272316368  MEMB      1               0.0000000000
     38951      1261  PVPG      H8X             0.0048031482       -3.0535691051       -9.3505320610  MEMB      1               0.0000000000
     38952      1261  PVPG      H8Y             0.6085020441       -1.9524693782       -8.0349326532  MEMB      1               0.0000000000
     38953      1261  PVPG      C39             1.5407501395       -3.9216922029       -8.1452455199  MEMB      1               0.0000000000
     38954      1261  PVPG      H9X             2.4237040853       -3.4790535303       -7.6365376894  MEMB      1               0.0000000000
     38955      1261  PVPG      H9Y             1.8040440069       -4.7007362561       -8.8922982193  MEMB      1               0.0000000000
     38956      1261  PVPG      C310            0.7320072408       -4.6172106691       -7.0021425056  MEMB      1               0.0000000000
     38957      1261  PVPG      H10X            1.4143626064       -5.3880743469       -6.5844326265  MEMB      1               0.0000000000
     38958      1261  PVPG      H10Y           -0.1056900277       -5.1847774967       -7.4608931533  MEMB      1               0.0000000000
     38959      1261  PVPG      C311            0.2317589817       -3.7436401863       -5.8290833635  MEMB      1               0.0000000000
     38960      1261  PVPG      H11X           -0.2285890638       -4.4939311525       -5.1512455148  MEMB      1               0.0000000000
     38961      1261  PVPG      H11Y           -0.6856101833       -3.1855463469       -6.1141903181  MEMB      1               0.0000000000
     38962      1261  PVPG      C312            1.3393712986       -2.9777500683       -5.0500667097  MEMB      1               0.0000000000
     38963      1261  PVPG      H12X            2.1777993082       -2.5925076051       -5.6688948398  MEMB      1               0.0000000000
     38964      1261  PVPG      H12Y            1.7957616579       -3.6926841297       -4.3325030612  MEMB      1               0.0000000000
     38965      1261  PVPG      C313            0.7477937939       -1.7769497758       -4.3457554278  MEMB      1               0.0000000000
     38966      1261  PVPG      H13X           -0.1015421050       -2.0319796352       -3.6764949159  MEMB      1               0.0000000000
     38967      1261  PVPG      H13Y            0.3412143986       -1.1401714841       -5.1603272548  MEMB      1               0.0000000000
     38968      1261  PVPG      C314            1.8029289288       -1.0393107764       -3.5618731984  MEMB      1               0.0000000000
     38969      1261  PVPG      H14X            1.6380870146        0.0505339734       -3.7011096031  MEMB      1               0.0000000000
     38970      1261  PVPG      H14Y            2.7920941662       -1.3560855265       -3.9562421887  MEMB      1               0.0000000000
     38971      1261  PVPG      C315            1.6409717890       -1.4325105473       -2.0551744403  MEMB      1               0.0000000000
     38972      1261  PVPG      H15X            0.5785596142       -1.3142267485       -1.7525015054  MEMB      1               0.0000000000
     38973      1261  PVPG      H15Y            2.2080580994       -0.6752089921       -1.4727408868  MEMB      1               0.0000000000
     38974      1261  PVPG      C316            2.2778479598       -2.8165567577       -1.6408064039  MEMB      1               0.0000000000
     38975      1261  PVPG      H16X            2.9592216315       -2.6883368385       -0.7726985428  MEMB      1               0.0000000000
     38976      1261  PVPG      H16Y            1.5594687609       -3.6314154629       -1.4078733101  MEMB      1               0.0000000000
     38977      1261  PVPG      H16Z            2.8522671752       -3.1057164585       -2.5467587144  MEMB      1               0.0000000000
     38978      1262  PPPE      N              -1.3116330256        5.6783417403      -19.4158696840  MEMB      2               0.0000000000
     38979      1262  PPPE      HN1            -0.9832005589        6.0745312926      -18.5121186378  MEMB      2               0.0000000000
     38980      1262  PPPE      HN2            -0.4941389249        5.5195549915      -20.0388385145  MEMB      2               0.0000000000
     38981      1262  PPPE      HN3            -2.1012331793        6.1251030288      -19.9243339879  MEMB      2               0.0000000000
     38982      1262  PPPE      C12            -1.6015770052        4.2201506383      -19.3080077336  MEMB      2               0.0000000000
     38983      1262  PPPE      H12A           -0.7936040019        3.7995407722      -18.6719354370  MEMB      2               0.0000000000
     38984      1262  PPPE      H12B           -1.3327728272        3.9261227856      -20.3451253430  MEMB      2               0.0000000000
     38985      1262  PPPE      C11            -2.9719343873        3.8305318476      -18.7139627596  MEMB      2               0.0000000000
     38986      1262  PPPE      H11A           -2.8566159720        4.1705463381      -17.6625766225  MEMB      2               0.0000000000
     38987      1262  PPPE      H11B           -3.1430832144        2.7438547775      -18.8694041456  MEMB      2               0.0000000000
     38988      1262  PPPE      P              -5.4904477798        4.4079628573      -18.9304092678  MEMB      2               0.0000000000
     38989      1262  PPPE      O13            -6.3365742228        5.0868761325      -19.9450396787  MEMB      2               0.0000000000
     38990      1262  PPPE      O14            -5.7518083747        2.9518223582      -18.7020338263  MEMB      2               0.0000000000
     38991      1262  PPPE      O11            -5.4769701260        5.1272196494      -17.6116837755  MEMB      2               0.0000000000
     38992      1262  PPPE      O12            -3.9533566824        4.5432443091      -19.3729930990  MEMB      2               0.0000000000
     38993      1262  PPPE      C1             -4.9449077360        6.4595530426      -17.5074676922  MEMB      2               0.0000000000
     38994      1262  PPPE      HA             -5.8376703069        7.1195316370      -17.4659436383  MEMB      2               0.0000000000
     38995      1262  PPPE      HB             -4.2595063558        6.8545540579      -18.2875447050  MEMB      2               0.0000000000
     38996      1262  PPPE      C2             -4.2097194106        6.5081850584      -16.1103105600  MEMB      2               0.0000000000
     38997      1262  PPPE      HS             -3.2450423177        5.9759697167      -16.2533697658  MEMB      2               0.0000000000
     38998      1262  PPPE      O21            -5.1206586460        5.8598164524      -15.1147943143  MEMB      2               0.0000000000
     38999      1262  PPPE      C21            -4.3994638132        5.1417479033      -14.2112633280  MEMB      2               0.0000000000
     39000      1262  PPPE      O22            -3.2273723492        4.8670395724      -14.2111211513  MEMB      2               0.0000000000
     39001      1262  PPPE      C22            -5.4141999715        4.3345264184      -13.2713117812  MEMB      2               0.0000000000
     39002      1262  PPPE      H2R            -6.0370696395        3.6512037878      -13.8872862605  MEMB      2               0.0000000000
     39003      1262  PPPE      H2S            -6.0939927286        5.1079948003      -12.8542392821  MEMB      2               0.0000000000
     39004      1262  PPPE      C3             -3.9158411842        7.9951983261      -15.7421076041  MEMB      2               0.0000000000
     39005      1262  PPPE      HX             -3.7885969739        8.6362936370      -16.6405099156  MEMB      2               0.0000000000
     39006      1262  PPPE      HY             -4.7949420260        8.4956588855      -15.2827145932  MEMB      2               0.0000000000
     39007      1262  PPPE      O31            -2.6606558224        8.0922160155      -14.9325049017  MEMB      2               0.0000000000
     39008      1262  PPPE      C31            -2.5609306235        8.1665461778      -13.6201251265  MEMB      2               0.0000000000
     39009      1262  PPPE      O32            -3.4897558535        8.3281778407      -12.8064258431  MEMB      2               0.0000000000
     39010      1262  PPPE      C32            -1.1039672212        7.9104353368      -13.1490414788  MEMB      2               0.0000000000
     39011      1262  PPPE      H2X            -0.3381223657        8.5865066947      -13.5857681399  MEMB      2               0.0000000000
     39012      1262  PPPE      H2Y            -0.7678123896        6.8806587907      -13.3957826270  MEMB      2               0.0000000000
     39013      1262  PPPE      C23            -4.6612548631        3.4265050768      -12.2148037296  MEMB      2               0.0000000000
     39014      1262  PPPE      H3R            -3.9905039778        2.7097567680      -12.7350787642  MEMB      2               0.0000000000
     39015      1262  PPPE      H3S            -5.3588803917        2.6647800879      -11.8056403599  MEMB      2               0.0000000000
     39016      1262  PPPE      C24            -4.0234187303        4.1737342814      -11.1109520367  MEMB      2               0.0000000000
     39017      1262  PPPE      H4R            -4.7815831715        4.9096575157      -10.7675504156  MEMB      2               0.0000000000
     39018      1262  PPPE      H4S            -3.0942433170        4.5988620161      -11.5470947435  MEMB      2               0.0000000000
     39019      1262  PPPE      C25            -3.5618433891        3.2510201700       -9.9344325471  MEMB      2               0.0000000000
     39020      1262  PPPE      H5R            -2.8744829598        2.5155466425      -10.4044701314  MEMB      2               0.0000000000
     39021      1262  PPPE      H5S            -4.3261997901        2.7202993120       -9.3274600081  MEMB      2               0.0000000000
     39022      1262  PPPE      C26            -2.6098194414        3.9740880968       -8.9235837708  MEMB      2               0.0000000000
     39023      1262  PPPE      H6R            -1.8785344359        4.6076404302       -9.4696191925  MEMB      2               0.0000000000
     39024      1262  PPPE      H6S            -2.0602133641        3.2051424218       -8.3396516611  MEMB      2               0.0000000000
     39025      1262  PPPE      C27            -3.4286699312        4.8170556432       -7.9517964177  MEMB      2               0.0000000000
     39026      1262  PPPE      H7R            -4.0677276713        4.1194443779       -7.3693320606  MEMB      2               0.0000000000
     39027      1262  PPPE      H7S            -4.0430421334        5.5316200034       -8.5402397643  MEMB      2               0.0000000000
     39028      1262  PPPE      C28            -2.5525561913        5.4383317105       -6.8513179678  MEMB      2               0.0000000000
     39029      1262  PPPE      H8R            -1.7011752830        5.9146847760       -7.3828810460  MEMB      2               0.0000000000
     39030      1262  PPPE      H8S            -2.1972685373        4.7296607329       -6.0729368731  MEMB      2               0.0000000000
     39031      1262  PPPE      C29            -3.3462266569        6.4849320741       -6.1300540818  MEMB      2               0.0000000000
     39032      1262  PPPE      H91            -3.5538116854        7.4060077214       -6.6944370263  MEMB      2               0.0000000000
     39033      1262  PPPE      C210           -3.8629452468        6.4374937909       -4.9178682551  MEMB      2               0.0000000000
     39034      1262  PPPE      H101           -4.4185119369        7.2256474118       -4.3885672794  MEMB      2               0.0000000000
     39035      1262  PPPE      C211           -3.7403888984        5.1767592887       -3.9882349774  MEMB      2               0.0000000000
     39036      1262  PPPE      H11R           -3.5313299202        5.6024565525       -2.9835473726  MEMB      2               0.0000000000
     39037      1262  PPPE      H11S           -2.9442721503        4.4322579891       -4.2032627384  MEMB      2               0.0000000000
     39038      1262  PPPE      C212           -4.9473137071        4.2447438963       -3.8933383842  MEMB      2               0.0000000000
     39039      1262  PPPE      H12R           -4.5085460972        3.3088972666       -3.4859134580  MEMB      2               0.0000000000
     39040      1262  PPPE      H12S           -5.4374292504        4.2870385085       -4.8894904408  MEMB      2               0.0000000000
     39041      1262  PPPE      C213           -6.1192843956        4.6470268483       -2.9692012850  MEMB      2               0.0000000000
     39042      1262  PPPE      H13R           -6.7741292699        3.7557029835       -3.0742772506  MEMB      2               0.0000000000
     39043      1262  PPPE      H13S           -6.6194531540        5.5768091271       -3.3151161985  MEMB      2               0.0000000000
     39044      1262  PPPE      C214           -5.7384933314        4.5980574388       -1.3978965263  MEMB      2               0.0000000000
     39045      1262  PPPE      H14R           -4.9753518488        5.3825731870       -1.2069223961  MEMB      2               0.0000000000
     39046      1262  PPPE      H14S           -5.2632799311        3.6183213439       -1.1774188438  MEMB      2               0.0000000000
     39047      1262  PPPE      C215           -7.0126923301        4.6329871061       -0.5529155437  MEMB      2               0.0000000000
     39048      1262  PPPE      H15R           -7.4639161417        3.6498755448       -0.8063119327  MEMB      2               0.0000000000
     39049      1262  PPPE      H15S           -7.6832984576        5.4788894081       -0.8157038940  MEMB      2               0.0000000000
     39050      1262  PPPE      C216           -6.7951994514        4.5543323172        0.9866868529  MEMB      2               0.0000000000
     39051      1262  PPPE      H16R           -6.3181285045        3.5755875692        1.2075556600  MEMB      2               0.0000000000
     39052      1262  PPPE      H16S           -6.2806226477        5.4557934036        1.3827924233  MEMB      2               0.0000000000
     39053      1262  PPPE      H16T           -7.8594157749        4.5112887463        1.3027752387  MEMB      2               0.0000000000
     39054      1262  PPPE      C33            -1.0723261398        7.9054512308      -11.5924279837  MEMB      2               0.0000000000
     39055      1262  PPPE      H3X            -0.1429502579        7.3419286186      -11.3621591501  MEMB      2               0.0000000000
     39056      1262  PPPE      H3Y            -1.9135842549        7.3507169114      -11.1245865378  MEMB      2               0.0000000000
     39057      1262  PPPE      C34            -0.8412112253        9.3096623085      -11.0133065654  MEMB      2               0.0000000000
     39058      1262  PPPE      H4X            -1.5953148667       10.0592768549      -11.3353729093  MEMB      2               0.0000000000
     39059      1262  PPPE      H4Y             0.0862095728        9.7020567014      -11.4826021052  MEMB      2               0.0000000000
     39060      1262  PPPE      C35            -0.8728763617        9.3415760499       -9.4610155497  MEMB      2               0.0000000000
     39061      1262  PPPE      H5X            -0.6773638415       10.3718794064       -9.0941765548  MEMB      2               0.0000000000
     39062      1262  PPPE      H5Y            -0.0816290751        8.5906607464       -9.2503619514  MEMB      2               0.0000000000
     39063      1262  PPPE      C36            -2.1538099891        8.8486254280       -8.8559488881  MEMB      2               0.0000000000
     39064      1262  PPPE      H6X            -2.0275001561        8.9133202221       -7.7540498865  MEMB      2               0.0000000000
     39065      1262  PPPE      H6Y            -2.0473660798        7.7691480367       -9.0961972092  MEMB      2               0.0000000000
     39066      1262  PPPE      C37            -3.3962614409        9.4180604647       -9.3664130807  MEMB      2               0.0000000000
     39067      1262  PPPE      H7X            -3.5393213296        8.9192709471      -10.3487897322  MEMB      2               0.0000000000
     39068      1262  PPPE      H7Y            -3.4202454155       10.5241159208       -9.4683301903  MEMB      2               0.0000000000
     39069      1262  PPPE      C38            -4.7585761207        9.1185558210       -8.6181759162  MEMB      2               0.0000000000
     39070      1262  PPPE      H8X            -4.8098822451        8.0163741406       -8.4882366031  MEMB      2               0.0000000000
     39071      1262  PPPE      H8Y            -5.5541129680        9.4881275933       -9.2999814822  MEMB      2               0.0000000000
     39072      1262  PPPE      C39            -4.9527156337        9.7350267602       -7.2356775958  MEMB      2               0.0000000000
     39073      1262  PPPE      H9X            -4.9312199953       10.8358297585       -7.3843103538  MEMB      2               0.0000000000
     39074      1262  PPPE      H9Y            -4.2065814859        9.4818691598       -6.4524049339  MEMB      2               0.0000000000
     39075      1262  PPPE      C310           -6.4249347811        9.5826126526       -6.7662429939  MEMB      2               0.0000000000
     39076      1262  PPPE      H10X           -6.4713733800        8.5341356903       -6.4017426287  MEMB      2               0.0000000000
     39077      1262  PPPE      H10Y           -7.0673751393        9.6818872695       -7.6672068869  MEMB      2               0.0000000000
     39078      1262  PPPE      C311           -6.9079612407       10.5095146569       -5.7175505885  MEMB      2               0.0000000000
     39079      1262  PPPE      H11X           -7.9884274281       10.3794062331       -5.4939759560  MEMB      2               0.0000000000
     39080      1262  PPPE      H11Y           -6.6856438125       11.5525484753       -6.0289609524  MEMB      2               0.0000000000
     39081      1262  PPPE      C312           -6.1421465478       10.2664089184       -4.4195433797  MEMB      2               0.0000000000
     39082      1262  PPPE      H12X           -5.1318832317       10.5607069254       -4.7760229937  MEMB      2               0.0000000000
     39083      1262  PPPE      H12Y           -6.1230384888        9.1661027507       -4.2669582581  MEMB      2               0.0000000000
     39084      1262  PPPE      C313           -6.7451614934       10.9520557743       -3.2177423871  MEMB      2               0.0000000000
     39085      1262  PPPE      H13X           -6.9942418227       11.9726809618       -3.5791344402  MEMB      2               0.0000000000
     39086      1262  PPPE      H13Y           -5.9625684409       10.8932700805       -2.4313497648  MEMB      2               0.0000000000
     39087      1262  PPPE      C314           -7.9422285147       10.3909594855       -2.5253299510  MEMB      2               0.0000000000
     39088      1262  PPPE      H14X           -8.7855707060       10.2056794008       -3.2244481374  MEMB      2               0.0000000000
     39089      1262  PPPE      H14Y           -8.2441858860       11.0875330211       -1.7142023067  MEMB      2               0.0000000000
     39090      1262  PPPE      C315           -7.8046805644        8.9761376427       -1.9512502488  MEMB      2               0.0000000000
     39091      1262  PPPE      H15X           -7.5057941348        8.3615902918       -2.8272179741  MEMB      2               0.0000000000
     39092      1262  PPPE      H15Y           -8.7490980670        8.5517884798       -1.5483552642  MEMB      2               0.0000000000
     39093      1262  PPPE      C316           -6.8035621935        8.8361239149       -0.8334929169  MEMB      2               0.0000000000
     39094      1262  PPPE      H16X           -5.7811381929        9.0575554762       -1.2075760982  MEMB      2               0.0000000000
     39095      1262  PPPE      H16Y           -7.0359526904        9.3768964389        0.1087813183  MEMB      2               0.0000000000
     39096      1262  PPPE      H16Z           -6.8444833440        7.7485360007       -0.6103360480  MEMB      2               0.0000000000
     39097      1263  PPPE      N              -2.6740831958       -5.0844035481      -19.5457274993  MEMB      3               0.0000000000
     39098      1263  PPPE      HN1            -2.2725131761       -4.2282896034      -19.1128182330  MEMB      3               0.0000000000
     39099      1263  PPPE      HN2            -3.3832079387       -5.4799903644      -18.8959173962  MEMB      3               0.0000000000
     39100      1263  PPPE      HN3            -1.9299969502       -5.7579897885      -19.8181559042  MEMB      3               0.0000000000
     39101      1263  PPPE      C12            -3.3896864954       -4.5662103180      -20.6312787635  MEMB      3               0.0000000000
     39102      1263  PPPE      H12A           -3.6606448854       -5.3701778836      -21.3485922963  MEMB      3               0.0000000000
     39103      1263  PPPE      H12B           -2.8582242280       -3.7798812747      -21.2088213976  MEMB      3               0.0000000000
     39104      1263  PPPE      C11            -4.6944287075       -4.0367648400      -20.0273985799  MEMB      3               0.0000000000
     39105      1263  PPPE      H11A           -5.3886475184       -3.6673604439      -20.8122053299  MEMB      3               0.0000000000
     39106      1263  PPPE      H11B           -4.4087331806       -3.1916773474      -19.3651854754  MEMB      3               0.0000000000
     39107      1263  PPPE      P              -6.6344234582       -4.7485797252      -18.3573325330  MEMB      3               0.0000000000
     39108      1263  PPPE      O13            -7.6284311676       -3.8800422026      -18.9723563130  MEMB      3               0.0000000000
     39109      1263  PPPE      O14            -7.1476437006       -6.0705397899      -17.8937721516  MEMB      3               0.0000000000
     39110      1263  PPPE      O11            -5.8224618945       -3.9516581657      -17.1884115092  MEMB      3               0.0000000000
     39111      1263  PPPE      O12            -5.4401006594       -5.0322859681      -19.3837229983  MEMB      3               0.0000000000
     39112      1263  PPPE      C1             -4.5767798521       -4.4156597233      -16.7305960797  MEMB      3               0.0000000000
     39113      1263  PPPE      HA             -3.7245513434       -3.9633012896      -17.2814131242  MEMB      3               0.0000000000
     39114      1263  PPPE      HB             -4.5192631890       -5.5012027555      -16.9599629448  MEMB      3               0.0000000000
     39115      1263  PPPE      C2             -4.4219931772       -4.1141971132      -15.2620030825  MEMB      3               0.0000000000
     39116      1263  PPPE      HS             -3.4555862273       -4.5502637290      -14.9300023086  MEMB      3               0.0000000000
     39117      1263  PPPE      O21            -5.6032742687       -4.6788401591      -14.5550147608  MEMB      3               0.0000000000
     39118      1263  PPPE      C21            -5.4163034642       -5.8479063186      -13.9108530176  MEMB      3               0.0000000000
     39119      1263  PPPE      O22            -4.4197964541       -6.4950404598      -13.8423044913  MEMB      3               0.0000000000
     39120      1263  PPPE      C22            -6.8589966745       -6.3258349034      -13.3296123623  MEMB      3               0.0000000000
     39121      1263  PPPE      H2R            -7.3092458876       -7.0621844454      -14.0291736520  MEMB      3               0.0000000000
     39122      1263  PPPE      H2S            -7.6191982677       -5.5203712950      -13.2421886044  MEMB      3               0.0000000000
     39123      1263  PPPE      C3             -4.3715926510       -2.6126474869      -15.1004329311  MEMB      3               0.0000000000
     39124      1263  PPPE      HX             -3.7209457693       -2.3380015638      -15.9580746117  MEMB      3               0.0000000000
     39125      1263  PPPE      HY             -5.3220527503       -2.0379323954      -15.1259116127  MEMB      3               0.0000000000
     39126      1263  PPPE      O31            -3.5839450722       -2.3141302464      -13.9227112489  MEMB      3               0.0000000000
     39127      1263  PPPE      C31            -4.2505222022       -2.2769328857      -12.7761891645  MEMB      3               0.0000000000
     39128      1263  PPPE      O32            -5.4297804780       -2.5964869528      -12.5548764924  MEMB      3               0.0000000000
     39129      1263  PPPE      C32            -3.2251054768       -1.9563270710      -11.6458581105  MEMB      3               0.0000000000
     39130      1263  PPPE      H2X            -3.0662979352       -0.8697701619      -11.4770527546  MEMB      3               0.0000000000
     39131      1263  PPPE      H2Y            -2.3334180469       -2.5416745393      -11.9566359552  MEMB      3               0.0000000000
     39132      1263  PPPE      C23            -6.5921023571       -6.9301615065      -11.9215837421  MEMB      3               0.0000000000
     39133      1263  PPPE      H3R            -5.5786485300       -7.3835908389      -11.9620087434  MEMB      3               0.0000000000
     39134      1263  PPPE      H3S            -7.3312890434       -7.7188150485      -11.6647771348  MEMB      3               0.0000000000
     39135      1263  PPPE      C24            -6.7200099801       -5.9160143579      -10.7893883407  MEMB      3               0.0000000000
     39136      1263  PPPE      H4R            -7.5687293292       -5.2669749331      -11.0939278153  MEMB      3               0.0000000000
     39137      1263  PPPE      H4S            -5.8013876872       -5.3037891799      -10.6643506890  MEMB      3               0.0000000000
     39138      1263  PPPE      C25            -7.0387551295       -6.5113814013       -9.3732025709  MEMB      3               0.0000000000
     39139      1263  PPPE      H5R            -7.9781479379       -7.0992346106       -9.4525168568  MEMB      3               0.0000000000
     39140      1263  PPPE      H5S            -7.2653076970       -5.6205727542       -8.7491393622  MEMB      3               0.0000000000
     39141      1263  PPPE      C26            -5.8402711007       -7.2717692716       -8.7113755075  MEMB      3               0.0000000000
     39142      1263  PPPE      H6R            -4.9457155852       -6.6131849254       -8.7302987364  MEMB      3               0.0000000000
     39143      1263  PPPE      H6S            -5.5617518581       -8.1166110596       -9.3769507360  MEMB      3               0.0000000000
     39144      1263  PPPE      C27            -6.1131106400       -7.7582113486       -7.2890504330  MEMB      3               0.0000000000
     39145      1263  PPPE      H7R            -6.8027626668       -8.6286571120       -7.2570308277  MEMB      3               0.0000000000
     39146      1263  PPPE      H7S            -6.5244445748       -6.9008232228       -6.7145845978  MEMB      3               0.0000000000
     39147      1263  PPPE      C28            -4.8163499762       -8.3776268034       -6.5590651477  MEMB      3               0.0000000000
     39148      1263  PPPE      H8R            -4.5431236803       -9.2126934711       -7.2390151837  MEMB      3               0.0000000000
     39149      1263  PPPE      H8S            -5.2042284235       -8.8153899272       -5.6144833579  MEMB      3               0.0000000000
     39150      1263  PPPE      C29            -3.6963397916       -7.4243269462       -6.4609687361  MEMB      3               0.0000000000
     39151      1263  PPPE      H91            -3.2122088807       -7.0405376290       -7.3710912670  MEMB      3               0.0000000000
     39152      1263  PPPE      C210           -3.1165789170       -7.0187237373       -5.3251398508  MEMB      3               0.0000000000
     39153      1263  PPPE      H101           -2.3405840287       -6.2403637062       -5.2805573959  MEMB      3               0.0000000000
     39154      1263  PPPE      C211           -3.5759561110       -7.4745746192       -3.9011431551  MEMB      3               0.0000000000
     39155      1263  PPPE      H11R           -2.6471216067       -7.5805568101       -3.3008471956  MEMB      3               0.0000000000
     39156      1263  PPPE      H11S           -4.0168760785       -8.4941336385       -3.8808949884  MEMB      3               0.0000000000
     39157      1263  PPPE      C212           -4.5502063989       -6.4085508489       -3.2800250143  MEMB      3               0.0000000000
     39158      1263  PPPE      H12R           -5.5780922685       -6.4522703355       -3.6993819572  MEMB      3               0.0000000000
     39159      1263  PPPE      H12S           -4.1127189917       -5.3876446744       -3.2540182559  MEMB      3               0.0000000000
     39160      1263  PPPE      C213           -4.8569053613       -6.7312287628       -1.7599943997  MEMB      3               0.0000000000
     39161      1263  PPPE      H13R           -5.2982470543       -7.7397068224       -1.6099593602  MEMB      3               0.0000000000
     39162      1263  PPPE      H13S           -5.5936705089       -5.9912571644       -1.3805999465  MEMB      3               0.0000000000
     39163      1263  PPPE      C214           -3.6661487741       -6.4161007970       -0.8622021361  MEMB      3               0.0000000000
     39164      1263  PPPE      H14R           -3.6196430187       -5.3258725581       -0.6534903686  MEMB      3               0.0000000000
     39165      1263  PPPE      H14S           -2.7289496525       -6.6914572544       -1.3915013217  MEMB      3               0.0000000000
     39166      1263  PPPE      C215           -3.7906373438       -7.2074589046        0.3959441471  MEMB      3               0.0000000000
     39167      1263  PPPE      H15R           -3.9713919654       -8.2429629672        0.0362496891  MEMB      3               0.0000000000
     39168      1263  PPPE      H15S           -4.6689385342       -6.8532924108        0.9768693691  MEMB      3               0.0000000000
     39169      1263  PPPE      C216           -2.5645024840       -7.1422884481        1.3189385945  MEMB      3               0.0000000000
     39170      1263  PPPE      H16R           -2.8276847754       -7.4908428216        2.3404893422  MEMB      3               0.0000000000
     39171      1263  PPPE      H16S           -1.7820262602       -7.8408465288        0.9527848466  MEMB      3               0.0000000000
     39172      1263  PPPE      H16T           -2.2393684379       -6.0799313989        1.3214589399  MEMB      3               0.0000000000
     39173      1263  PPPE      C33            -3.6536123646       -2.6638917216      -10.3619032650  MEMB      3               0.0000000000
     39174      1263  PPPE      H3X            -4.2167571589       -3.5784007443      -10.6462660407  MEMB      3               0.0000000000
     39175      1263  PPPE      H3Y            -4.3640457150       -1.9950375586       -9.8306410293  MEMB      3               0.0000000000
     39176      1263  PPPE      C34            -2.4231098965       -2.8926621143       -9.3768190295  MEMB      3               0.0000000000
     39177      1263  PPPE      H4X            -2.0144566756       -1.9245625443       -9.0161158725  MEMB      3               0.0000000000
     39178      1263  PPPE      H4Y            -1.6333658493       -3.4310096572       -9.9432175313  MEMB      3               0.0000000000
     39179      1263  PPPE      C35            -2.8518725950       -3.7821058059       -8.2101174054  MEMB      3               0.0000000000
     39180      1263  PPPE      H5X            -1.9267372680       -3.8887722636       -7.6042561229  MEMB      3               0.0000000000
     39181      1263  PPPE      H5Y            -3.2590440329       -4.7867490375       -8.4534780377  MEMB      3               0.0000000000
     39182      1263  PPPE      C36            -3.9016638555       -3.2271539004       -7.3369633521  MEMB      3               0.0000000000
     39183      1263  PPPE      H6X            -4.8154679122       -3.1611630496       -7.9653966051  MEMB      3               0.0000000000
     39184      1263  PPPE      H6Y            -3.7167378147       -2.1849418942       -6.9994466950  MEMB      3               0.0000000000
     39185      1263  PPPE      C37            -4.2519060714       -3.9515133841       -5.9315421683  MEMB      3               0.0000000000
     39186      1263  PPPE      H7X            -3.3560604603       -4.2252041459       -5.3341520043  MEMB      3               0.0000000000
     39187      1263  PPPE      H7Y            -4.7575153858       -4.9327561637       -6.0574104677  MEMB      3               0.0000000000
     39188      1263  PPPE      C38            -4.9386747146       -2.9646476947       -4.9908467126  MEMB      3               0.0000000000
     39189      1263  PPPE      H8X            -4.2264315578       -2.1271334444       -4.8308449437  MEMB      3               0.0000000000
     39190      1263  PPPE      H8Y            -4.9694548500       -3.4358292678       -3.9851820029  MEMB      3               0.0000000000
     39191      1263  PPPE      C39            -6.3545264723       -2.6258789614       -5.4578557551  MEMB      3               0.0000000000
     39192      1263  PPPE      H9X            -6.8818756280       -3.4776762827       -5.9381319165  MEMB      3               0.0000000000
     39193      1263  PPPE      H9Y            -6.2268611721       -1.8769531245       -6.2684929502  MEMB      3               0.0000000000
     39194      1263  PPPE      C310           -7.2978789665       -2.2351607552       -4.3107023851  MEMB      3               0.0000000000
     39195      1263  PPPE      H10X           -7.3906394202       -3.1444419163       -3.6790978662  MEMB      3               0.0000000000
     39196      1263  PPPE      H10Y           -8.3333610010       -1.9910345042       -4.6308591120  MEMB      3               0.0000000000
     39197      1263  PPPE      C311           -6.8206752156       -1.0941580007       -3.3987779466  MEMB      3               0.0000000000
     39198      1263  PPPE      H11X           -6.6841537472       -0.2520315922       -4.1104702965  MEMB      3               0.0000000000
     39199      1263  PPPE      H11Y           -5.8528266357       -1.3128387708       -2.8990091530  MEMB      3               0.0000000000
     39200      1263  PPPE      C312           -7.9161161484       -0.7189301881       -2.3249145366  MEMB      3               0.0000000000
     39201      1263  PPPE      H12X           -8.9420788691       -0.8360258204       -2.7348048982  MEMB      3               0.0000000000
     39202      1263  PPPE      H12Y           -7.6440941162        0.3418485870       -2.1376355885  MEMB      3               0.0000000000
     39203      1263  PPPE      C313           -7.6537728463       -1.4879508338       -1.0243295527  MEMB      3               0.0000000000
     39204      1263  PPPE      H13X           -6.6157371318       -1.1729936238       -0.7843195290  MEMB      3               0.0000000000
     39205      1263  PPPE      H13Y           -7.5796736291       -2.5882343025       -1.1592613660  MEMB      3               0.0000000000
     39206      1263  PPPE      C314           -8.5671447363       -1.2554274569        0.2110149803  MEMB      3               0.0000000000
     39207      1263  PPPE      H14X           -9.6414091010       -1.4496466126        0.0047239372  MEMB      3               0.0000000000
     39208      1263  PPPE      H14Y           -8.5264594658       -0.1626752598        0.4073777686  MEMB      3               0.0000000000
     39209      1263  PPPE      C315           -8.1755722586       -1.9340530582        1.5283095211  MEMB      3               0.0000000000
     39210      1263  PPPE      H15X           -8.8666194373       -1.5735722392        2.3200344582  MEMB      3               0.0000000000
     39211      1263  PPPE      H15Y           -7.2337928361       -1.4746355367        1.8975087360  MEMB      3               0.0000000000
     39212      1263  PPPE      C316           -7.9557705863       -3.4317592662        1.5019630354  MEMB      3               0.0000000000
     39213      1263  PPPE      H16X           -7.8592648451       -3.8531158804        2.5254210197  MEMB      3               0.0000000000
     39214      1263  PPPE      H16Y           -8.8203173362       -3.9413595800        1.0253212020  MEMB      3               0.0000000000
     39215      1263  PPPE      H16Z           -7.0011417877       -3.6571570131        0.9802344540  MEMB      3               0.0000000000
     39216      1264  PVPG      C13             3.3156736053       10.1174837942      -19.8633752694  MEMB      4               0.0000000000
     39217      1264  PVPG      H13A            2.9275545827        9.9661320183      -20.8933157251  MEMB      4               0.0000000000
     39218      1264  PVPG      H13B            2.5837248253        9.8479941933      -19.0722069255  MEMB      4               0.0000000000
     39219      1264  PVPG      OC3             3.5226173665       11.5297962491      -19.8331288062  MEMB      4               0.0000000000
     39220      1264  PVPG      HO3             2.6697388936       11.9683520618      -19.7899203898  MEMB      4               0.0000000000
     39221      1264  PVPG      C12             4.6467439265        9.3470970222      -19.5482273047  MEMB      4               0.0000000000
     39222      1264  PVPG      H12A            4.9466838630        9.6157801678      -18.5086964289  MEMB      4               0.0000000000
     39223      1264  PVPG      OC2             5.6843401453        9.7760597180      -20.4310783580  MEMB      4               0.0000000000
     39224      1264  PVPG      HO2             6.4123980726        9.1452759742      -20.2393484362  MEMB      4               0.0000000000
     39225      1264  PVPG      C11             4.4759573150        7.7448489956      -19.6184298655  MEMB      4               0.0000000000
     39226      1264  PVPG      H11A            5.4436658586        7.2160429375      -19.4834287436  MEMB      4               0.0000000000
     39227      1264  PVPG      H11B            4.3734415937        7.5993794743      -20.7150839840  MEMB      4               0.0000000000
     39228      1264  PVPG      P               3.2556996183        5.8799604808      -18.1750100688  MEMB      4               0.0000000000
     39229      1264  PVPG      O13             4.6206979108        5.3043151607      -18.0826733213  MEMB      4               0.0000000000
     39230      1264  PVPG      O14             2.2425228033        4.9809525020      -18.7598981508  MEMB      4               0.0000000000
     39231      1264  PVPG      O12             3.3473524321        7.2901164012      -18.8940079220  MEMB      4               0.0000000000
     39232      1264  PVPG      O11             2.7284298731        6.2411988746      -16.7941709321  MEMB      4               0.0000000000
     39233      1264  PVPG      C1              2.6382040938        7.4778272296      -16.1829995838  MEMB      4               0.0000000000
     39234      1264  PVPG      HA              1.5895976360        7.8362556993      -16.2622112128  MEMB      4               0.0000000000
     39235      1264  PVPG      HB              3.2787131711        8.2544382066      -16.6530468582  MEMB      4               0.0000000000
     39236      1264  PVPG      C2              2.9472935295        7.4754514190      -14.6487591198  MEMB      4               0.0000000000
     39237      1264  PVPG      HS              2.8841009204        8.5368283349      -14.3265684444  MEMB      4               0.0000000000
     39238      1264  PVPG      O21             4.2945020494        7.0452308065      -14.4715251902  MEMB      4               0.0000000000
     39239      1264  PVPG      C21             5.2527878628        8.0702926829      -14.4426838521  MEMB      4               0.0000000000
     39240      1264  PVPG      O22             4.9511031113        9.2720434423      -14.5370420936  MEMB      4               0.0000000000
     39241      1264  PVPG      C22             6.6410142498        7.4382238722      -14.4769760082  MEMB      4               0.0000000000
     39242      1264  PVPG      H2R             7.3259742865        7.9721716602      -15.1698325953  MEMB      4               0.0000000000
     39243      1264  PVPG      H2S             6.6833607091        6.4250607741      -14.9308794580  MEMB      4               0.0000000000
     39244      1264  PVPG      C3              2.0697958590        6.5611682327      -13.9276685018  MEMB      4               0.0000000000
     39245      1264  PVPG      HX              1.0134270833        6.8762805050      -14.0659073739  MEMB      4               0.0000000000
     39246      1264  PVPG      HY              2.1705426026        5.5383691291      -14.3496320481  MEMB      4               0.0000000000
     39247      1264  PVPG      O31             2.1979249551        6.5183520665      -12.5478892196  MEMB      4               0.0000000000
     39248      1264  PVPG      C31             2.9379118018        5.6463315254      -11.7948213145  MEMB      4               0.0000000000
     39249      1264  PVPG      O32             3.7175750441        4.8444057205      -12.1973971040  MEMB      4               0.0000000000
     39250      1264  PVPG      C32             2.6233139580        5.9823134258      -10.3068748875  MEMB      4               0.0000000000
     39251      1264  PVPG      H2X             3.3401728894        5.4866620514       -9.6178434030  MEMB      4               0.0000000000
     39252      1264  PVPG      H2Y             1.5705962645        5.7370752699      -10.0500381536  MEMB      4               0.0000000000
     39253      1264  PVPG      C23             7.2580729662        7.3608739945      -13.0670653653  MEMB      4               0.0000000000
     39254      1264  PVPG      H3R             7.1200759105        8.2967303719      -12.4844417648  MEMB      4               0.0000000000
     39255      1264  PVPG      H3S             8.3139342812        7.0511047389      -13.2204311195  MEMB      4               0.0000000000
     39256      1264  PVPG      C24             6.6459328462        6.2454461804      -12.2489674012  MEMB      4               0.0000000000
     39257      1264  PVPG      H4R             6.7636932280        5.2484507198      -12.7248388844  MEMB      4               0.0000000000
     39258      1264  PVPG      H4S             5.5565084499        6.4482555708      -12.1693172339  MEMB      4               0.0000000000
     39259      1264  PVPG      C25             7.2126041054        6.2456465568      -10.8785633698  MEMB      4               0.0000000000
     39260      1264  PVPG      H5R             6.6956661559        7.1144922024      -10.4179074295  MEMB      4               0.0000000000
     39261      1264  PVPG      H5S             8.2890040289        6.5206815737      -10.8848720451  MEMB      4               0.0000000000
     39262      1264  PVPG      C26             6.9913427016        4.9348654368      -10.1190502536  MEMB      4               0.0000000000
     39263      1264  PVPG      H6R             7.4175065118        4.0895343569      -10.7005311531  MEMB      4               0.0000000000
     39264      1264  PVPG      H6S             5.9021940263        4.7420246634      -10.2233983897  MEMB      4               0.0000000000
     39265      1264  PVPG      C27             7.2480111555        4.9127428237       -8.6033124669  MEMB      4               0.0000000000
     39266      1264  PVPG      H7R             8.2575897401        5.2955520486       -8.3415330298  MEMB      4               0.0000000000
     39267      1264  PVPG      H7S             7.2140450204        3.8446534999       -8.2994173776  MEMB      4               0.0000000000
     39268      1264  PVPG      C28             6.2407718638        5.7157570308       -7.7623089388  MEMB      4               0.0000000000
     39269      1264  PVPG      H8R             5.1767929991        5.6057581328       -8.0625923854  MEMB      4               0.0000000000
     39270      1264  PVPG      H8S             6.4751399124        6.7954304229       -7.8793475124  MEMB      4               0.0000000000
     39271      1264  PVPG      C29             6.2631031158        5.3252287230       -6.2640911194  MEMB      4               0.0000000000
     39272      1264  PVPG      H9R             6.3256213607        4.2409640637       -6.0300345526  MEMB      4               0.0000000000
     39273      1264  PVPG      H9S             5.2078187884        5.5411484434       -5.9919247600  MEMB      4               0.0000000000
     39274      1264  PVPG      C210            7.3573003854        5.9848099394       -5.4755817552  MEMB      4               0.0000000000
     39275      1264  PVPG      H10R            8.3402927830        5.7023202142       -5.9094556554  MEMB      4               0.0000000000
     39276      1264  PVPG      H10S            7.2154747403        5.5647205248       -4.4568911815  MEMB      4               0.0000000000
     39277      1264  PVPG      C211            7.2786333028        7.5098411834       -5.4258155473  MEMB      4               0.0000000000
     39278      1264  PVPG      H111            7.8716078414        8.0298524155       -6.1926071058  MEMB      4               0.0000000000
     39279      1264  PVPG      C212            6.6808240821        8.1695687426       -4.3843855344  MEMB      4               0.0000000000
     39280      1264  PVPG      H121            6.5563765143        9.2481855972       -4.5607323127  MEMB      4               0.0000000000
     39281      1264  PVPG      C213            5.9666164263        7.6678658589       -3.0620596612  MEMB      4               0.0000000000
     39282      1264  PVPG      H13R            5.5927058613        6.6287354573       -3.1833853312  MEMB      4               0.0000000000
     39283      1264  PVPG      H13S            4.9792813593        8.1746239613       -3.0102265985  MEMB      4               0.0000000000
     39284      1264  PVPG      C214            6.6601387225        7.8378336596       -1.8120831665  MEMB      4               0.0000000000
     39285      1264  PVPG      H14R            5.9803017327        7.7342547352       -0.9394930975  MEMB      4               0.0000000000
     39286      1264  PVPG      H14S            7.0590350113        8.8745093160       -1.8345829903  MEMB      4               0.0000000000
     39287      1264  PVPG      C215            7.8493257779        6.8856861612       -1.5164858470  MEMB      4               0.0000000000
     39288      1264  PVPG      H15R            8.4358733432        7.3327944564       -0.6855960095  MEMB      4               0.0000000000
     39289      1264  PVPG      H15S            8.4602557647        6.9278043017       -2.4434756953  MEMB      4               0.0000000000
     39290      1264  PVPG      C216            7.4545593787        5.4899748127       -1.2366172501  MEMB      4               0.0000000000
     39291      1264  PVPG      H16R            6.5976176887        5.2856058134       -1.9135251788  MEMB      4               0.0000000000
     39292      1264  PVPG      H16S            7.2809567191        5.3963567214       -0.1432652202  MEMB      4               0.0000000000
     39293      1264  PVPG      C217            8.5249554330        4.4183320335       -1.6455047700  MEMB      4               0.0000000000
     39294      1264  PVPG      H17R            8.7052194169        4.5990356888       -2.7267884392  MEMB      4               0.0000000000
     39295      1264  PVPG      H17S            8.0798635125        3.4194995009       -1.4491696308  MEMB      4               0.0000000000
     39296      1264  PVPG      C218            9.8179363333        4.4190674493       -0.8896144631  MEMB      4               0.0000000000
     39297      1264  PVPG      H18R           10.1518550080        5.4773066970       -0.8353091527  MEMB      4               0.0000000000
     39298      1264  PVPG      H18S            9.6632182839        4.0778154420        0.1562969893  MEMB      4               0.0000000000
     39299      1264  PVPG      H18T           10.6623289246        3.9417881114       -1.4313946557  MEMB      4               0.0000000000
     39300      1264  PVPG      C33             2.9720259062        7.4499555931      -10.0159054321  MEMB      4               0.0000000000
     39301      1264  PVPG      H3X             2.5481771386        8.1216762050      -10.7927347103  MEMB      4               0.0000000000
     39302      1264  PVPG      H3Y             4.0794681090        7.5378838168      -10.0031993103  MEMB      4               0.0000000000
     39303      1264  PVPG      C34             2.6021515956        7.9269790466       -8.6038518375  MEMB      4               0.0000000000
     39304      1264  PVPG      H4X             2.7417198503        7.1332832547       -7.8390723812  MEMB      4               0.0000000000
     39305      1264  PVPG      H4Y             1.4950049608        7.9889311846       -8.6724760052  MEMB      4               0.0000000000
     39306      1264  PVPG      C35             3.1567519912        9.3287224548       -8.1479235545  MEMB      4               0.0000000000
     39307      1264  PVPG      H5X             2.9599166950       10.0016052035       -9.0097855771  MEMB      4               0.0000000000
     39308      1264  PVPG      H5Y             4.2286981440        9.1351992849       -7.9292890916  MEMB      4               0.0000000000
     39309      1264  PVPG      C36             2.5066427296        9.9269388459       -6.8277486212  MEMB      4               0.0000000000
     39310      1264  PVPG      H6X             1.4974507436        9.4644209205       -6.8716722551  MEMB      4               0.0000000000
     39311      1264  PVPG      H6Y             2.6761558873       11.0128968493       -6.9898633331  MEMB      4               0.0000000000
     39312      1264  PVPG      C37             3.2682844295        9.5874686849       -5.5746366044  MEMB      4               0.0000000000
     39313      1264  PVPG      H7X             4.3031018599        9.9896785205       -5.6158824776  MEMB      4               0.0000000000
     39314      1264  PVPG      H7Y             3.3676139622        8.4809453876       -5.5668209315  MEMB      4               0.0000000000
     39315      1264  PVPG      C38             2.5359358500        9.9397064858       -4.2997211708  MEMB      4               0.0000000000
     39316      1264  PVPG      H8X             2.2131185629       11.0027347129       -4.2907031074  MEMB      4               0.0000000000
     39317      1264  PVPG      H8Y             3.2317521227        9.7580227758       -3.4528731543  MEMB      4               0.0000000000
     39318      1264  PVPG      C39             1.2369644816        9.1772383930       -4.0762039031  MEMB      4               0.0000000000
     39319      1264  PVPG      H9X             0.4889977848        9.3841196824       -4.8712300636  MEMB      4               0.0000000000
     39320      1264  PVPG      H9Y             0.6306649146        9.5784791176       -3.2361275245  MEMB      4               0.0000000000
     39321      1264  PVPG      C310            1.2585365570        7.6724652325       -3.8255784700  MEMB      4               0.0000000000
     39322      1264  PVPG      H10X            1.3757668561        7.2190328898       -4.8330398483  MEMB      4               0.0000000000
     39323      1264  PVPG      H10Y            0.2044846774        7.4955990374       -3.5222419367  MEMB      4               0.0000000000
     39324      1264  PVPG      C311            2.3173461360        7.0288569095       -2.7958315923  MEMB      4               0.0000000000
     39325      1264  PVPG      H11X            2.6392044949        7.9154361097       -2.2087147912  MEMB      4               0.0000000000
     39326      1264  PVPG      H11Y            3.1510951076        6.6262177387       -3.4098879525  MEMB      4               0.0000000000
     39327      1264  PVPG      C312            1.7181776215        6.0181884682       -1.8142815174  MEMB      4               0.0000000000
     39328      1264  PVPG      H12X            1.5909120837        5.0922463072       -2.4149113297  MEMB      4               0.0000000000
     39329      1264  PVPG      H12Y            0.7245025590        6.3841160853       -1.4780844723  MEMB      4               0.0000000000
     39330      1264  PVPG      C313            2.5762292008        5.7313591518       -0.6246125294  MEMB      4               0.0000000000
     39331      1264  PVPG      H13X            3.5970956329        5.4688788858       -0.9756916322  MEMB      4               0.0000000000
     39332      1264  PVPG      H13Y            2.0322382446        4.9040483595       -0.1206763396  MEMB      4               0.0000000000
     39333      1264  PVPG      C314            2.5715456872        6.8875778423        0.3557652330  MEMB      4               0.0000000000
     39334      1264  PVPG      H14X            1.5618200127        7.3391164298        0.2514219822  MEMB      4               0.0000000000
     39335      1264  PVPG      H14Y            3.3261032217        7.6267785673        0.0114606477  MEMB      4               0.0000000000
     39336      1264  PVPG      C315            2.8164332356        6.4456990049        1.8823209603  MEMB      4               0.0000000000
     39337      1264  PVPG      H15X            2.9216799403        7.3409575785        2.5317498732  MEMB      4               0.0000000000
     39338      1264  PVPG      H15Y            3.7870637658        5.9069631162        1.9266070120  MEMB      4               0.0000000000
     39339      1264  PVPG      C316            1.6862003049        5.6427127555        2.6068045599  MEMB      4               0.0000000000
     39340      1264  PVPG      H16X            1.4303028115        4.7058214964        2.0672932827  MEMB      4               0.0000000000
     39341      1264  PVPG      H16Y            2.1327556944        5.3728794157        3.5876693383  MEMB      4               0.0000000000
     39342      1264  PVPG      H16Z            0.8221092311        6.3283063883        2.7395804400  MEMB      4               0.0000000000
     39343      1265  PPPE      N               2.7257153743      -13.0499432840      -20.6283327121  MEMB      5               0.0000000000
     39344      1265  PPPE      HN1             2.9786336464      -13.6037987332      -19.7851977947  MEMB      5               0.0000000000
     39345      1265  PPPE      HN2             1.7010219473      -12.8808283258      -20.5735284097  MEMB      5               0.0000000000
     39346      1265  PPPE      HN3             2.9665408811      -13.6310832327      -21.4565110957  MEMB      5               0.0000000000
     39347      1265  PPPE      C12             3.3661099193      -11.6460890433      -20.7017006359  MEMB      5               0.0000000000
     39348      1265  PPPE      H12A            2.9040902772      -11.1632544958      -21.5892419870  MEMB      5               0.0000000000
     39349      1265  PPPE      H12B            4.4691444012      -11.7570835997      -20.7746125010  MEMB      5               0.0000000000
     39350      1265  PPPE      C11             3.0284062857      -10.8000320794      -19.4101443387  MEMB      5               0.0000000000
     39351      1265  PPPE      H11A            3.5470087118       -9.8772997272      -19.7476906758  MEMB      5               0.0000000000
     39352      1265  PPPE      H11B            3.5420022845      -11.3394946935      -18.5858141633  MEMB      5               0.0000000000
     39353      1265  PPPE      P               1.0277707956       -9.4690468200      -18.2526255993  MEMB      5               0.0000000000
     39354      1265  PPPE      O13             1.1542097465       -8.1081337350      -18.8040693539  MEMB      5               0.0000000000
     39355      1265  PPPE      O14            -0.3680651955       -9.8549521845      -17.7922979420  MEMB      5               0.0000000000
     39356      1265  PPPE      O11             2.1520948345       -9.5594301020      -17.1376180972  MEMB      5               0.0000000000
     39357      1265  PPPE      O12             1.6230970306      -10.6522460755      -19.2732112800  MEMB      5               0.0000000000
     39358      1265  PPPE      C1              2.2473342644      -10.7551328301      -16.3919042715  MEMB      5               0.0000000000
     39359      1265  PPPE      HA              3.3061875312      -10.9696286417      -16.1327859468  MEMB      5               0.0000000000
     39360      1265  PPPE      HB              1.9573568681      -11.6588458546      -16.9694307898  MEMB      5               0.0000000000
     39361      1265  PPPE      C2              1.4596062456      -10.8576528422      -15.0430184678  MEMB      5               0.0000000000
     39362      1265  PPPE      HS              0.3650296067      -10.6767140069      -15.1020448991  MEMB      5               0.0000000000
     39363      1265  PPPE      O21             2.1035587623       -9.8313910901      -14.1709522482  MEMB      5               0.0000000000
     39364      1265  PPPE      C21             1.3756087668       -9.7041431225      -13.0241187824  MEMB      5               0.0000000000
     39365      1265  PPPE      O22             0.5107851531      -10.4679456632      -12.6938903129  MEMB      5               0.0000000000
     39366      1265  PPPE      C22             1.8667156916       -8.4515341429      -12.3435299786  MEMB      5               0.0000000000
     39367      1265  PPPE      H2R             1.7076993524       -7.6673201190      -13.1142719383  MEMB      5               0.0000000000
     39368      1265  PPPE      H2S             2.9679504229       -8.5795716275      -12.2713533268  MEMB      5               0.0000000000
     39369      1265  PPPE      C3              1.7512028189      -12.3357657767      -14.5592939704  MEMB      5               0.0000000000
     39370      1265  PPPE      HX              1.1237060177      -12.5699774791      -13.6728890726  MEMB      5               0.0000000000
     39371      1265  PPPE      HY              1.4415981379      -13.0841060793      -15.3198547719  MEMB      5               0.0000000000
     39372      1265  PPPE      O31             3.1344938770      -12.5197402362      -14.1006559246  MEMB      5               0.0000000000
     39373      1265  PPPE      C31             3.6054763157      -13.7352829026      -13.9941949484  MEMB      5               0.0000000000
     39374      1265  PPPE      O32             2.9880446121      -14.7474122773      -14.2400095136  MEMB      5               0.0000000000
     39375      1265  PPPE      C32             5.1525480444      -13.7006492065      -13.5638071057  MEMB      5               0.0000000000
     39376      1265  PPPE      H2X             5.7311103365      -13.1234261544      -14.3164027623  MEMB      5               0.0000000000
     39377      1265  PPPE      H2Y             5.6315727421      -14.6990589909      -13.6534410347  MEMB      5               0.0000000000
     39378      1265  PPPE      C23             1.0967814598       -8.2344291862      -11.0699712133  MEMB      5               0.0000000000
     39379      1265  PPPE      H3R             0.0217769518       -8.4717330442      -11.2195479052  MEMB      5               0.0000000000
     39380      1265  PPPE      H3S             1.2294243111       -7.1433380476      -10.9079619500  MEMB      5               0.0000000000
     39381      1265  PPPE      C24             1.5417529285       -9.0335301910       -9.8449421607  MEMB      5               0.0000000000
     39382      1265  PPPE      H4R             2.6319789999       -8.9758038871       -9.6390397879  MEMB      5               0.0000000000
     39383      1265  PPPE      H4S             1.2365926775      -10.0938090483       -9.9753529194  MEMB      5               0.0000000000
     39384      1265  PPPE      C25             0.8542680169       -8.6457316027       -8.5299743425  MEMB      5               0.0000000000
     39385      1265  PPPE      H5R             1.3318113428       -9.2942118119       -7.7646333791  MEMB      5               0.0000000000
     39386      1265  PPPE      H5S            -0.1898867282       -9.0209414832       -8.4727081758  MEMB      5               0.0000000000
     39387      1265  PPPE      C26             0.9822076792       -7.1294574914       -8.1258071739  MEMB      5               0.0000000000
     39388      1265  PPPE      H6R             0.3717915564       -6.9040583422       -7.2253026594  MEMB      5               0.0000000000
     39389      1265  PPPE      H6S             0.4555611322       -6.5490978744       -8.9133013832  MEMB      5               0.0000000000
     39390      1265  PPPE      C27             2.3518651507       -6.5298667180       -8.0527506662  MEMB      5               0.0000000000
     39391      1265  PPPE      H7R             2.3333143867       -5.4217277780       -7.9752589969  MEMB      5               0.0000000000
     39392      1265  PPPE      H7S             2.8912819104       -6.7151881796       -9.0061689980  MEMB      5               0.0000000000
     39393      1265  PPPE      C28             3.2868227573       -7.1259406355       -6.9443577628  MEMB      5               0.0000000000
     39394      1265  PPPE      H8R             4.2842693472       -6.7095077842       -7.2012721077  MEMB      5               0.0000000000
     39395      1265  PPPE      H8S             3.3399295868       -8.2355702089       -6.9592867494  MEMB      5               0.0000000000
     39396      1265  PPPE      C29             2.8285177987       -6.6248248599       -5.5827504691  MEMB      5               0.0000000000
     39397      1265  PPPE      H91             3.1142818028       -5.5810632575       -5.3855179885  MEMB      5               0.0000000000
     39398      1265  PPPE      C210            2.2246556315       -7.3825366067       -4.6294238833  MEMB      5               0.0000000000
     39399      1265  PPPE      H101            1.9056190592       -6.8929552631       -3.6974765814  MEMB      5               0.0000000000
     39400      1265  PPPE      C211            1.8997334638       -8.9171689158       -4.7796041651  MEMB      5               0.0000000000
     39401      1265  PPPE      H11R            2.8331572823       -9.4749871265       -5.0073755832  MEMB      5               0.0000000000
     39402      1265  PPPE      H11S            1.1207355074       -9.1060832628       -5.5488860078  MEMB      5               0.0000000000
     39403      1265  PPPE      C212            1.3090112086       -9.4591736857       -3.4975728800  MEMB      5               0.0000000000
     39404      1265  PPPE      H12R            0.6718333131       -8.6598557765       -3.0623531543  MEMB      5               0.0000000000
     39405      1265  PPPE      H12S            2.0707480070       -9.6470430656       -2.7109451752  MEMB      5               0.0000000000
     39406      1265  PPPE      C213            0.4339943067      -10.7001405378       -3.6134539484  MEMB      5               0.0000000000
     39407      1265  PPPE      H13R            0.9072730426      -11.6406178287       -3.9681801859  MEMB      5               0.0000000000
     39408      1265  PPPE      H13S           -0.4258398545      -10.5943758273       -4.3090256854  MEMB      5               0.0000000000
     39409      1265  PPPE      C214           -0.2312373819      -11.0336773625       -2.2589047141  MEMB      5               0.0000000000
     39410      1265  PPPE      H14R           -1.1740491098      -11.5708866610       -2.4973018945  MEMB      5               0.0000000000
     39411      1265  PPPE      H14S           -0.5806862017      -10.1005052040       -1.7675837958  MEMB      5               0.0000000000
     39412      1265  PPPE      C215            0.6742598435      -11.8776004191       -1.2611180959  MEMB      5               0.0000000000
     39413      1265  PPPE      H15R            1.5281545642      -11.2516721339       -0.9243710282  MEMB      5               0.0000000000
     39414      1265  PPPE      H15S            1.0618938623      -12.8264017095       -1.6898802429  MEMB      5               0.0000000000
     39415      1265  PPPE      C216            0.0032141957      -12.4462227827       -0.0312832431  MEMB      5               0.0000000000
     39416      1265  PPPE      H16R           -0.5273639479      -11.6029591557        0.4603612310  MEMB      5               0.0000000000
     39417      1265  PPPE      H16S           -0.6433503102      -13.3225191999       -0.2512376222  MEMB      5               0.0000000000
     39418      1265  PPPE      H16T            0.6873717478      -12.8810668904        0.7284272581  MEMB      5               0.0000000000
     39419      1265  PPPE      C33             5.3847382495      -13.3158344482      -12.1046962903  MEMB      5               0.0000000000
     39420      1265  PPPE      H3X             6.4775040078      -13.4970199489      -12.0189302598  MEMB      5               0.0000000000
     39421      1265  PPPE      H3Y             4.8722619930      -13.9265884673      -11.3309595039  MEMB      5               0.0000000000
     39422      1265  PPPE      C34             5.1198958045      -11.8689085401      -11.8176684678  MEMB      5               0.0000000000
     39423      1265  PPPE      H4X             4.0526502743      -11.6756307754      -12.0584000277  MEMB      5               0.0000000000
     39424      1265  PPPE      H4Y             5.6584095451      -11.2491404347      -12.5661412106  MEMB      5               0.0000000000
     39425      1265  PPPE      C35             5.5259937427      -11.3381691329      -10.4176490466  MEMB      5               0.0000000000
     39426      1265  PPPE      H5X             4.9704428890      -10.3797333529      -10.3334759830  MEMB      5               0.0000000000
     39427      1265  PPPE      H5Y             6.6334416370      -11.2663249865      -10.3655090423  MEMB      5               0.0000000000
     39428      1265  PPPE      C36             5.0485001776      -12.2134788903       -9.3544467308  MEMB      5               0.0000000000
     39429      1265  PPPE      H6X             5.5474698766      -11.8818542499       -8.4188317794  MEMB      5               0.0000000000
     39430      1265  PPPE      H6Y             5.4225935948      -13.2252075471       -9.6204922907  MEMB      5               0.0000000000
     39431      1265  PPPE      C37             3.5209604793      -12.1193348893       -9.2182282811  MEMB      5               0.0000000000
     39432      1265  PPPE      H7X             3.1469126482      -12.2085251568      -10.2605594743  MEMB      5               0.0000000000
     39433      1265  PPPE      H7Y             3.1585526948      -11.1389369660       -8.8416628687  MEMB      5               0.0000000000
     39434      1265  PPPE      C38             2.7911983241      -13.3022635523       -8.4583944911  MEMB      5               0.0000000000
     39435      1265  PPPE      H8X             3.1438154497      -14.2476890019       -8.9233169383  MEMB      5               0.0000000000
     39436      1265  PPPE      H8Y             1.7705668933      -13.0620354496       -8.8257130735  MEMB      5               0.0000000000
     39437      1265  PPPE      C39             2.7675582676      -13.4430134061       -7.0003146000  MEMB      5               0.0000000000
     39438      1265  PPPE      H9X             1.9912987512      -14.1977245788       -6.7510091466  MEMB      5               0.0000000000
     39439      1265  PPPE      H9Y             2.4305551054      -12.4580767594       -6.6121784503  MEMB      5               0.0000000000
     39440      1265  PPPE      C310            4.1940310450      -13.7181292604       -6.4077941401  MEMB      5               0.0000000000
     39441      1265  PPPE      H10X            5.0181660230      -13.2481017482       -6.9858916024  MEMB      5               0.0000000000
     39442      1265  PPPE      H10Y            4.3096094139      -14.8114116927       -6.5680943706  MEMB      5               0.0000000000
     39443      1265  PPPE      C311            4.3573218366      -13.4941445915       -4.8676714591  MEMB      5               0.0000000000
     39444      1265  PPPE      H11X            5.2872103231      -13.9787430474       -4.5005301521  MEMB      5               0.0000000000
     39445      1265  PPPE      H11Y            3.5185809758      -13.9526317231       -4.3014344782  MEMB      5               0.0000000000
     39446      1265  PPPE      C312            4.2789216336      -11.9568234709       -4.4395121535  MEMB      5               0.0000000000
     39447      1265  PPPE      H12X            3.2602041772      -11.5321041924       -4.3124323422  MEMB      5               0.0000000000
     39448      1265  PPPE      H12Y            4.8877175180      -11.4067841156       -5.1886084616  MEMB      5               0.0000000000
     39449      1265  PPPE      C313            4.9484600908      -11.8066548592       -3.0826264133  MEMB      5               0.0000000000
     39450      1265  PPPE      H13X            6.0074861545      -12.1183365465       -3.2076836891  MEMB      5               0.0000000000
     39451      1265  PPPE      H13Y            4.5551533377      -12.4408841680       -2.2595930107  MEMB      5               0.0000000000
     39452      1265  PPPE      C314            4.9624556507      -10.3592154132       -2.5249887080  MEMB      5               0.0000000000
     39453      1265  PPPE      H14X            3.9715336470       -9.9902342935       -2.8659396075  MEMB      5               0.0000000000
     39454      1265  PPPE      H14Y            5.8169678383       -9.8131504526       -2.9787981173  MEMB      5               0.0000000000
     39455      1265  PPPE      C315            4.8651056287      -10.2041162836       -0.9635588843  MEMB      5               0.0000000000
     39456      1265  PPPE      H15X            4.0104950819      -10.7989880165       -0.5761451073  MEMB      5               0.0000000000
     39457      1265  PPPE      H15Y            4.5623423415       -9.1878737293       -0.6320374479  MEMB      5               0.0000000000
     39458      1265  PPPE      C316            6.1345653256      -10.7566078829       -0.2867752566  MEMB      5               0.0000000000
     39459      1265  PPPE      H16X            7.0065383116      -10.1057084633       -0.5110832086  MEMB      5               0.0000000000
     39460      1265  PPPE      H16Y            5.8825908018      -10.8345056820        0.7924660381  MEMB      5               0.0000000000
     39461      1265  PPPE      H16Z            6.4027095550      -11.7486695498       -0.7089521402  MEMB      5               0.0000000000
     39462      1266  PPPE      N               9.0200006861       -7.4080760852      -16.0645796090  MEMB      6               0.0000000000
     39463      1266  PPPE      HN1             9.5369847836       -8.0396918092      -15.4200728053  MEMB      6               0.0000000000
     39464      1266  PPPE      HN2             9.1227275504       -6.3943845001      -15.8560692698  MEMB      6               0.0000000000
     39465      1266  PPPE      HN3             8.0068716984       -7.5461274512      -15.8745494148  MEMB      6               0.0000000000
     39466      1266  PPPE      C12             9.4644020343       -7.9515876114      -17.4778249713  MEMB      6               0.0000000000
     39467      1266  PPPE      H12A            8.7787192313       -8.8056597335      -17.6641604317  MEMB      6               0.0000000000
     39468      1266  PPPE      H12B           10.5101026394       -8.3203940210      -17.4084486309  MEMB      6               0.0000000000
     39469      1266  PPPE      C11             9.3536111256       -6.9360050832      -18.6903986436  MEMB      6               0.0000000000
     39470      1266  PPPE      H11A            9.4712633137       -7.5676856500      -19.5967421900  MEMB      6               0.0000000000
     39471      1266  PPPE      H11B           10.0453372154       -6.1123426481      -18.4121609582  MEMB      6               0.0000000000
     39472      1266  PPPE      P               7.8233773681       -5.4175497252      -20.0305307607  MEMB      6               0.0000000000
     39473      1266  PPPE      O13             8.4969435264       -6.0708588247      -21.1700194858  MEMB      6               0.0000000000
     39474      1266  PPPE      O14             6.3463499942       -5.1861520909      -20.1742631893  MEMB      6               0.0000000000
     39475      1266  PPPE      O11             8.6157221464       -4.0845419548      -19.6182629820  MEMB      6               0.0000000000
     39476      1266  PPPE      O12             8.1002889229       -6.3580547817      -18.7741206832  MEMB      6               0.0000000000
     39477      1266  PPPE      C1              7.9583255552       -2.9057521171      -19.1348256146  MEMB      6               0.0000000000
     39478      1266  PPPE      HA              7.0631717581       -3.1540209130      -18.5254133694  MEMB      6               0.0000000000
     39479      1266  PPPE      HB              7.6438012399       -2.2652239612      -19.9863648894  MEMB      6               0.0000000000
     39480      1266  PPPE      C2              9.0452695778       -2.1308366225      -18.2941600355  MEMB      6               0.0000000000
     39481      1266  PPPE      HS              9.8871462980       -1.8298817813      -18.9536983373  MEMB      6               0.0000000000
     39482      1266  PPPE      O21             9.5913491295       -2.9067753156      -17.3107044451  MEMB      6               0.0000000000
     39483      1266  PPPE      C21            10.7757925509       -2.6389072263      -16.7693586096  MEMB      6               0.0000000000
     39484      1266  PPPE      O22            11.4921044421       -1.7300408445      -16.9392260125  MEMB      6               0.0000000000
     39485      1266  PPPE      C22            11.2053260882       -3.9826665609      -16.0856270840  MEMB      6               0.0000000000
     39486      1266  PPPE      H2R            12.1787184262       -4.2609741309      -16.5432003053  MEMB      6               0.0000000000
     39487      1266  PPPE      H2S            10.5403629196       -4.8167657578      -16.3961484426  MEMB      6               0.0000000000
     39488      1266  PPPE      C3              8.4624899418       -0.7592300905      -17.6389785360  MEMB      6               0.0000000000
     39489      1266  PPPE      HX              9.2994132335       -0.1700892705      -17.2067824020  MEMB      6               0.0000000000
     39490      1266  PPPE      HY              7.9939682198       -0.1604345454      -18.4490725374  MEMB      6               0.0000000000
     39491      1266  PPPE      O31             7.6334987139       -0.9447587104      -16.4971119320  MEMB      6               0.0000000000
     39492      1266  PPPE      C31             6.3094128054       -0.9652560217      -16.7659640679  MEMB      6               0.0000000000
     39493      1266  PPPE      O32             5.7655478821       -0.6749690198      -17.8335218770  MEMB      6               0.0000000000
     39494      1266  PPPE      C32             5.4698842136       -1.4372138563      -15.5368080149  MEMB      6               0.0000000000
     39495      1266  PPPE      H2X             4.3942239382       -1.3603496239      -15.8039556555  MEMB      6               0.0000000000
     39496      1266  PPPE      H2Y             5.6401719466       -0.7153590073      -14.7096147695  MEMB      6               0.0000000000
     39497      1266  PPPE      C23            11.5301625046       -3.8715636329      -14.5545455985  MEMB      6               0.0000000000
     39498      1266  PPPE      H3R            10.8109203945       -3.4191148283      -13.8387929413  MEMB      6               0.0000000000
     39499      1266  PPPE      H3S            12.4783952795       -3.2940529743      -14.5138387983  MEMB      6               0.0000000000
     39500      1266  PPPE      C24            11.7661023057       -5.2957180742      -13.9748930019  MEMB      6               0.0000000000
     39501      1266  PPPE      H4R            12.3699596353       -5.9040750090      -14.6817021455  MEMB      6               0.0000000000
     39502      1266  PPPE      H4S            10.8424788349       -5.8905165430      -13.8091960924  MEMB      6               0.0000000000
     39503      1266  PPPE      C25            12.4261827604       -5.2704517059      -12.6014543364  MEMB      6               0.0000000000
     39504      1266  PPPE      H5R            13.3083006189       -4.5976410736      -12.5421674339  MEMB      6               0.0000000000
     39505      1266  PPPE      H5S            12.8517400595       -6.2786658110      -12.4098132562  MEMB      6               0.0000000000
     39506      1266  PPPE      C26            11.3131092183       -4.8594635384      -11.6582805491  MEMB      6               0.0000000000
     39507      1266  PPPE      H6R            10.3320456671       -5.1791676795      -12.0701355851  MEMB      6               0.0000000000
     39508      1266  PPPE      H6S            11.3585449090       -3.7570772908      -11.5278920568  MEMB      6               0.0000000000
     39509      1266  PPPE      C27            11.5406495945       -5.5132908135      -10.3004256815  MEMB      6               0.0000000000
     39510      1266  PPPE      H7R            12.6186362210       -5.3186504694      -10.1150046209  MEMB      6               0.0000000000
     39511      1266  PPPE      H7S            11.3181532911       -6.5984496668      -10.3855529870  MEMB      6               0.0000000000
     39512      1266  PPPE      C28            10.5405844079       -5.0083500184       -9.1345259024  MEMB      6               0.0000000000
     39513      1266  PPPE      H8R            10.6670685215       -5.8069610679       -8.3725920727  MEMB      6               0.0000000000
     39514      1266  PPPE      H8S             9.4887105745       -5.2395924712       -9.4073067052  MEMB      6               0.0000000000
     39515      1266  PPPE      C29            10.7728740095       -3.6094841017       -8.6729119367  MEMB      6               0.0000000000
     39516      1266  PPPE      H91            10.4306300520       -2.8109889028       -9.3476522504  MEMB      6               0.0000000000
     39517      1266  PPPE      C210           11.5020012892       -3.3072603054       -7.5457186873  MEMB      6               0.0000000000
     39518      1266  PPPE      H101           11.6274506179       -2.2420897070       -7.3014359365  MEMB      6               0.0000000000
     39519      1266  PPPE      C211           12.1629173100       -4.2271860779       -6.5596240124  MEMB      6               0.0000000000
     39520      1266  PPPE      H11R           13.2719793022       -4.1652352210       -6.5811783376  MEMB      6               0.0000000000
     39521      1266  PPPE      H11S           11.8161029866       -5.2797515354       -6.6380254327  MEMB      6               0.0000000000
     39522      1266  PPPE      C212           11.8380136508       -3.9919074691       -5.1191388607  MEMB      6               0.0000000000
     39523      1266  PPPE      H12R           12.4757931246       -4.5196072530       -4.3781319236  MEMB      6               0.0000000000
     39524      1266  PPPE      H12S           10.8128496722       -4.3051013366       -4.8271295825  MEMB      6               0.0000000000
     39525      1266  PPPE      C213           11.9809376219       -2.5061765174       -4.6543299596  MEMB      6               0.0000000000
     39526      1266  PPPE      H13R           11.4902090175       -1.8178989394       -5.3752879420  MEMB      6               0.0000000000
     39527      1266  PPPE      H13S           13.0610333135       -2.2672370251       -4.7573940947  MEMB      6               0.0000000000
     39528      1266  PPPE      C214           11.6144086453       -2.0756142366       -3.2383388634  MEMB      6               0.0000000000
     39529      1266  PPPE      H14R           10.5523215870       -2.3246838385       -3.0279667792  MEMB      6               0.0000000000
     39530      1266  PPPE      H14S           11.8779036529       -0.9974350719       -3.1891344947  MEMB      6               0.0000000000
     39531      1266  PPPE      C215           12.3333429114       -2.8543040651       -2.1106617650  MEMB      6               0.0000000000
     39532      1266  PPPE      H15R           13.4362605615       -2.7602578068       -2.2057877777  MEMB      6               0.0000000000
     39533      1266  PPPE      H15S           12.0687212647       -3.9282614395       -2.2151220067  MEMB      6               0.0000000000
     39534      1266  PPPE      C216           11.8035316642       -2.3799062276       -0.7424888845  MEMB      6               0.0000000000
     39535      1266  PPPE      H16R           12.0554843554       -3.1247384091        0.0424097477  MEMB      6               0.0000000000
     39536      1266  PPPE      H16S           12.1368977249       -1.3768474999       -0.4003467237  MEMB      6               0.0000000000
     39537      1266  PPPE      H16T           10.6953794018       -2.3091262947       -0.7062982173  MEMB      6               0.0000000000
     39538      1266  PPPE      C33             5.9217076514       -2.7792319067      -15.1225941158  MEMB      6               0.0000000000
     39539      1266  PPPE      H3X             7.0022228262       -2.8534118204      -14.8749950499  MEMB      6               0.0000000000
     39540      1266  PPPE      H3Y             5.5976523818       -3.4401806580      -15.9547334853  MEMB      6               0.0000000000
     39541      1266  PPPE      C34             5.2757826721       -3.3630707782      -13.8273490229  MEMB      6               0.0000000000
     39542      1266  PPPE      H4X             5.6862482514       -4.3947169732      -13.8666572493  MEMB      6               0.0000000000
     39543      1266  PPPE      H4Y             4.1656849559       -3.3895943600      -13.7912857462  MEMB      6               0.0000000000
     39544      1266  PPPE      C35             5.7868778800       -2.8690771685      -12.4557966377  MEMB      6               0.0000000000
     39545      1266  PPPE      H5X             5.5245212311       -1.7951436353      -12.3455389608  MEMB      6               0.0000000000
     39546      1266  PPPE      H5Y             6.8971143732       -2.8881210768      -12.4923104507  MEMB      6               0.0000000000
     39547      1266  PPPE      C36             5.3389582005       -3.6343737083      -11.1927886354  MEMB      6               0.0000000000
     39548      1266  PPPE      H6X             5.3393046638       -4.7168966610      -11.4427184995  MEMB      6               0.0000000000
     39549      1266  PPPE      H6Y             4.3110076279       -3.3094687018      -10.9243200954  MEMB      6               0.0000000000
     39550      1266  PPPE      C37             6.0321109483       -3.4472720253       -9.8388767264  MEMB      6               0.0000000000
     39551      1266  PPPE      H7X             6.9159210825       -4.1137772033       -9.7441587534  MEMB      6               0.0000000000
     39552      1266  PPPE      H7Y             5.4077524368       -3.7758944888       -8.9806781913  MEMB      6               0.0000000000
     39553      1266  PPPE      C38             6.3097921373       -1.9860192305       -9.3918221837  MEMB      6               0.0000000000
     39554      1266  PPPE      H8X             5.3486312924       -1.5154407414       -9.0934152205  MEMB      6               0.0000000000
     39555      1266  PPPE      H8Y             6.6318924420       -1.4244414546      -10.2947079990  MEMB      6               0.0000000000
     39556      1266  PPPE      C39             7.4863717085       -1.8963401188       -8.3769561783  MEMB      6               0.0000000000
     39557      1266  PPPE      H9X             7.6287744639       -0.8105261057       -8.1897387003  MEMB      6               0.0000000000
     39558      1266  PPPE      H9Y             8.3467190089       -2.2558011723       -8.9810350422  MEMB      6               0.0000000000
     39559      1266  PPPE      C310            7.3669006178       -2.6946406463       -7.0972909638  MEMB      6               0.0000000000
     39560      1266  PPPE      H10X            8.3198002603       -2.4656222639       -6.5739804903  MEMB      6               0.0000000000
     39561      1266  PPPE      H10Y            7.3946920382       -3.7663730479       -7.3887327185  MEMB      6               0.0000000000
     39562      1266  PPPE      C311            6.2615705986       -2.2620156445       -6.2031849356  MEMB      6               0.0000000000
     39563      1266  PPPE      H11X            5.2714505199       -2.6355927894       -6.5414501369  MEMB      6               0.0000000000
     39564      1266  PPPE      H11Y            6.2542676443       -1.1515639303       -6.1690578584  MEMB      6               0.0000000000
     39565      1266  PPPE      C312            6.3329816677       -2.6915274577       -4.6729149040  MEMB      6               0.0000000000
     39566      1266  PPPE      H12X            6.7248683530       -3.7265681938       -4.5757732521  MEMB      6               0.0000000000
     39567      1266  PPPE      H12Y            5.3903720757       -2.6353598493       -4.0875489016  MEMB      6               0.0000000000
     39568      1266  PPPE      C313            7.3356063648       -1.8069239556       -3.8302839551  MEMB      6               0.0000000000
     39569      1266  PPPE      H13X            7.0323265254       -0.7401962849       -3.8968753610  MEMB      6               0.0000000000
     39570      1266  PPPE      H13Y            8.2759500287       -2.1079993594       -4.3396250933  MEMB      6               0.0000000000
     39571      1266  PPPE      C314            7.3959754564       -2.1229406341       -2.3154494631  MEMB      6               0.0000000000
     39572      1266  PPPE      H14X            8.4930897582       -2.2285925111       -2.1758110384  MEMB      6               0.0000000000
     39573      1266  PPPE      H14Y            7.0155115406       -3.1597711120       -2.1948228954  MEMB      6               0.0000000000
     39574      1266  PPPE      C315            6.9451298552       -1.1017939815       -1.2679877782  MEMB      6               0.0000000000
     39575      1266  PPPE      H15X            5.8975836858       -0.8523349588       -1.5413706943  MEMB      6               0.0000000000
     39576      1266  PPPE      H15Y            7.4445272839       -0.1112365546       -1.3289729590  MEMB      6               0.0000000000
     39577      1266  PPPE      C316            7.0420093015       -1.4600912878        0.2672966574  MEMB      6               0.0000000000
     39578      1266  PPPE      H16X            8.0572027507       -1.8500980238        0.4944486035  MEMB      6               0.0000000000
     39579      1266  PPPE      H16Y            6.7533004347       -0.6688449321        0.9917946869  MEMB      6               0.0000000000
     39580      1266  PPPE      H16Z            6.3470594214       -2.2954833328        0.4985666197  MEMB      6               0.0000000000
     39581      1267  PPPE      N              10.8529746393       -0.5079181007      -18.2079111977  MEMB      7               0.0000000000
     39582      1267  PPPE      HN1            10.1179222809       -0.4420365558      -17.4751372541  MEMB      7               0.0000000000
     39583      1267  PPPE      HN2            11.2406588886       -1.4728763820      -18.1954036701  MEMB      7               0.0000000000
     39584      1267  PPPE      HN3            11.5940274824        0.2007994857      -18.0342446603  MEMB      7               0.0000000000
     39585      1267  PPPE      C12            10.1811637156       -0.2714232391      -19.5216277363  MEMB      7               0.0000000000
     39586      1267  PPPE      H12A            9.3662299821       -1.0067827426      -19.6932389555  MEMB      7               0.0000000000
     39587      1267  PPPE      H12B           10.9786655978       -0.4373082607      -20.2771367751  MEMB      7               0.0000000000
     39588      1267  PPPE      C11             9.5185292863        1.1176708537      -19.6480273294  MEMB      7               0.0000000000
     39589      1267  PPPE      H11A            8.9613876626        1.3070675293      -18.7056669364  MEMB      7               0.0000000000
     39590      1267  PPPE      H11B            8.7912664796        1.0939586172      -20.4875793169  MEMB      7               0.0000000000
     39591      1267  PPPE      P              10.2896822487        3.4200798058      -18.9418279151  MEMB      7               0.0000000000
     39592      1267  PPPE      O13            11.1893784578        4.4613742742      -19.3612786478  MEMB      7               0.0000000000
     39593      1267  PPPE      O14             8.8235560812        3.7864403558      -18.7733508695  MEMB      7               0.0000000000
     39594      1267  PPPE      O11            10.8723006377        2.8717627731      -17.6122927754  MEMB      7               0.0000000000
     39595      1267  PPPE      O12            10.4302069349        2.1338682362      -19.9336835248  MEMB      7               0.0000000000
     39596      1267  PPPE      C1             10.2880621958        2.9949667233      -16.2845915744  MEMB      7               0.0000000000
     39597      1267  PPPE      HA              9.4257165729        2.2956318080      -16.2444455551  MEMB      7               0.0000000000
     39598      1267  PPPE      HB              9.9658030588        4.0452553612      -16.1191714250  MEMB      7               0.0000000000
     39599      1267  PPPE      C2             11.2647283031        2.6881269437      -15.1176445958  MEMB      7               0.0000000000
     39600      1267  PPPE      HS             12.1564030606        3.2760323028      -15.4235929829  MEMB      7               0.0000000000
     39601      1267  PPPE      O21            11.5043492199        1.2443458681      -15.0701755274  MEMB      7               0.0000000000
     39602      1267  PPPE      C21            12.6808642046        0.7813310148      -14.6419884539  MEMB      7               0.0000000000
     39603      1267  PPPE      O22            13.6394004062        1.3705015085      -14.2401762716  MEMB      7               0.0000000000
     39604      1267  PPPE      C22            12.4853423855       -0.7614822693      -14.4271820610  MEMB      7               0.0000000000
     39605      1267  PPPE      H2R            12.3771470179       -1.1707136627      -15.4543842947  MEMB      7               0.0000000000
     39606      1267  PPPE      H2S            11.6760617097       -0.9504065702      -13.6898263826  MEMB      7               0.0000000000
     39607      1267  PPPE      C3             10.8128201752        3.1189364821      -13.7585678790  MEMB      7               0.0000000000
     39608      1267  PPPE      HX             11.5822245956        2.7861981022      -13.0294430554  MEMB      7               0.0000000000
     39609      1267  PPPE      HY             10.8674637083        4.2279848309      -13.7952672590  MEMB      7               0.0000000000
     39610      1267  PPPE      O31             9.4519039697        2.5925580657      -13.5207832222  MEMB      7               0.0000000000
     39611      1267  PPPE      C31             9.0962828092        3.0098287767      -12.2869260703  MEMB      7               0.0000000000
     39612      1267  PPPE      O32             9.7820872824        3.6621136702      -11.5318581148  MEMB      7               0.0000000000
     39613      1267  PPPE      C32             7.8116743552        2.2527169042      -11.9462858639  MEMB      7               0.0000000000
     39614      1267  PPPE      H2X             7.9592754147        1.2709877849      -11.4475445848  MEMB      7               0.0000000000
     39615      1267  PPPE      H2Y             7.1803620779        1.9871338770      -12.8210609574  MEMB      7               0.0000000000
     39616      1267  PPPE      C23            13.7189792337       -1.4069631496      -13.7518198853  MEMB      7               0.0000000000
     39617      1267  PPPE      H3R            14.6556076595       -1.2070753147      -14.3149300392  MEMB      7               0.0000000000
     39618      1267  PPPE      H3S            13.6415843227       -2.5068060316      -13.6151572989  MEMB      7               0.0000000000
     39619      1267  PPPE      C24            14.0664319866       -0.9805713683      -12.3091420257  MEMB      7               0.0000000000
     39620      1267  PPPE      H4R            14.4470371500        0.0621898448      -12.3550741705  MEMB      7               0.0000000000
     39621      1267  PPPE      H4S            14.9194973180       -1.5479748878      -11.8794284159  MEMB      7               0.0000000000
     39622      1267  PPPE      C25            12.8853217457       -0.9710271284      -11.3468203127  MEMB      7               0.0000000000
     39623      1267  PPPE      H5R            12.2493941386       -1.8675042444      -11.5088260506  MEMB      7               0.0000000000
     39624      1267  PPPE      H5S            12.1807982814       -0.1973457577      -11.7201630839  MEMB      7               0.0000000000
     39625      1267  PPPE      C26            13.2355036811       -0.7982648409       -9.8623653792  MEMB      7               0.0000000000
     39626      1267  PPPE      H6R            13.9336723321        0.0605960178       -9.7662427488  MEMB      7               0.0000000000
     39627      1267  PPPE      H6S            13.7177468217       -1.7517921858       -9.5581480955  MEMB      7               0.0000000000
     39628      1267  PPPE      C27            11.9630330397       -0.4632365429       -9.0520373370  MEMB      7               0.0000000000
     39629      1267  PPPE      H7R            11.3284094130       -1.3746754767       -9.0228325055  MEMB      7               0.0000000000
     39630      1267  PPPE      H7S            11.3762547856        0.4010001024       -9.4303325942  MEMB      7               0.0000000000
     39631      1267  PPPE      C28            12.2582310411       -0.0986752071       -7.6225416105  MEMB      7               0.0000000000
     39632      1267  PPPE      H8R            12.7040536575       -0.9150079641       -7.0149529135  MEMB      7               0.0000000000
     39633      1267  PPPE      H8S            11.2767323276        0.2477300407       -7.2339741392  MEMB      7               0.0000000000
     39634      1267  PPPE      C29            13.0809864553        1.1474535808       -7.4818471833  MEMB      7               0.0000000000
     39635      1267  PPPE      H91            12.6460587492        2.0158176829       -7.9983563088  MEMB      7               0.0000000000
     39636      1267  PPPE      C210           14.1885294524        1.4049949798       -6.6426631445  MEMB      7               0.0000000000
     39637      1267  PPPE      H101           14.8049827488        2.3062196850       -6.7760024262  MEMB      7               0.0000000000
     39638      1267  PPPE      C211           14.8230576424        0.4858798648       -5.5987746391  MEMB      7               0.0000000000
     39639      1267  PPPE      H11R           15.9150040651        0.6867789681       -5.5586054932  MEMB      7               0.0000000000
     39640      1267  PPPE      H11S           14.8741451669       -0.5835868217       -5.8953417841  MEMB      7               0.0000000000
     39641      1267  PPPE      C212           14.1748955990        0.5102556278       -4.2468690336  MEMB      7               0.0000000000
     39642      1267  PPPE      H12R           14.7063367288       -0.1785625678       -3.5559125813  MEMB      7               0.0000000000
     39643      1267  PPPE      H12S           13.1474520310        0.1058381639       -4.3698618361  MEMB      7               0.0000000000
     39644      1267  PPPE      C213           13.9147577263        1.9720728385       -3.7097828272  MEMB      7               0.0000000000
     39645      1267  PPPE      H13R           13.1086538813        2.4571935852       -4.3006935246  MEMB      7               0.0000000000
     39646      1267  PPPE      H13S           14.8507249585        2.5473100319       -3.8752775754  MEMB      7               0.0000000000
     39647      1267  PPPE      C214           13.6538015268        1.9458247936       -2.1984506489  MEMB      7               0.0000000000
     39648      1267  PPPE      H14R           14.6651864010        1.7896696939       -1.7659726482  MEMB      7               0.0000000000
     39649      1267  PPPE      H14S           12.9229995394        1.1353410284       -1.9902067496  MEMB      7               0.0000000000
     39650      1267  PPPE      C215           12.9791209547        3.2826177150       -1.7249057113  MEMB      7               0.0000000000
     39651      1267  PPPE      H15R           11.8845841138        3.1835547162       -1.8876835549  MEMB      7               0.0000000000
     39652      1267  PPPE      H15S           13.4112709273        4.1715384966       -2.2322391768  MEMB      7               0.0000000000
     39653      1267  PPPE      C216           13.1996768189        3.4772608192       -0.1640316486  MEMB      7               0.0000000000
     39654      1267  PPPE      H16R           14.2965820169        3.5862307063       -0.0253033154  MEMB      7               0.0000000000
     39655      1267  PPPE      H16S           12.7189635859        4.4551087724        0.0528765531  MEMB      7               0.0000000000
     39656      1267  PPPE      H16T           12.7042669342        2.6901009610        0.4436437612  MEMB      7               0.0000000000
     39657      1267  PPPE      C33             6.9623927066        3.0372718945      -10.9428339821  MEMB      7               0.0000000000
     39658      1267  PPPE      H3X             5.8839371708        2.8258546972      -11.1057984752  MEMB      7               0.0000000000
     39659      1267  PPPE      H3Y             7.0838653920        4.1159551589      -11.1794936570  MEMB      7               0.0000000000
     39660      1267  PPPE      C34             7.0806341218        2.6116358008       -9.3425183740  MEMB      7               0.0000000000
     39661      1267  PPPE      H4X             6.8153739021        1.5363075051       -9.2551852625  MEMB      7               0.0000000000
     39662      1267  PPPE      H4Y             6.2094263204        3.0435540030       -8.8051501266  MEMB      7               0.0000000000
     39663      1267  PPPE      C35             8.2970864871        3.1107043426       -8.5604015023  MEMB      7               0.0000000000
     39664      1267  PPPE      H5X             8.1950752607        4.2170010237       -8.5651304592  MEMB      7               0.0000000000
     39665      1267  PPPE      H5Y             9.2133940821        2.6738491989       -9.0119089495  MEMB      7               0.0000000000
     39666      1267  PPPE      C36             8.3280721947        2.5796332708       -7.0835628887  MEMB      7               0.0000000000
     39667      1267  PPPE      H6X             8.4274218222        1.5000673380       -7.3264374411  MEMB      7               0.0000000000
     39668      1267  PPPE      H6Y             7.3676660718        2.7650220196       -6.5567117798  MEMB      7               0.0000000000
     39669      1267  PPPE      C37             9.5724651879        3.0617965369       -6.2214328152  MEMB      7               0.0000000000
     39670      1267  PPPE      H7X             9.5490193730        4.1712852375       -6.2744056083  MEMB      7               0.0000000000
     39671      1267  PPPE      H7Y            10.5052338281        2.6674174911       -6.6783013219  MEMB      7               0.0000000000
     39672      1267  PPPE      C38             9.6157980904        2.7529299698       -4.7225772509  MEMB      7               0.0000000000
     39673      1267  PPPE      H8X             8.7475101265        3.1627831988       -4.1636341926  MEMB      7               0.0000000000
     39674      1267  PPPE      H8Y            10.4907709217        3.3821590107       -4.4527358930  MEMB      7               0.0000000000
     39675      1267  PPPE      C39             9.7325989921        1.2448072046       -4.4532215826  MEMB      7               0.0000000000
     39676      1267  PPPE      H9X            10.4528313452        0.6822340035       -5.0849634215  MEMB      7               0.0000000000
     39677      1267  PPPE      H9Y             8.7015817011        0.9143457054       -4.7024595075  MEMB      7               0.0000000000
     39678      1267  PPPE      C310           10.0024609617        0.8024486733       -3.0059688076  MEMB      7               0.0000000000
     39679      1267  PPPE      H10X            9.4211513497        1.3764562373       -2.2530309273  MEMB      7               0.0000000000
     39680      1267  PPPE      H10Y           11.0772370883        0.9725281599       -2.7818031414  MEMB      7               0.0000000000
     39681      1267  PPPE      C311            9.8770851893       -0.7004541636       -2.7333985873  MEMB      7               0.0000000000
     39682      1267  PPPE      H11X           10.6888877451       -1.2243634376       -3.2818661643  MEMB      7               0.0000000000
     39683      1267  PPPE      H11Y            8.9234252800       -1.0785618969       -3.1598822555  MEMB      7               0.0000000000
     39684      1267  PPPE      C312            9.9928180706       -0.9096167894       -1.1640619398  MEMB      7               0.0000000000
     39685      1267  PPPE      H12X            9.2992724166       -0.1774581334       -0.6979513006  MEMB      7               0.0000000000
     39686      1267  PPPE      H12Y           11.0240203002       -0.6737016870       -0.8245225070  MEMB      7               0.0000000000
     39687      1267  PPPE      C313            9.5637672203       -2.3804371563       -0.6899496584  MEMB      7               0.0000000000
     39688      1267  PPPE      H13X           10.2716168832       -3.1629151208       -1.0377974553  MEMB      7               0.0000000000
     39689      1267  PPPE      H13Y            8.5800975292       -2.6484828392       -1.1313864610  MEMB      7               0.0000000000
     39690      1267  PPPE      C314            9.3141109268       -2.5690034221        0.8259598101  MEMB      7               0.0000000000
     39691      1267  PPPE      H14X            8.8979631192       -3.5969674382        0.8925329550  MEMB      7               0.0000000000
     39692      1267  PPPE      H14Y            8.4785223426       -1.8957035419        1.1136749283  MEMB      7               0.0000000000
     39693      1267  PPPE      C315           10.5822001416       -2.3166076912        1.6873773312  MEMB      7               0.0000000000
     39694      1267  PPPE      H15X           10.3612974781       -2.6215700456        2.7326146131  MEMB      7               0.0000000000
     39695      1267  PPPE      H15Y           10.9424919938       -1.2656704440        1.6809210210  MEMB      7               0.0000000000
     39696      1267  PPPE      C316           11.7621387982       -3.0866340328        1.2165898377  MEMB      7               0.0000000000
     39697      1267  PPPE      H16X           11.4011203666       -4.0928335904        0.9140189495  MEMB      7               0.0000000000
     39698      1267  PPPE      H16Y           12.1243862946       -2.5767006995        0.2984037198  MEMB      7               0.0000000000
     39699      1267  PPPE      H16Z           12.5401399557       -3.0980617072        2.0096248981  MEMB      7               0.0000000000
     39700      1268  PPPE      N              -9.1842375395        0.8487968834      -18.6972845521  MEMB      8               0.0000000000
     39701      1268  PPPE      HN1            -9.8214633184        0.2725922850      -18.1111688916  MEMB      8               0.0000000000
     39702      1268  PPPE      HN2            -9.1357930610        0.4119842578      -19.6398596752  MEMB      8               0.0000000000
     39703      1268  PPPE      HN3            -8.2550793372        0.9458691992      -18.2402922100  MEMB      8               0.0000000000
     39704      1268  PPPE      C12            -9.7681788216        2.1920655548      -18.8312079874  MEMB      8               0.0000000000
     39705      1268  PPPE      H12A           -9.1905401396        2.7256944953      -19.6159975815  MEMB      8               0.0000000000
     39706      1268  PPPE      H12B           -9.6347717617        2.7718188096      -17.8929064794  MEMB      8               0.0000000000
     39707      1268  PPPE      C11           -11.2889772314        2.1467530968      -19.1243954948  MEMB      8               0.0000000000
     39708      1268  PPPE      H11A          -11.4571486305        2.0863853933      -20.2209332830  MEMB      8               0.0000000000
     39709      1268  PPPE      H11B          -11.6852888223        3.1328972639      -18.8007014964  MEMB      8               0.0000000000
     39710      1268  PPPE      P             -12.9366555853        0.1592523330      -19.1539442826  MEMB      8               0.0000000000
     39711      1268  PPPE      O13           -14.2303764389        0.8320449556      -19.3572425139  MEMB      8               0.0000000000
     39712      1268  PPPE      O14           -12.1837143130       -0.3672449355      -20.2993102770  MEMB      8               0.0000000000
     39713      1268  PPPE      O11           -13.1144210686       -1.0418490646      -18.1669525690  MEMB      8               0.0000000000
     39714      1268  PPPE      O12           -11.8997693970        1.0808649405      -18.3696621416  MEMB      8               0.0000000000
     39715      1268  PPPE      C1            -12.3371030147       -1.2939650642      -17.0516960900  MEMB      8               0.0000000000
     39716      1268  PPPE      HA            -11.3635236513       -0.7589381948      -17.0662037397  MEMB      8               0.0000000000
     39717      1268  PPPE      HB            -12.0492500100       -2.3647358911      -16.9816141100  MEMB      8               0.0000000000
     39718      1268  PPPE      C2            -13.0102725501       -0.8064289490      -15.7286512982  MEMB      8               0.0000000000
     39719      1268  PPPE      HS            -14.0826333292       -1.0953479912      -15.7584698598  MEMB      8               0.0000000000
     39720      1268  PPPE      O21           -12.8521855841        0.5598724055      -15.7160991099  MEMB      8               0.0000000000
     39721      1268  PPPE      C21           -13.7132275583        1.3691009398      -15.0897739910  MEMB      8               0.0000000000
     39722      1268  PPPE      O22           -14.8108215531        0.9152402499      -14.6770266778  MEMB      8               0.0000000000
     39723      1268  PPPE      C22           -13.0587878589        2.7876478592      -14.9271363308  MEMB      8               0.0000000000
     39724      1268  PPPE      H2R           -13.0515334575        3.4441694318      -15.8233772573  MEMB      8               0.0000000000
     39725      1268  PPPE      H2S           -12.0115673174        2.5774616369      -14.6214046027  MEMB      8               0.0000000000
     39726      1268  PPPE      C3            -12.4325350055       -1.4164243253      -14.4888052890  MEMB      8               0.0000000000
     39727      1268  PPPE      HX            -12.4434144089       -2.5226413954      -14.5912085720  MEMB      8               0.0000000000
     39728      1268  PPPE      HY            -11.3492287523       -1.1699742453      -14.4832447239  MEMB      8               0.0000000000
     39729      1268  PPPE      O31           -13.2405298282       -1.2443031517      -13.3422619831  MEMB      8               0.0000000000
     39730      1268  PPPE      C31           -12.6589793104       -0.5532172701      -12.3379136399  MEMB      8               0.0000000000
     39731      1268  PPPE      O32           -11.4924202089       -0.2295639181      -12.2548387444  MEMB      8               0.0000000000
     39732      1268  PPPE      C32           -13.7473862725       -0.3779989758      -11.2353361031  MEMB      8               0.0000000000
     39733      1268  PPPE      H2X           -14.1230043882       -1.3702956147      -10.9058222015  MEMB      8               0.0000000000
     39734      1268  PPPE      H2Y           -14.5970429005        0.1143052136      -11.7549909883  MEMB      8               0.0000000000
     39735      1268  PPPE      C23           -13.8372099235        3.5161320807      -13.7883688523  MEMB      8               0.0000000000
     39736      1268  PPPE      H3R           -13.8517344330        2.8768727036      -12.8798219425  MEMB      8               0.0000000000
     39737      1268  PPPE      H3S           -14.8847059449        3.8003890283      -14.0255840985  MEMB      8               0.0000000000
     39738      1268  PPPE      C24           -13.0291455527        4.8359769701      -13.4684131058  MEMB      8               0.0000000000
     39739      1268  PPPE      H4R           -13.6058373124        5.5829988557      -12.8821487315  MEMB      8               0.0000000000
     39740      1268  PPPE      H4S           -12.6220538185        5.1956491003      -14.4375535903  MEMB      8               0.0000000000
     39741      1268  PPPE      C25           -11.8818179902        4.4318368093      -12.6682358874  MEMB      8               0.0000000000
     39742      1268  PPPE      H5R           -11.0456578232        5.1155427430      -12.9284346023  MEMB      8               0.0000000000
     39743      1268  PPPE      H5S           -11.6402453711        3.3540996090      -12.7884282203  MEMB      8               0.0000000000
     39744      1268  PPPE      C26           -11.9315393038        4.5965676982      -11.1168303845  MEMB      8               0.0000000000
     39745      1268  PPPE      H6R           -12.7322915304        3.9796598454      -10.6558080719  MEMB      8               0.0000000000
     39746      1268  PPPE      H6S           -12.0666304756        5.6878135591      -10.9579157964  MEMB      8               0.0000000000
     39747      1268  PPPE      C27           -10.5567397085        4.2916357813      -10.5913835680  MEMB      8               0.0000000000
     39748      1268  PPPE      H7R            -9.8935675996        4.9523093170      -11.1897431866  MEMB      8               0.0000000000
     39749      1268  PPPE      H7S           -10.2583520093        3.2426662078      -10.8033944519  MEMB      8               0.0000000000
     39750      1268  PPPE      C28           -10.2252510462        4.4300580750       -9.0884166653  MEMB      8               0.0000000000
     39751      1268  PPPE      H8R           -10.6701271045        3.5464160727       -8.5828643885  MEMB      8               0.0000000000
     39752      1268  PPPE      H8S           -10.7055126618        5.3680851421       -8.7365999489  MEMB      8               0.0000000000
     39753      1268  PPPE      C29            -8.7178798541        4.5052368810       -8.7564112961  MEMB      8               0.0000000000
     39754      1268  PPPE      H91            -8.0722460781        4.8670690681       -9.5701892117  MEMB      8               0.0000000000
     39755      1268  PPPE      C210           -8.1608244884        4.1725651275       -7.5590919450  MEMB      8               0.0000000000
     39756      1268  PPPE      H101           -7.1149057255        4.4356273047       -7.3426381802  MEMB      8               0.0000000000
     39757      1268  PPPE      C211           -8.7954843398        3.6871623142       -6.3227700695  MEMB      8               0.0000000000
     39758      1268  PPPE      H11R           -9.7982002323        3.3301170342       -6.6412045317  MEMB      8               0.0000000000
     39759      1268  PPPE      H11S           -8.9919307498        4.4595249860       -5.5486991998  MEMB      8               0.0000000000
     39760      1268  PPPE      C212           -7.9734429431        2.5677661721       -5.6977777104  MEMB      8               0.0000000000
     39761      1268  PPPE      H12R           -6.9057299152        2.8669303641       -5.6284186723  MEMB      8               0.0000000000
     39762      1268  PPPE      H12S           -7.9949961313        1.7188581192       -6.4141655787  MEMB      8               0.0000000000
     39763      1268  PPPE      C213           -8.4555591579        2.0890106519       -4.3334674879  MEMB      8               0.0000000000
     39764      1268  PPPE      H13R           -7.8360352470        1.3402336744       -3.7950957187  MEMB      8               0.0000000000
     39765      1268  PPPE      H13S           -9.4784899986        1.7006190869       -4.5260434143  MEMB      8               0.0000000000
     39766      1268  PPPE      C214           -8.3646370034        3.1673935226       -3.2304370685  MEMB      8               0.0000000000
     39767      1268  PPPE      H14R           -8.7790333639        4.1422298260       -3.5655353199  MEMB      8               0.0000000000
     39768      1268  PPPE      H14S           -7.2960130899        3.4210216105       -3.0629953642  MEMB      8               0.0000000000
     39769      1268  PPPE      C215           -8.9193044014        2.7670592265       -1.8495237758  MEMB      8               0.0000000000
     39770      1268  PPPE      H15R           -9.4320421345        1.7902707110       -1.9810730557  MEMB      8               0.0000000000
     39771      1268  PPPE      H15S           -9.6660311615        3.5362213896       -1.5577880861  MEMB      8               0.0000000000
     39772      1268  PPPE      C216           -7.9144662578        2.4846601445       -0.7344972246  MEMB      8               0.0000000000
     39773      1268  PPPE      H16R           -7.3280619465        3.3859854762       -0.4550985309  MEMB      8               0.0000000000
     39774      1268  PPPE      H16S           -8.4555543698        2.1037062121        0.1579257449  MEMB      8               0.0000000000
     39775      1268  PPPE      H16T           -7.1877100829        1.7298968562       -1.1039276523  MEMB      8               0.0000000000
     39776      1268  PPPE      C33           -13.2039630588        0.1492882345       -9.8998888260  MEMB      8               0.0000000000
     39777      1268  PPPE      H3X           -12.9165948279        1.1985405460      -10.1252997549  MEMB      8               0.0000000000
     39778      1268  PPPE      H3Y           -12.3820012432       -0.4202489211       -9.4158152757  MEMB      8               0.0000000000
     39779      1268  PPPE      C34           -14.3592390165        0.3364732656       -8.8529945599  MEMB      8               0.0000000000
     39780      1268  PPPE      H4X           -14.7874860197       -0.6704159633       -8.6603820346  MEMB      8               0.0000000000
     39781      1268  PPPE      H4Y           -15.1404648654        1.0263073377       -9.2378791215  MEMB      8               0.0000000000
     39782      1268  PPPE      C35           -13.8785253590        0.8339217123       -7.4535083142  MEMB      8               0.0000000000
     39783      1268  PPPE      H5X           -13.1322342327        0.0434098021       -7.2244636140  MEMB      8               0.0000000000
     39784      1268  PPPE      H5Y           -14.8317475210        0.8821974376       -6.8848625859  MEMB      8               0.0000000000
     39785      1268  PPPE      C36           -13.1539332219        2.2182210515       -7.4346188418  MEMB      8               0.0000000000
     39786      1268  PPPE      H6X           -12.4804128796        2.1493955604       -8.3155015810  MEMB      8               0.0000000000
     39787      1268  PPPE      H6Y           -12.5336567472        2.3659152903       -6.5248031975  MEMB      8               0.0000000000
     39788      1268  PPPE      C37           -14.1823052569        3.3545792482       -7.5862315469  MEMB      8               0.0000000000
     39789      1268  PPPE      H7X           -14.8367271578        3.1420685640       -6.7139402052  MEMB      8               0.0000000000
     39790      1268  PPPE      H7Y           -14.5960076979        3.2567809577       -8.6126850454  MEMB      8               0.0000000000
     39791      1268  PPPE      C38           -13.5117474786        4.7025337607       -7.5843952440  MEMB      8               0.0000000000
     39792      1268  PPPE      H8X           -14.3750675481        5.3986665144       -7.5180729492  MEMB      8               0.0000000000
     39793      1268  PPPE      H8Y           -12.8829657583        4.9329411890       -8.4708866230  MEMB      8               0.0000000000
     39794      1268  PPPE      C39           -12.6511692280        5.0267972661       -6.2813767842  MEMB      8               0.0000000000
     39795      1268  PPPE      H9X           -12.4981846879        6.1239262298       -6.1963781512  MEMB      8               0.0000000000
     39796      1268  PPPE      H9Y           -11.6628110405        4.5227990579       -6.2225983922  MEMB      8               0.0000000000
     39797      1268  PPPE      C310          -13.3444967660        4.5714029581       -4.9580419716  MEMB      8               0.0000000000
     39798      1268  PPPE      H10X          -13.4504482515        3.4673885998       -5.0232154270  MEMB      8               0.0000000000
     39799      1268  PPPE      H10Y          -14.3718387944        4.9943334267       -4.9624209460  MEMB      8               0.0000000000
     39800      1268  PPPE      C311          -12.5637100093        5.0330323136       -3.7622313363  MEMB      8               0.0000000000
     39801      1268  PPPE      H11X          -12.6483658719        6.1173468958       -3.5354797725  MEMB      8               0.0000000000
     39802      1268  PPPE      H11Y          -11.5174084621        4.8062629627       -4.0591315450  MEMB      8               0.0000000000
     39803      1268  PPPE      C312          -12.8704723961        4.2007604174       -2.5006325926  MEMB      8               0.0000000000
     39804      1268  PPPE      H12X          -13.9733372224        4.2727580100       -2.3873783579  MEMB      8               0.0000000000
     39805      1268  PPPE      H12Y          -12.3497830945        4.6842002300       -1.6465309601  MEMB      8               0.0000000000
     39806      1268  PPPE      C313          -12.5274812616        2.6989552236       -2.7694579240  MEMB      8               0.0000000000
     39807      1268  PPPE      H13X          -11.6088981425        2.5327922957       -3.3718829686  MEMB      8               0.0000000000
     39808      1268  PPPE      H13Y          -13.3426885700        2.3148805562       -3.4192615054  MEMB      8               0.0000000000
     39809      1268  PPPE      C314          -12.4323275102        1.8298185047       -1.5471713643  MEMB      8               0.0000000000
     39810      1268  PPPE      H14X          -13.2713028200        2.1211352491       -0.8796565825  MEMB      8               0.0000000000
     39811      1268  PPPE      H14Y          -11.5558528890        2.1092428760       -0.9242466024  MEMB      8               0.0000000000
     39812      1268  PPPE      C315          -12.3769082978        0.3235680397       -2.0224632756  MEMB      8               0.0000000000
     39813      1268  PPPE      H15X          -11.6229036128        0.3110693135       -2.8383319641  MEMB      8               0.0000000000
     39814      1268  PPPE      H15Y          -13.3525149512        0.0603404306       -2.4842249929  MEMB      8               0.0000000000
     39815      1268  PPPE      C316          -11.9614657405       -0.6378545977       -0.9218695308  MEMB      8               0.0000000000
     39816      1268  PPPE      H16X          -11.7095445921       -1.6099752991       -1.3970937694  MEMB      8               0.0000000000
     39817      1268  PPPE      H16Y          -10.9817500206       -0.3241758416       -0.5022461925  MEMB      8               0.0000000000
     39818      1268  PPPE      H16Z          -12.7449056362       -0.6683325055       -0.1347138747  MEMB      8               0.0000000000
     39819      1269  PPPE      N              -4.0233242069       11.9666482405      -20.5733143275  MEMB      9               0.0000000000
     39820      1269  PPPE      HN1            -3.1860464849       12.3912467819      -21.0208432036  MEMB      9               0.0000000000
     39821      1269  PPPE      HN2            -4.6030402750       11.5095592544      -21.3058434663  MEMB      9               0.0000000000
     39822      1269  PPPE      HN3            -4.5918540879       12.6527823843      -20.0370366839  MEMB      9               0.0000000000
     39823      1269  PPPE      C12            -3.4669923512       11.0003955664      -19.5421718178  MEMB      9               0.0000000000
     39824      1269  PPPE      H12A           -2.7021635005       10.3673580414      -20.0407912328  MEMB      9               0.0000000000
     39825      1269  PPPE      H12B           -4.2175272529       10.2328357419      -19.2560419922  MEMB      9               0.0000000000
     39826      1269  PPPE      C11            -2.8193168969       11.7160613360      -18.3368430830  MEMB      9               0.0000000000
     39827      1269  PPPE      H11A           -2.2916099711       11.0081942620      -17.6624762644  MEMB      9               0.0000000000
     39828      1269  PPPE      H11B           -3.5863639690       12.3152170108      -17.8011451583  MEMB      9               0.0000000000
     39829      1269  PPPE      P              -2.0228064190       14.2346402605      -18.7770481992  MEMB      9               0.0000000000
     39830      1269  PPPE      O13            -0.8690973666       14.8351509572      -19.4360051636  MEMB      9               0.0000000000
     39831      1269  PPPE      O14            -3.3799794329       14.6694160762      -19.2362020511  MEMB      9               0.0000000000
     39832      1269  PPPE      O11            -1.9573669976       14.4627948856      -17.1863364647  MEMB      9               0.0000000000
     39833      1269  PPPE      O12            -1.8704849598       12.6357862825      -18.9120788666  MEMB      9               0.0000000000
     39834      1269  PPPE      C1             -0.8900530725       13.9527792966      -16.3687311827  MEMB      9               0.0000000000
     39835      1269  PPPE      HA              0.0607548464       14.4932541504      -16.5641083407  MEMB      9               0.0000000000
     39836      1269  PPPE      HB             -0.5928277123       12.9197878391      -16.6496346069  MEMB      9               0.0000000000
     39837      1269  PPPE      C2             -1.3358302866       14.1078373453      -14.9047222806  MEMB      9               0.0000000000
     39838      1269  PPPE      HS             -0.7047959275       13.4739898334      -14.2456669192  MEMB      9               0.0000000000
     39839      1269  PPPE      O21            -2.7543378618       13.7617715242      -14.8073957191  MEMB      9               0.0000000000
     39840      1269  PPPE      C21            -3.1169291205       12.8825908540      -13.9304252798  MEMB      9               0.0000000000
     39841      1269  PPPE      O22            -2.4875224664       12.3736870323      -13.0248640712  MEMB      9               0.0000000000
     39842      1269  PPPE      C22            -4.5604386478       12.6341503983      -14.2778183775  MEMB      9               0.0000000000
     39843      1269  PPPE      H2R            -4.9895023298       11.6219330399      -14.1176891285  MEMB      9               0.0000000000
     39844      1269  PPPE      H2S            -4.6849630907       12.9801899471      -15.3261843889  MEMB      9               0.0000000000
     39845      1269  PPPE      C3             -1.0735322601       15.5852247414      -14.4882193027  MEMB      9               0.0000000000
     39846      1269  PPPE      HX             -0.0286592743       15.8299404421      -14.7757530735  MEMB      9               0.0000000000
     39847      1269  PPPE      HY             -1.7396000745       16.2549030611      -15.0732027339  MEMB      9               0.0000000000
     39848      1269  PPPE      O31            -1.2144594029       15.6231955466      -13.0780640556  MEMB      9               0.0000000000
     39849      1269  PPPE      C31            -2.1748121029       16.3528292030      -12.5321830948  MEMB      9               0.0000000000
     39850      1269  PPPE      O32            -2.8957145818       17.1831920858      -13.0659413703  MEMB      9               0.0000000000
     39851      1269  PPPE      C32            -2.1940660130       16.2770167927      -11.0175196385  MEMB      9               0.0000000000
     39852      1269  PPPE      H2X            -3.2495866980       16.3757637011      -10.6851852715  MEMB      9               0.0000000000
     39853      1269  PPPE      H2Y            -1.5435879613       17.0541854060      -10.5623183085  MEMB      9               0.0000000000
     39854      1269  PPPE      C23            -5.3516295218       13.7312455178      -13.4499282128  MEMB      9               0.0000000000
     39855      1269  PPPE      H3R            -6.3587690990       13.8396076203      -13.9062707669  MEMB      9               0.0000000000
     39856      1269  PPPE      H3S            -4.9497535787       14.7669955452      -13.4561416702  MEMB      9               0.0000000000
     39857      1269  PPPE      C24            -5.5936086911       13.3712178836      -11.9928285384  MEMB      9               0.0000000000
     39858      1269  PPPE      H4R            -4.5876063447       13.2419110852      -11.5394412524  MEMB      9               0.0000000000
     39859      1269  PPPE      H4S            -6.1538093125       12.4130442851      -11.9438426327  MEMB      9               0.0000000000
     39860      1269  PPPE      C25            -6.2913753615       14.5390777469      -11.1768343776  MEMB      9               0.0000000000
     39861      1269  PPPE      H5R            -7.2072518003       14.8350396918      -11.7317198396  MEMB      9               0.0000000000
     39862      1269  PPPE      H5S            -5.5973956766       15.3907147712      -11.3424471057  MEMB      9               0.0000000000
     39863      1269  PPPE      C26            -6.5248699455       14.2046407231       -9.6842693377  MEMB      9               0.0000000000
     39864      1269  PPPE      H6R            -6.6973770788       15.0361367175       -8.9679058126  MEMB      9               0.0000000000
     39865      1269  PPPE      H6S            -5.5551923724       13.7130475249       -9.4553970331  MEMB      9               0.0000000000
     39866      1269  PPPE      C27            -7.6357721502       13.1435441471       -9.5598441744  MEMB      9               0.0000000000
     39867      1269  PPPE      H7R            -7.3998840604       12.2792324725      -10.2168397133  MEMB      9               0.0000000000
     39868      1269  PPPE      H7S            -8.6088647560       13.6170104212       -9.8113227378  MEMB      9               0.0000000000
     39869      1269  PPPE      C28            -7.7056825570       12.6074349156       -8.1033856797  MEMB      9               0.0000000000
     39870      1269  PPPE      H8R            -8.7114341138       12.1356274123       -8.1168944093  MEMB      9               0.0000000000
     39871      1269  PPPE      H8S            -7.8955652875       13.4576385222       -7.4138790619  MEMB      9               0.0000000000
     39872      1269  PPPE      C29            -6.5241784051       11.7819975839       -7.6992538410  MEMB      9               0.0000000000
     39873      1269  PPPE      H91            -6.4883693558       10.7204063893       -7.9851591535  MEMB      9               0.0000000000
     39874      1269  PPPE      C210           -5.5038550129       12.1718882434       -6.8994718612  MEMB      9               0.0000000000
     39875      1269  PPPE      H101           -4.6855929849       11.4445972287       -6.7922569669  MEMB      9               0.0000000000
     39876      1269  PPPE      C211           -5.3702141239       13.4743545120       -6.2716441561  MEMB      9               0.0000000000
     39877      1269  PPPE      H11R           -6.0820109558       14.2218511906       -6.6826368391  MEMB      9               0.0000000000
     39878      1269  PPPE      H11S           -4.3561919690       13.8705984085       -6.4931635547  MEMB      9               0.0000000000
     39879      1269  PPPE      C212           -5.4821714277       13.3430288451       -4.7125082987  MEMB      9               0.0000000000
     39880      1269  PPPE      H12R           -5.0394086642       14.2259581052       -4.2038649493  MEMB      9               0.0000000000
     39881      1269  PPPE      H12S           -4.8910428154       12.4662906464       -4.3716005479  MEMB      9               0.0000000000
     39882      1269  PPPE      C213           -6.8677795426       13.0984275641       -4.2186505662  MEMB      9               0.0000000000
     39883      1269  PPPE      H13R           -7.0844670942       12.0579561984       -4.5423585242  MEMB      9               0.0000000000
     39884      1269  PPPE      H13S           -7.5914896717       13.7057688916       -4.8032026690  MEMB      9               0.0000000000
     39885      1269  PPPE      C214           -7.2752126598       13.2771046237       -2.7520981989  MEMB      9               0.0000000000
     39886      1269  PPPE      H14R           -6.8686351594       12.3882399840       -2.2239548580  MEMB      9               0.0000000000
     39887      1269  PPPE      H14S           -8.3816349000       13.2894495081       -2.6521060482  MEMB      9               0.0000000000
     39888      1269  PPPE      C215           -6.8958564114       14.5890686358       -2.0199247201  MEMB      9               0.0000000000
     39889      1269  PPPE      H15R           -7.2280249647       15.4409488958       -2.6510230283  MEMB      9               0.0000000000
     39890      1269  PPPE      H15S           -5.7936658040       14.4954756276       -1.9163041924  MEMB      9               0.0000000000
     39891      1269  PPPE      C216           -7.6197036351       14.9173206390       -0.6337637097  MEMB      9               0.0000000000
     39892      1269  PPPE      H16R           -7.3870901712       15.9239724422       -0.2252736567  MEMB      9               0.0000000000
     39893      1269  PPPE      H16S           -8.7057575733       14.7595702404       -0.8067453710  MEMB      9               0.0000000000
     39894      1269  PPPE      H16T           -7.3028486135       14.0739117188        0.0163018937  MEMB      9               0.0000000000
     39895      1269  PPPE      C33            -1.7299693837       14.9019969842      -10.5391668686  MEMB      9               0.0000000000
     39896      1269  PPPE      H3X            -0.6827934291       14.8439839391      -10.9057429272  MEMB      9               0.0000000000
     39897      1269  PPPE      H3Y            -2.2976146822       14.0892525901      -11.0407108496  MEMB      9               0.0000000000
     39898      1269  PPPE      C34            -1.8136136660       14.7390286938       -8.9600001553  MEMB      9               0.0000000000
     39899      1269  PPPE      H4X            -2.8890752656       14.6787397238       -8.6878447074  MEMB      9               0.0000000000
     39900      1269  PPPE      H4Y            -1.3401320929       15.6256376579       -8.4866496037  MEMB      9               0.0000000000
     39901      1269  PPPE      C35            -1.0296448890       13.5098758350       -8.3858700375  MEMB      9               0.0000000000
     39902      1269  PPPE      H5X            -0.7750313023       13.4505939306       -7.3060651582  MEMB      9               0.0000000000
     39903      1269  PPPE      H5Y            -0.0852775008       13.5203354924       -8.9710040663  MEMB      9               0.0000000000
     39904      1269  PPPE      C36            -1.8040009677       12.2331198335       -8.6023883484  MEMB      9               0.0000000000
     39905      1269  PPPE      H6X            -2.1699759287       12.3417834157       -9.6457365903  MEMB      9               0.0000000000
     39906      1269  PPPE      H6Y            -2.7702233716       12.2896055627       -8.0569118333  MEMB      9               0.0000000000
     39907      1269  PPPE      C37            -1.0963808063       10.9981015767       -8.2016463662  MEMB      9               0.0000000000
     39908      1269  PPPE      H7X            -0.1690965277       11.0541025733       -8.8110138701  MEMB      9               0.0000000000
     39909      1269  PPPE      H7Y            -1.6504813626       10.0879472368       -8.5161501838  MEMB      9               0.0000000000
     39910      1269  PPPE      C38            -0.6544974278       10.9251845384       -6.7057696222  MEMB      9               0.0000000000
     39911      1269  PPPE      H8X             0.1308700837       11.6731053623       -6.4646611133  MEMB      9               0.0000000000
     39912      1269  PPPE      H8Y            -0.2033869800        9.9452481087       -6.4401666147  MEMB      9               0.0000000000
     39913      1269  PPPE      C39            -1.8470752411       10.9984352599       -5.7500752293  MEMB      9               0.0000000000
     39914      1269  PPPE      H9X            -2.6696897089       10.2808302088       -5.9566410251  MEMB      9               0.0000000000
     39915      1269  PPPE      H9Y            -2.2908543286       11.9974089744       -5.9486517617  MEMB      9               0.0000000000
     39916      1269  PPPE      C310           -1.4607474508       10.7080473293       -4.2995306520  MEMB      9               0.0000000000
     39917      1269  PPPE      H10X           -0.3701620032       10.8673147802       -4.1596083135  MEMB      9               0.0000000000
     39918      1269  PPPE      H10Y           -1.5822144043        9.6323457544       -4.0496648863  MEMB      9               0.0000000000
     39919      1269  PPPE      C311           -2.0856650600       11.5459085941       -3.2051139346  MEMB      9               0.0000000000
     39920      1269  PPPE      H11X           -1.6222180836       11.1383956105       -2.2812789557  MEMB      9               0.0000000000
     39921      1269  PPPE      H11Y           -3.1883335593       11.4109493695       -3.1899749721  MEMB      9               0.0000000000
     39922      1269  PPPE      C312           -1.8202668080       13.0452091777       -3.3852521712  MEMB      9               0.0000000000
     39923      1269  PPPE      H12X           -2.6970345017       13.4551314152       -3.9307456822  MEMB      9               0.0000000000
     39924      1269  PPPE      H12Y           -0.9818857540       13.1531220786       -4.1062188931  MEMB      9               0.0000000000
     39925      1269  PPPE      C313           -1.7260312802       13.7981196786       -2.0499924351  MEMB      9               0.0000000000
     39926      1269  PPPE      H13X           -1.7131215534       14.8651520458       -2.3591788937  MEMB      9               0.0000000000
     39927      1269  PPPE      H13Y           -0.7515278149       13.5011159965       -1.6067624623  MEMB      9               0.0000000000
     39928      1269  PPPE      C314           -2.9021364705       13.5178645309       -1.0736035237  MEMB      9               0.0000000000
     39929      1269  PPPE      H14X           -2.8382470386       12.5264687661       -0.5762368800  MEMB      9               0.0000000000
     39930      1269  PPPE      H14Y           -3.8519516056       13.6180784304       -1.6411679546  MEMB      9               0.0000000000
     39931      1269  PPPE      C315           -2.7792468846       14.5501902111        0.0137691882  MEMB      9               0.0000000000
     39932      1269  PPPE      H15X           -3.1788940281       15.5574665389       -0.2311748054  MEMB      9               0.0000000000
     39933      1269  PPPE      H15Y           -1.7921171911       14.6701922136        0.5092442004  MEMB      9               0.0000000000
     39934      1269  PPPE      C316           -3.7543595403       14.1973870471        1.1410090665  MEMB      9               0.0000000000
     39935      1269  PPPE      H16X           -3.7771325858       14.9974934284        1.9114843530  MEMB      9               0.0000000000
     39936      1269  PPPE      H16Y           -4.7856217269       14.0497218795        0.7549853613  MEMB      9               0.0000000000
     39937      1269  PPPE      H16Z           -3.3818188432       13.2440614920        1.5731025924  MEMB      9               0.0000000000
     39938      1270  PVPG      C13           -11.3823610514        9.7117827640      -21.8468274229  MEMB      10              0.0000000000
     39939      1270  PVPG      H13A          -11.5792374156       10.7164734190      -22.2782869285  MEMB      10              0.0000000000
     39940      1270  PVPG      H13B          -10.8188879101        9.2791015354      -22.7009972028  MEMB      10              0.0000000000
     39941      1270  PVPG      OC3           -12.6263481662        9.0178614340      -21.5670522349  MEMB      10              0.0000000000
     39942      1270  PVPG      HO3           -13.4002217698        9.5725665282      -21.6896159925  MEMB      10              0.0000000000
     39943      1270  PVPG      C12           -10.4926667315        9.8943088368      -20.6243637092  MEMB      10              0.0000000000
     39944      1270  PVPG      H12A           -9.7262100285       10.6610194255      -20.8841290567  MEMB      10              0.0000000000
     39945      1270  PVPG      OC2            -9.8121711917        8.6748399954      -20.3245930382  MEMB      10              0.0000000000
     39946      1270  PVPG      HO2            -9.3866215393        8.8659968949      -19.4602531901  MEMB      10              0.0000000000
     39947      1270  PVPG      C11           -11.2219247658       10.4060213535      -19.3214250266  MEMB      10              0.0000000000
     39948      1270  PVPG      H11A          -11.8771366721        9.6456343222      -18.8451583942  MEMB      10              0.0000000000
     39949      1270  PVPG      H11B          -11.8752219995       11.2350982888      -19.6680590368  MEMB      10              0.0000000000
     39950      1270  PVPG      P              -9.7536326137       10.0869695147      -17.2516663975  MEMB      10              0.0000000000
     39951      1270  PVPG      O13            -8.8539588328       10.8703665459      -16.4251051598  MEMB      10              0.0000000000
     39952      1270  PVPG      O14            -9.2090689187        8.8650442611      -17.8769409208  MEMB      10              0.0000000000
     39953      1270  PVPG      O12           -10.3551166108       11.0761276344      -18.3709892329  MEMB      10              0.0000000000
     39954      1270  PVPG      O11           -10.9485131230        9.7255822597      -16.3910368534  MEMB      10              0.0000000000
     39955      1270  PVPG      C1            -11.3913337947        8.3876041336      -16.1949968229  MEMB      10              0.0000000000
     39956      1270  PVPG      HA            -11.2810168270        7.7742355398      -17.1147413960  MEMB      10              0.0000000000
     39957      1270  PVPG      HB            -12.4489686169        8.4118682249      -15.8556725372  MEMB      10              0.0000000000
     39958      1270  PVPG      C2            -10.6225899658        7.8932843699      -14.9303435889  MEMB      10              0.0000000000
     39959      1270  PVPG      HS            -10.8009275616        8.7129741384      -14.2019031780  MEMB      10              0.0000000000
     39960      1270  PVPG      O21            -9.2772348787        7.5680585281      -15.2632351307  MEMB      10              0.0000000000
     39961      1270  PVPG      C21            -8.3899134982        8.0343877966      -14.3687120238  MEMB      10              0.0000000000
     39962      1270  PVPG      O22            -8.7185292123        8.6351378038      -13.3228830653  MEMB      10              0.0000000000
     39963      1270  PVPG      C22            -7.0270935096        7.4773924565      -14.6499826018  MEMB      10              0.0000000000
     39964      1270  PVPG      H2R            -6.2061763856        8.1929518875      -14.4300036451  MEMB      10              0.0000000000
     39965      1270  PVPG      H2S            -6.9411562774        7.2837783463      -15.7406015002  MEMB      10              0.0000000000
     39966      1270  PVPG      C3            -11.3282613718        6.6506643741      -14.2573453736  MEMB      10              0.0000000000
     39967      1270  PVPG      HX            -12.4387689138        6.6315662036      -14.2303400650  MEMB      10              0.0000000000
     39968      1270  PVPG      HY            -11.0512147775        5.7423035228      -14.8339273682  MEMB      10              0.0000000000
     39969      1270  PVPG      O31           -10.8729228672        6.3384436077      -12.9431350202  MEMB      10              0.0000000000
     39970      1270  PVPG      C31           -11.7111066905        6.6946388406      -11.9420415197  MEMB      10              0.0000000000
     39971      1270  PVPG      O32           -12.7871971559        7.2161493687      -12.0099316636  MEMB      10              0.0000000000
     39972      1270  PVPG      C32           -11.2204247671        6.0439627742      -10.6905719432  MEMB      10              0.0000000000
     39973      1270  PVPG      H2X           -10.1868765395        6.3838428593      -10.4656707220  MEMB      10              0.0000000000
     39974      1270  PVPG      H2Y           -11.2597164126        4.9404798022      -10.8134650464  MEMB      10              0.0000000000
     39975      1270  PVPG      C23            -6.8457903563        6.2313031140      -13.7220663424  MEMB      10              0.0000000000
     39976      1270  PVPG      H3R            -6.1278243694        5.6402102671      -14.3298954978  MEMB      10              0.0000000000
     39977      1270  PVPG      H3S            -7.7070230312        5.5701925874      -13.4864145002  MEMB      10              0.0000000000
     39978      1270  PVPG      C24            -6.2170203669        6.7045866251      -12.4092090396  MEMB      10              0.0000000000
     39979      1270  PVPG      H4R            -6.8767273762        7.4360354834      -11.8953117561  MEMB      10              0.0000000000
     39980      1270  PVPG      H4S            -5.2321464924        7.1633011389      -12.6414272562  MEMB      10              0.0000000000
     39981      1270  PVPG      C25            -5.8725250472        5.6079362557      -11.4044398153  MEMB      10              0.0000000000
     39982      1270  PVPG      H5R            -5.0558859679        4.9556808518      -11.7812468339  MEMB      10              0.0000000000
     39983      1270  PVPG      H5S            -6.7623347552        4.9806488181      -11.1829216763  MEMB      10              0.0000000000
     39984      1270  PVPG      C26            -5.4429212836        6.1913068618      -10.0651667824  MEMB      10              0.0000000000
     39985      1270  PVPG      H6R            -4.7651197406        7.0425205489      -10.2895352964  MEMB      10              0.0000000000
     39986      1270  PVPG      H6S            -4.7117593036        5.6150862935       -9.4587891254  MEMB      10              0.0000000000
     39987      1270  PVPG      C27            -6.5941033297        6.7072123365       -9.1814820913  MEMB      10              0.0000000000
     39988      1270  PVPG      H7R            -7.1336867672        5.7558114126       -8.9865272083  MEMB      10              0.0000000000
     39989      1270  PVPG      H7S            -7.2036105353        7.4441223672       -9.7469781403  MEMB      10              0.0000000000
     39990      1270  PVPG      C28            -6.2334231843        7.2660031028       -7.7859851961  MEMB      10              0.0000000000
     39991      1270  PVPG      H8R            -5.4853234290        8.0854659762       -7.7298764845  MEMB      10              0.0000000000
     39992      1270  PVPG      H8S            -5.8346484060        6.4071929260       -7.2048272671  MEMB      10              0.0000000000
     39993      1270  PVPG      C29            -7.4978666686        7.7096967291       -7.0239913651  MEMB      10              0.0000000000
     39994      1270  PVPG      H9R            -8.2836767252        6.9243880528       -7.0346592577  MEMB      10              0.0000000000
     39995      1270  PVPG      H9S            -7.8267374482        8.6715828483       -7.4722544725  MEMB      10              0.0000000000
     39996      1270  PVPG      C210           -7.2179411422        8.1726105738       -5.5509397895  MEMB      10              0.0000000000
     39997      1270  PVPG      H10R           -8.1924140201        8.6001779641       -5.2317070826  MEMB      10              0.0000000000
     39998      1270  PVPG      H10S           -6.6458624480        9.1244233577       -5.5177872733  MEMB      10              0.0000000000
     39999      1270  PVPG      C211           -6.7460697263        7.1153607190       -4.5415366081  MEMB      10              0.0000000000
     40000      1270  PVPG      H111           -5.7236363151        7.1889843774       -4.1425259756  MEMB      10              0.0000000000
     40001      1270  PVPG      C212           -7.4528490439        6.0486010297       -4.1277892216  MEMB      10              0.0000000000
     40002      1270  PVPG      H121           -7.0217087525        5.3083313586       -3.4377754963  MEMB      10              0.0000000000
     40003      1270  PVPG      C213           -8.9217071837        5.7295192339       -4.6092712309  MEMB      10              0.0000000000
     40004      1270  PVPG      H13R           -9.2308028885        4.6931762105       -4.3547644343  MEMB      10              0.0000000000
     40005      1270  PVPG      H13S           -8.9995793830        5.9873028886       -5.6871415370  MEMB      10              0.0000000000
     40006      1270  PVPG      C214           -9.9457427619        6.6447463221       -3.8633514252  MEMB      10              0.0000000000
     40007      1270  PVPG      H14R          -10.8834523937        6.3462901480       -4.3790504402  MEMB      10              0.0000000000
     40008      1270  PVPG      H14S           -9.8118332871        7.7400115667       -3.9929000766  MEMB      10              0.0000000000
     40009      1270  PVPG      C215          -10.1911702216        6.4916636168       -2.2776201241  MEMB      10              0.0000000000
     40010      1270  PVPG      H15R          -10.7818710680        7.3655340388       -1.9287019928  MEMB      10              0.0000000000
     40011      1270  PVPG      H15S           -9.1908630317        6.5788413292       -1.8021137481  MEMB      10              0.0000000000
     40012      1270  PVPG      C216          -10.8424330159        5.1816764932       -1.9243770529  MEMB      10              0.0000000000
     40013      1270  PVPG      H16R          -10.2130687680        4.2851497719       -2.1100153481  MEMB      10              0.0000000000
     40014      1270  PVPG      H16S          -11.7108665713        5.2579033075       -2.6130947520  MEMB      10              0.0000000000
     40015      1270  PVPG      C217          -11.1618988369        5.1474992615       -0.4516535581  MEMB      10              0.0000000000
     40016      1270  PVPG      H17R          -12.0766264723        5.7713470489       -0.3599569933  MEMB      10              0.0000000000
     40017      1270  PVPG      H17S          -10.3494934159        5.5216128260        0.2074054879  MEMB      10              0.0000000000
     40018      1270  PVPG      C218          -11.4699370189        3.7237519406        0.1356658760  MEMB      10              0.0000000000
     40019      1270  PVPG      H18R          -12.3385345964        3.2482971605       -0.3681200193  MEMB      10              0.0000000000
     40020      1270  PVPG      H18S          -10.5384087355        3.1223081759        0.0660846600  MEMB      10              0.0000000000
     40021      1270  PVPG      H18T          -11.7078192859        3.7891904773        1.2189253438  MEMB      10              0.0000000000
     40022      1270  PVPG      C33           -12.1557713447        6.3718426941       -9.5461510145  MEMB      10              0.0000000000
     40023      1270  PVPG      H3X           -13.1870461544        6.0507199324       -9.8062922681  MEMB      10              0.0000000000
     40024      1270  PVPG      H3Y           -12.0919952268        7.4728076271       -9.4115044305  MEMB      10              0.0000000000
     40025      1270  PVPG      C34           -11.7506164839        5.6447082840       -8.2493322048  MEMB      10              0.0000000000
     40026      1270  PVPG      H4X           -10.7272533335        5.8959618494       -7.8973084552  MEMB      10              0.0000000000
     40027      1270  PVPG      H4Y           -11.6635719430        4.5718864117       -8.5246455739  MEMB      10              0.0000000000
     40028      1270  PVPG      C35           -12.7052479486        5.9197567039       -7.0801978938  MEMB      10              0.0000000000
     40029      1270  PVPG      H5X           -12.5622775197        5.1679668597       -6.2747842481  MEMB      10              0.0000000000
     40030      1270  PVPG      H5Y           -13.7970768805        5.9091006296       -7.2854234586  MEMB      10              0.0000000000
     40031      1270  PVPG      C36           -12.4823548410        7.2667487763       -6.4224326450  MEMB      10              0.0000000000
     40032      1270  PVPG      H6X           -12.4217192472        7.9831656255       -7.2694222500  MEMB      10              0.0000000000
     40033      1270  PVPG      H6Y           -11.4570826647        7.1392222295       -6.0139282419  MEMB      10              0.0000000000
     40034      1270  PVPG      C37           -13.3060763414        7.5603661182       -5.1370484297  MEMB      10              0.0000000000
     40035      1270  PVPG      H7X           -13.1798368037        6.6721717392       -4.4816889012  MEMB      10              0.0000000000
     40036      1270  PVPG      H7Y           -14.3511574243        7.5708230048       -5.5138994346  MEMB      10              0.0000000000
     40037      1270  PVPG      C38           -12.9271238284        8.8684481916       -4.3787490436  MEMB      10              0.0000000000
     40038      1270  PVPG      H8X           -13.0232886031        9.7704870415       -5.0201526646  MEMB      10              0.0000000000
     40039      1270  PVPG      H8Y           -11.8427841459        8.9734879786       -4.1608156555  MEMB      10              0.0000000000
     40040      1270  PVPG      C39           -13.7064440025        9.0433684001       -3.0654755889  MEMB      10              0.0000000000
     40041      1270  PVPG      H9X           -13.5553485195        8.1376784581       -2.4400027967  MEMB      10              0.0000000000
     40042      1270  PVPG      H9Y           -14.8052045102        9.0690653243       -3.2279122788  MEMB      10              0.0000000000
     40043      1270  PVPG      C310          -13.3954071470       10.4002704921       -2.3989686712  MEMB      10              0.0000000000
     40044      1270  PVPG      H10X          -14.2110644675       10.6149038358       -1.6758109051  MEMB      10              0.0000000000
     40045      1270  PVPG      H10Y          -13.4692099579       11.1417520572       -3.2230310137  MEMB      10              0.0000000000
     40046      1270  PVPG      C311          -12.0512834863       10.4940011321       -1.6327727346  MEMB      10              0.0000000000
     40047      1270  PVPG      H11X          -11.6557360329       11.4887379264       -1.3355154943  MEMB      10              0.0000000000
     40048      1270  PVPG      H11Y          -11.2989214339       10.0192518273       -2.2982689446  MEMB      10              0.0000000000
     40049      1270  PVPG      C312          -11.9926833402        9.7046910438       -0.2896069728  MEMB      10              0.0000000000
     40050      1270  PVPG      H12X          -12.2606559495        8.6595925865       -0.5547122018  MEMB      10              0.0000000000
     40051      1270  PVPG      H12Y          -12.7881104203       10.1901110771        0.3153593609  MEMB      10              0.0000000000
     40052      1270  PVPG      C313          -10.7150734115        9.9881557913        0.4799087855  MEMB      10              0.0000000000
     40053      1270  PVPG      H13X          -10.8846984653        9.7948295549        1.5607292088  MEMB      10              0.0000000000
     40054      1270  PVPG      H13Y          -10.4919370895       11.0764685744        0.4695802843  MEMB      10              0.0000000000
     40055      1270  PVPG      C314           -9.4526062006        9.2298613565        0.1081667895  MEMB      10              0.0000000000
     40056      1270  PVPG      H14X           -9.2559817932        9.5747992061       -0.9294640198  MEMB      10              0.0000000000
     40057      1270  PVPG      H14Y           -9.7313201548        8.1543899734        0.1073893288  MEMB      10              0.0000000000
     40058      1270  PVPG      C315           -8.2379574096        9.5273340069        1.0017094666  MEMB      10              0.0000000000
     40059      1270  PVPG      H15X           -8.4620263535        9.3541982476        2.0760176873  MEMB      10              0.0000000000
     40060      1270  PVPG      H15Y           -8.0506943639       10.6208854954        0.9434142524  MEMB      10              0.0000000000
     40061      1270  PVPG      C316           -6.9267496665        8.8482302061        0.6843043181  MEMB      10              0.0000000000
     40062      1270  PVPG      H16X           -7.0723361265        7.7468144068        0.6873356974  MEMB      10              0.0000000000
     40063      1270  PVPG      H16Y           -6.6116560288        9.0892750466       -0.3534493719  MEMB      10              0.0000000000
     40064      1270  PVPG      H16Z           -6.0923136576        9.1227094311        1.3645242565  MEMB      10              0.0000000000
     40065      1271  PPPE      N              -3.4108888520      -14.3587039852      -19.5731242871  MEMB      11              0.0000000000
     40066      1271  PPPE      HN1            -3.6099938003      -14.4656260440      -20.5882720068  MEMB      11              0.0000000000
     40067      1271  PPPE      HN2            -2.4005351925      -14.1880350593      -19.3951984587  MEMB      11              0.0000000000
     40068      1271  PPPE      HN3            -3.6382999737      -15.2245358258      -19.0437667467  MEMB      11              0.0000000000
     40069      1271  PPPE      C12            -4.2533764140      -13.2912374822      -19.1555169158  MEMB      11              0.0000000000
     40070      1271  PPPE      H12A           -3.8961361907      -12.3601886925      -19.6452602914  MEMB      11              0.0000000000
     40071      1271  PPPE      H12B           -4.2827113304      -13.2030196490      -18.0484134533  MEMB      11              0.0000000000
     40072      1271  PPPE      C11            -5.6910815324      -13.3816285507      -19.7375816553  MEMB      11              0.0000000000
     40073      1271  PPPE      H11A           -6.1342722114      -14.3871607467      -19.5738500922  MEMB      11              0.0000000000
     40074      1271  PPPE      H11B           -5.7943590611      -13.1998077234      -20.8287259807  MEMB      11              0.0000000000
     40075      1271  PPPE      P              -7.9979501642      -12.7271017295      -18.7329200558  MEMB      11              0.0000000000
     40076      1271  PPPE      O13            -8.6194687058      -11.5920261486      -17.9978616935  MEMB      11              0.0000000000
     40077      1271  PPPE      O14            -8.6095578967      -13.1844850395      -19.9760025980  MEMB      11              0.0000000000
     40078      1271  PPPE      O11            -7.8723616635      -13.9160127150      -17.7038079220  MEMB      11              0.0000000000
     40079      1271  PPPE      O12            -6.4933705126      -12.3919275281      -19.1231851171  MEMB      11              0.0000000000
     40080      1271  PPPE      C1             -7.0457715332      -13.7518476109      -16.6440761063  MEMB      11              0.0000000000
     40081      1271  PPPE      HA             -6.9138874076      -12.7273317281      -16.2350592565  MEMB      11              0.0000000000
     40082      1271  PPPE      HB             -6.0764108867      -14.1182844081      -17.0445570807  MEMB      11              0.0000000000
     40083      1271  PPPE      C2             -7.6417858321      -14.6675327572      -15.5363471589  MEMB      11              0.0000000000
     40084      1271  PPPE      HS             -7.7233182388      -15.6821666369      -15.9815342619  MEMB      11              0.0000000000
     40085      1271  PPPE      O21            -8.8638298295      -14.1910109623      -15.0528304462  MEMB      11              0.0000000000
     40086      1271  PPPE      C21            -9.5619896003      -15.1299437562      -14.3947759659  MEMB      11              0.0000000000
     40087      1271  PPPE      O22            -9.1358442318      -16.2243962542      -13.9830105490  MEMB      11              0.0000000000
     40088      1271  PPPE      C22           -10.9100675078      -14.6758706240      -14.0024934638  MEMB      11              0.0000000000
     40089      1271  PPPE      H2R           -11.6223234197      -15.0857194697      -14.7501808581  MEMB      11              0.0000000000
     40090      1271  PPPE      H2S           -10.9962753711      -13.5699559832      -14.0644774266  MEMB      11              0.0000000000
     40091      1271  PPPE      C3             -6.6085528487      -14.7774396426      -14.3708890007  MEMB      11              0.0000000000
     40092      1271  PPPE      HX             -7.0248530879      -15.6072345493      -13.7605976576  MEMB      11              0.0000000000
     40093      1271  PPPE      HY             -5.5892150527      -15.0767586985      -14.6959729291  MEMB      11              0.0000000000
     40094      1271  PPPE      O31            -6.5777085019      -13.4618076074      -13.7258233362  MEMB      11              0.0000000000
     40095      1271  PPPE      C31            -6.7516256148      -13.5492717645      -12.4183945065  MEMB      11              0.0000000000
     40096      1271  PPPE      O32            -6.8650924886      -14.5323696689      -11.7348531991  MEMB      11              0.0000000000
     40097      1271  PPPE      C32            -6.8279579177      -12.1312661413      -11.8359959306  MEMB      11              0.0000000000
     40098      1271  PPPE      H2X            -7.7160688801      -11.6587009650      -12.3074427171  MEMB      11              0.0000000000
     40099      1271  PPPE      H2Y            -5.8846723931      -11.6083049926      -12.1025387154  MEMB      11              0.0000000000
     40100      1271  PPPE      C23           -11.2335340052      -15.1880067745      -12.5599057201  MEMB      11              0.0000000000
     40101      1271  PPPE      H3R           -11.0182063483      -16.2521625973      -12.3242632259  MEMB      11              0.0000000000
     40102      1271  PPPE      H3S           -12.3420383348      -15.1150928748      -12.5748293428  MEMB      11              0.0000000000
     40103      1271  PPPE      C24           -10.5272647199      -14.4044773243      -11.3969388676  MEMB      11              0.0000000000
     40104      1271  PPPE      H4R           -10.3300603172      -13.3633722185      -11.7309023120  MEMB      11              0.0000000000
     40105      1271  PPPE      H4S            -9.5157405430      -14.8515520462      -11.2908067223  MEMB      11              0.0000000000
     40106      1271  PPPE      C25           -11.3176739461      -14.2582366687      -10.1156743650  MEMB      11              0.0000000000
     40107      1271  PPPE      H5R           -11.7326195150      -15.2405426152       -9.8038792362  MEMB      11              0.0000000000
     40108      1271  PPPE      H5S           -12.1866695135      -13.5760772116      -10.2332591375  MEMB      11              0.0000000000
     40109      1271  PPPE      C26           -10.6511801228      -13.5633837619       -8.9329186569  MEMB      11              0.0000000000
     40110      1271  PPPE      H6R           -10.4015948927      -12.5049693894       -9.1604867325  MEMB      11              0.0000000000
     40111      1271  PPPE      H6S            -9.6084421679      -13.9436454932       -8.8837295004  MEMB      11              0.0000000000
     40112      1271  PPPE      C27           -11.3798260726      -13.7614201098       -7.6232782120  MEMB      11              0.0000000000
     40113      1271  PPPE      H7R           -11.3303059850      -14.8177039922       -7.2824951125  MEMB      11              0.0000000000
     40114      1271  PPPE      H7S           -12.4206595859      -13.3838130243       -7.7149269242  MEMB      11              0.0000000000
     40115      1271  PPPE      C28           -10.6377656863      -12.9782907164       -6.4634974646  MEMB      11              0.0000000000
     40116      1271  PPPE      H8R           -10.4797003592      -11.9256857963       -6.7818671155  MEMB      11              0.0000000000
     40117      1271  PPPE      H8S            -9.5647697095      -13.2319486697       -6.3269021634  MEMB      11              0.0000000000
     40118      1271  PPPE      C29           -11.4052783821      -12.9575645987       -5.1611530999  MEMB      11              0.0000000000
     40119      1271  PPPE      H91           -12.0940344076      -12.1054794689       -5.0633468175  MEMB      11              0.0000000000
     40120      1271  PPPE      C210          -11.0428090132      -13.6658610089       -4.1046505803  MEMB      11              0.0000000000
     40121      1271  PPPE      H101          -11.5789719715      -13.3681961559       -3.1914556847  MEMB      11              0.0000000000
     40122      1271  PPPE      C211           -9.8246373212      -14.5437956189       -4.1409122772  MEMB      11              0.0000000000
     40123      1271  PPPE      H11R           -8.9196453087      -13.9055756023       -4.2302748399  MEMB      11              0.0000000000
     40124      1271  PPPE      H11S           -9.7121025000      -15.1557597732       -5.0613234831  MEMB      11              0.0000000000
     40125      1271  PPPE      C212           -9.8230646594      -15.5563751907       -2.9730269723  MEMB      11              0.0000000000
     40126      1271  PPPE      H12R           -8.8586287172      -16.1010422553       -3.0597570256  MEMB      11              0.0000000000
     40127      1271  PPPE      H12S          -10.5732856245      -16.3603450739       -3.1315259642  MEMB      11              0.0000000000
     40128      1271  PPPE      C213           -9.6364121431      -14.8314689458       -1.6279073364  MEMB      11              0.0000000000
     40129      1271  PPPE      H13R           -9.6856026240      -15.6041981315       -0.8311696743  MEMB      11              0.0000000000
     40130      1271  PPPE      H13S          -10.5404557215      -14.2056072373       -1.4687742780  MEMB      11              0.0000000000
     40131      1271  PPPE      C214           -8.4205005270      -13.9424427734       -1.5527459707  MEMB      11              0.0000000000
     40132      1271  PPPE      H14R           -8.2371800095      -13.2690041821       -2.4171504199  MEMB      11              0.0000000000
     40133      1271  PPPE      H14S           -7.5403658499      -14.6204243536       -1.5477532753  MEMB      11              0.0000000000
     40134      1271  PPPE      C215           -8.4064412215      -13.0845948660       -0.2202495705  MEMB      11              0.0000000000
     40135      1271  PPPE      H15R           -8.1063444021      -13.7295758107        0.6331333916  MEMB      11              0.0000000000
     40136      1271  PPPE      H15S           -9.3925369459      -12.6374809225        0.0287993077  MEMB      11              0.0000000000
     40137      1271  PPPE      C216           -7.3297342383      -11.9092214318       -0.2382124733  MEMB      11              0.0000000000
     40138      1271  PPPE      H16R           -7.3591581628      -11.2408189466       -1.1251698287  MEMB      11              0.0000000000
     40139      1271  PPPE      H16S           -7.5972116953      -11.3643518268        0.6923217408  MEMB      11              0.0000000000
     40140      1271  PPPE      H16T           -6.2550108211      -12.1852079894       -0.1823376433  MEMB      11              0.0000000000
     40141      1271  PPPE      C33            -7.0390502476      -12.1166954122      -10.2492878064  MEMB      11              0.0000000000
     40142      1271  PPPE      H3X            -6.1520467191      -12.6907321833       -9.9057364626  MEMB      11              0.0000000000
     40143      1271  PPPE      H3Y            -7.9706796701      -12.6601124157       -9.9826690160  MEMB      11              0.0000000000
     40144      1271  PPPE      C34            -7.0994157364      -10.6981762115       -9.6919712812  MEMB      11              0.0000000000
     40145      1271  PPPE      H4X            -7.7965754987      -10.1945046990      -10.3952523583  MEMB      11              0.0000000000
     40146      1271  PPPE      H4Y            -6.0885498406      -10.2952471359       -9.9158446841  MEMB      11              0.0000000000
     40147      1271  PPPE      C35            -7.5331287835      -10.6853944749       -8.2621205344  MEMB      11              0.0000000000
     40148      1271  PPPE      H5X            -8.3359405291      -11.4432863478       -8.1379665560  MEMB      11              0.0000000000
     40149      1271  PPPE      H5Y            -8.0197589010       -9.7322811679       -7.9636458240  MEMB      11              0.0000000000
     40150      1271  PPPE      C36            -6.5257008444      -10.9813345522       -7.2673761011  MEMB      11              0.0000000000
     40151      1271  PPPE      H6X            -5.6525194466      -10.3026639897       -7.1611616291  MEMB      11              0.0000000000
     40152      1271  PPPE      H6Y            -6.0434916347      -11.9455478051       -7.5358683377  MEMB      11              0.0000000000
     40153      1271  PPPE      C37            -7.1868662033      -11.0571704050       -5.8840550469  MEMB      11              0.0000000000
     40154      1271  PPPE      H7X            -7.9670120151      -11.8452248172       -5.8157633490  MEMB      11              0.0000000000
     40155      1271  PPPE      H7Y            -7.7389392898      -10.0978612092       -5.7878148579  MEMB      11              0.0000000000
     40156      1271  PPPE      C38            -6.2183982019      -11.1419203956       -4.6769135787  MEMB      11              0.0000000000
     40157      1271  PPPE      H8X            -6.7717540210      -11.1023596659       -3.7143371993  MEMB      11              0.0000000000
     40158      1271  PPPE      H8Y            -5.5396789228      -10.2643642921       -4.7365493517  MEMB      11              0.0000000000
     40159      1271  PPPE      C39            -5.5398094211      -12.4814989081       -4.6168414820  MEMB      11              0.0000000000
     40160      1271  PPPE      H9X            -4.8740589945      -12.6651907687       -5.4871027473  MEMB      11              0.0000000000
     40161      1271  PPPE      H9Y            -6.3569390973      -13.2338607513       -4.5929302067  MEMB      11              0.0000000000
     40162      1271  PPPE      C310           -4.6720998647      -12.6978182943       -3.3521389507  MEMB      11              0.0000000000
     40163      1271  PPPE      H10X           -5.1257479305      -12.0565834225       -2.5664276350  MEMB      11              0.0000000000
     40164      1271  PPPE      H10Y           -3.6783396137      -12.3709313795       -3.7261797350  MEMB      11              0.0000000000
     40165      1271  PPPE      C311           -4.7457547754      -14.1484457635       -2.9898623589  MEMB      11              0.0000000000
     40166      1271  PPPE      H11X           -4.4626298049      -14.8735446154       -3.7825747318  MEMB      11              0.0000000000
     40167      1271  PPPE      H11Y           -5.7649557551      -14.5006333070       -2.7224407871  MEMB      11              0.0000000000
     40168      1271  PPPE      C312           -3.7649128607      -14.5097572996       -1.7566055718  MEMB      11              0.0000000000
     40169      1271  PPPE      H12X           -3.4013275209      -13.5311755351       -1.3764681878  MEMB      11              0.0000000000
     40170      1271  PPPE      H12Y           -2.9702839483      -15.1020419872       -2.2586859843  MEMB      11              0.0000000000
     40171      1271  PPPE      C313           -4.4660769104      -15.3190938644       -0.6895539456  MEMB      11              0.0000000000
     40172      1271  PPPE      H13X           -5.5574437488      -15.1827601262       -0.5325426849  MEMB      11              0.0000000000
     40173      1271  PPPE      H13Y           -4.0153122086      -14.9811338113        0.2680029384  MEMB      11              0.0000000000
     40174      1271  PPPE      C314           -4.2774555978      -16.8775812154       -0.7957591271  MEMB      11              0.0000000000
     40175      1271  PPPE      H14X           -3.2700951810      -17.3052561928       -0.6043430766  MEMB      11              0.0000000000
     40176      1271  PPPE      H14Y           -4.5602110191      -17.1953030419       -1.8221232013  MEMB      11              0.0000000000
     40177      1271  PPPE      C315           -5.1562381833      -17.6945122579        0.2034892216  MEMB      11              0.0000000000
     40178      1271  PPPE      H15X           -5.0115149152      -17.2131225143        1.1942667397  MEMB      11              0.0000000000
     40179      1271  PPPE      H15Y           -4.7662109486      -18.7318237212        0.2821319844  MEMB      11              0.0000000000
     40180      1271  PPPE      C316           -6.6504584382      -17.7812328120       -0.1654464902  MEMB      11              0.0000000000
     40181      1271  PPPE      H16X           -6.9663743925      -18.4935241139        0.6264873525  MEMB      11              0.0000000000
     40182      1271  PPPE      H16Y           -7.1486817088      -16.7933794491       -0.0642520937  MEMB      11              0.0000000000
     40183      1271  PPPE      H16Z           -6.7894206901      -18.2699905471       -1.1534375676  MEMB      11              0.0000000000
     40184      1272  PPPE      N             -13.1304781416       -4.8905854774      -19.8870466464  MEMB      12              0.0000000000
     40185      1272  PPPE      HN1           -13.5280967215       -4.9719105556      -20.8445881320  MEMB      12              0.0000000000
     40186      1272  PPPE      HN2           -12.9676255551       -3.9706643314      -19.4300738680  MEMB      12              0.0000000000
     40187      1272  PPPE      HN3           -12.1551943615       -5.2436232827      -19.9631114622  MEMB      12              0.0000000000
     40188      1272  PPPE      C12           -13.9345269026       -5.6240782424      -18.8597375848  MEMB      12              0.0000000000
     40189      1272  PPPE      H12A          -14.8647527071       -5.0592414099      -18.6362195650  MEMB      12              0.0000000000
     40190      1272  PPPE      H12B          -13.2925762158       -5.6455212968      -17.9532275125  MEMB      12              0.0000000000
     40191      1272  PPPE      C11           -14.1912251983       -7.0441255719      -19.2603561143  MEMB      12              0.0000000000
     40192      1272  PPPE      H11A          -13.8659738950       -7.2321809789      -20.3059027433  MEMB      12              0.0000000000
     40193      1272  PPPE      H11B          -15.2565497182       -7.3231995006      -19.1136509360  MEMB      12              0.0000000000
     40194      1272  PPPE      P             -13.3153594875       -9.4281971024      -18.8311732176  MEMB      12              0.0000000000
     40195      1272  PPPE      O13           -13.1966224065       -9.5470377006      -20.3028380054  MEMB      12              0.0000000000
     40196      1272  PPPE      O14           -12.1858837631      -10.0500682136      -18.1084914341  MEMB      12              0.0000000000
     40197      1272  PPPE      O11           -14.7606922612      -10.0224136084      -18.2982430233  MEMB      12              0.0000000000
     40198      1272  PPPE      O12           -13.4693782394       -7.9009801652      -18.4521138896  MEMB      12              0.0000000000
     40199      1272  PPPE      C1            -14.7758753084      -10.4185447995      -16.9392494598  MEMB      12              0.0000000000
     40200      1272  PPPE      HA            -13.9831611072       -9.9392967901      -16.3258600724  MEMB      12              0.0000000000
     40201      1272  PPPE      HB            -14.4972744868      -11.4939767303      -16.9270533784  MEMB      12              0.0000000000
     40202      1272  PPPE      C2            -16.0700446536      -10.1244845269      -16.1582899199  MEMB      12              0.0000000000
     40203      1272  PPPE      HS            -16.8459619855      -10.8356767929      -16.5139285774  MEMB      12              0.0000000000
     40204      1272  PPPE      O21           -16.4321236793       -8.7633393440      -16.3188034478  MEMB      12              0.0000000000
     40205      1272  PPPE      C21           -17.6793893153       -8.4579426543      -16.0006046206  MEMB      12              0.0000000000
     40206      1272  PPPE      O22           -18.6170474115       -9.2130724769      -15.8683334158  MEMB      12              0.0000000000
     40207      1272  PPPE      C22           -17.9666451970       -6.9483994350      -15.9937746478  MEMB      12              0.0000000000
     40208      1272  PPPE      H2R           -18.7523330656       -6.7237865786      -16.7464795288  MEMB      12              0.0000000000
     40209      1272  PPPE      H2S           -17.0216843015       -6.5512617251      -16.4223204976  MEMB      12              0.0000000000
     40210      1272  PPPE      C3            -15.9483407288      -10.4337890709      -14.6928260609  MEMB      12              0.0000000000
     40211      1272  PPPE      HX            -16.9082508291      -10.1412751857      -14.2160355134  MEMB      12              0.0000000000
     40212      1272  PPPE      HY            -15.7573954641      -11.5131149047      -14.5113965965  MEMB      12              0.0000000000
     40213      1272  PPPE      O31           -15.0231377307       -9.5290265662      -14.0815010672  MEMB      12              0.0000000000
     40214      1272  PPPE      C31           -13.9229975415      -10.1030303572      -13.6580902627  MEMB      12              0.0000000000
     40215      1272  PPPE      O32           -13.7473563325      -11.2954299922      -13.4171654237  MEMB      12              0.0000000000
     40216      1272  PPPE      C32           -12.8024618051       -9.0814824318      -13.6232399152  MEMB      12              0.0000000000
     40217      1272  PPPE      H2X           -12.9969566181       -8.2055731000      -14.2784311928  MEMB      12              0.0000000000
     40218      1272  PPPE      H2Y           -11.7966136212       -9.4826708106      -13.8715105649  MEMB      12              0.0000000000
     40219      1272  PPPE      C23           -18.2870039752       -6.3681001249      -14.6544038371  MEMB      12              0.0000000000
     40220      1272  PPPE      H3R           -19.2579321510       -6.7283204519      -14.2520845690  MEMB      12              0.0000000000
     40221      1272  PPPE      H3S           -18.3424208811       -5.2593383924      -14.6979628421  MEMB      12              0.0000000000
     40222      1272  PPPE      C24           -17.3292056105       -6.7216972148      -13.4632709992  MEMB      12              0.0000000000
     40223      1272  PPPE      H4R           -16.3372652172       -6.2764777612      -13.6916454597  MEMB      12              0.0000000000
     40224      1272  PPPE      H4S           -17.2971007733       -7.8307880394      -13.4066333597  MEMB      12              0.0000000000
     40225      1272  PPPE      C25           -17.9386785165       -6.0886884429      -12.1705885913  MEMB      12              0.0000000000
     40226      1272  PPPE      H5R           -18.9948992502       -6.4056404113      -12.0354582408  MEMB      12              0.0000000000
     40227      1272  PPPE      H5S           -17.9984025133       -4.9848627521      -12.2815970974  MEMB      12              0.0000000000
     40228      1272  PPPE      C26           -17.1574901096       -6.3688569549      -10.9694752126  MEMB      12              0.0000000000
     40229      1272  PPPE      H6R           -16.0701934207       -6.3844540576      -11.1972111140  MEMB      12              0.0000000000
     40230      1272  PPPE      H6S           -17.3560547113       -7.3654513109      -10.5203730099  MEMB      12              0.0000000000
     40231      1272  PPPE      C27           -17.3351986967       -5.3321964270       -9.8285269948  MEMB      12              0.0000000000
     40232      1272  PPPE      H7R           -18.4117710077       -5.3345367643       -9.5541047252  MEMB      12              0.0000000000
     40233      1272  PPPE      H7S           -17.2207333810       -4.3302914588      -10.2947942210  MEMB      12              0.0000000000
     40234      1272  PPPE      C28           -16.4553892708       -5.5089176654       -8.5814781174  MEMB      12              0.0000000000
     40235      1272  PPPE      H8R           -16.5278329685       -4.5631270622       -8.0030725108  MEMB      12              0.0000000000
     40236      1272  PPPE      H8S           -15.4178125502       -5.4647447855       -8.9761986587  MEMB      12              0.0000000000
     40237      1272  PPPE      C29           -16.6990858200       -6.6776423531       -7.6984234644  MEMB      12              0.0000000000
     40238      1272  PPPE      H91           -16.2708584413       -7.6127475220       -8.0885511808  MEMB      12              0.0000000000
     40239      1272  PPPE      C210          -17.2222477692       -6.7080571518       -6.4688769765  MEMB      12              0.0000000000
     40240      1272  PPPE      H101          -17.1129216612       -7.6406254465       -5.8958462810  MEMB      12              0.0000000000
     40241      1272  PPPE      C211          -17.8168015939       -5.5887878265       -5.7127174234  MEMB      12              0.0000000000
     40242      1272  PPPE      H11R          -18.9119703204       -5.7607335696       -5.6394977409  MEMB      12              0.0000000000
     40243      1272  PPPE      H11S          -17.6876800827       -4.6277987556       -6.2550721421  MEMB      12              0.0000000000
     40244      1272  PPPE      C212          -17.3810266132       -5.4058487596       -4.2098250998  MEMB      12              0.0000000000
     40245      1272  PPPE      H12R          -17.5707894972       -6.3972744198       -3.7457279031  MEMB      12              0.0000000000
     40246      1272  PPPE      H12S          -18.0180484938       -4.6179207379       -3.7540910148  MEMB      12              0.0000000000
     40247      1272  PPPE      C213          -15.9409345321       -5.0943301800       -4.0177531416  MEMB      12              0.0000000000
     40248      1272  PPPE      H13R          -15.8593348753       -4.0564393852       -4.4056257933  MEMB      12              0.0000000000
     40249      1272  PPPE      H13S          -15.2801480037       -5.7824287710       -4.5871409647  MEMB      12              0.0000000000
     40250      1272  PPPE      C214          -15.4990012843       -4.9252453514       -2.5536554477  MEMB      12              0.0000000000
     40251      1272  PPPE      H14R          -16.3642208325       -4.8520596788       -1.8605753723  MEMB      12              0.0000000000
     40252      1272  PPPE      H14S          -14.9223395975       -3.9758601014       -2.5748673761  MEMB      12              0.0000000000
     40253      1272  PPPE      C215          -14.4668525817       -6.0425981847       -2.2182047812  MEMB      12              0.0000000000
     40254      1272  PPPE      H15R          -13.6522915129       -6.0530951297       -2.9736523833  MEMB      12              0.0000000000
     40255      1272  PPPE      H15S          -14.8704778231       -7.0752910136       -2.1478259102  MEMB      12              0.0000000000
     40256      1272  PPPE      C216          -13.7004292609       -5.7153971030       -0.8960879971  MEMB      12              0.0000000000
     40257      1272  PPPE      H16R          -13.3579251374       -4.6709876396       -1.0580163708  MEMB      12              0.0000000000
     40258      1272  PPPE      H16S          -14.4123169892       -5.7360258171       -0.0433797713  MEMB      12              0.0000000000
     40259      1272  PPPE      H16T          -12.7534066943       -6.2666360741       -0.7127717267  MEMB      12              0.0000000000
     40260      1272  PPPE      C33           -12.4811617596       -8.6625581436      -12.1876198434  MEMB      12              0.0000000000
     40261      1272  PPPE      H3X           -11.4556807893       -8.2387986809      -12.2436349971  MEMB      12              0.0000000000
     40262      1272  PPPE      H3Y           -12.5351941721       -9.4923689469      -11.4508596864  MEMB      12              0.0000000000
     40263      1272  PPPE      C34           -13.3260140320       -7.5009137890      -11.6013702799  MEMB      12              0.0000000000
     40264      1272  PPPE      H4X           -14.2501437123       -7.9693753970      -11.2003103646  MEMB      12              0.0000000000
     40265      1272  PPPE      H4Y           -13.4386620969       -6.8034251114      -12.4587738944  MEMB      12              0.0000000000
     40266      1272  PPPE      C35           -12.5610341097       -6.9069860330      -10.4050594581  MEMB      12              0.0000000000
     40267      1272  PPPE      H5X           -13.0804286462       -6.0522825279       -9.9212906767  MEMB      12              0.0000000000
     40268      1272  PPPE      H5Y           -11.5689442469       -6.5068002320      -10.7049428166  MEMB      12              0.0000000000
     40269      1272  PPPE      C36           -12.3437588627       -7.8976786143       -9.2194306212  MEMB      12              0.0000000000
     40270      1272  PPPE      H6X           -11.5727170388       -8.5301388085       -9.7091342139  MEMB      12              0.0000000000
     40271      1272  PPPE      H6Y           -13.2806565235       -8.4266659979       -8.9424538698  MEMB      12              0.0000000000
     40272      1272  PPPE      C37           -11.7331785881       -7.2645537940       -7.9812317946  MEMB      12              0.0000000000
     40273      1272  PPPE      H7X           -12.5326811622       -6.7577690262       -7.3996083484  MEMB      12              0.0000000000
     40274      1272  PPPE      H7Y           -10.9422399895       -6.5995042378       -8.3892100061  MEMB      12              0.0000000000
     40275      1272  PPPE      C38           -11.0408013833       -8.1823337291       -6.9374994357  MEMB      12              0.0000000000
     40276      1272  PPPE      H8X           -10.5097098437       -7.6445342342       -6.1232301437  MEMB      12              0.0000000000
     40277      1272  PPPE      H8Y           -10.2688698473       -8.7522308112       -7.4975530219  MEMB      12              0.0000000000
     40278      1272  PPPE      C39           -12.0187608341       -9.1633988020       -6.2261661440  MEMB      12              0.0000000000
     40279      1272  PPPE      H9X           -11.4318890872       -9.4853919491       -5.3394739956  MEMB      12              0.0000000000
     40280      1272  PPPE      H9Y           -12.4110600036       -9.9036392263       -6.9558691493  MEMB      12              0.0000000000
     40281      1272  PPPE      C310          -13.2005688172       -8.5776350018       -5.5051305710  MEMB      12              0.0000000000
     40282      1272  PPPE      H10X          -13.8899794145       -8.5021379972       -6.3730788590  MEMB      12              0.0000000000
     40283      1272  PPPE      H10Y          -12.9698366833       -7.5825308600       -5.0682651117  MEMB      12              0.0000000000
     40284      1272  PPPE      C311          -13.7318758414       -9.4696267282       -4.3798127597  MEMB      12              0.0000000000
     40285      1272  PPPE      H11X          -14.7393615265       -9.2220379880       -3.9823289109  MEMB      12              0.0000000000
     40286      1272  PPPE      H11Y          -13.0212136319       -9.3244699003       -3.5382607891  MEMB      12              0.0000000000
     40287      1272  PPPE      C312          -13.9224684765      -10.8970196921       -4.9029000214  MEMB      12              0.0000000000
     40288      1272  PPPE      H12X          -13.0727117025      -11.3402928513       -5.4648104513  MEMB      12              0.0000000000
     40289      1272  PPPE      H12Y          -14.7986992707      -10.7392971644       -5.5674782333  MEMB      12              0.0000000000
     40290      1272  PPPE      C313          -14.4060768612      -11.8818666462       -3.9316440252  MEMB      12              0.0000000000
     40291      1272  PPPE      H13X          -13.5728731486      -12.0950607572       -3.2283369483  MEMB      12              0.0000000000
     40292      1272  PPPE      H13Y          -14.7633628670      -12.8004517334       -4.4443516882  MEMB      12              0.0000000000
     40293      1272  PPPE      C314          -15.6556576260      -11.3976587474       -3.0398362542  MEMB      12              0.0000000000
     40294      1272  PPPE      H14X          -16.3449599840      -12.2682636969       -3.0749116213  MEMB      12              0.0000000000
     40295      1272  PPPE      H14Y          -16.2101174778      -10.5432978312       -3.4836410509  MEMB      12              0.0000000000
     40296      1272  PPPE      C315          -15.2740925761      -10.9542267436       -1.6149929812  MEMB      12              0.0000000000
     40297      1272  PPPE      H15X          -14.4957883389      -10.1632534984       -1.6690747704  MEMB      12              0.0000000000
     40298      1272  PPPE      H15Y          -14.8478735056      -11.8368656578       -1.0919185592  MEMB      12              0.0000000000
     40299      1272  PPPE      C316          -16.4602283122      -10.4071730271       -0.8076743398  MEMB      12              0.0000000000
     40300      1272  PPPE      H16X          -16.0192557332       -9.9175778332        0.0868426978  MEMB      12              0.0000000000
     40301      1272  PPPE      H16Y          -16.9656029727       -9.6719553746       -1.4697713538  MEMB      12              0.0000000000
     40302      1272  PPPE      H16Z          -17.2616264042      -11.1392050749       -0.5705853708  MEMB      12              0.0000000000
     40303      1273  PPPE      N              11.6729927065       12.5542966331      -21.7270964076  MEMB      13              0.0000000000
     40304      1273  PPPE      HN1            11.9503419707       12.5419962743      -22.7293568961  MEMB      13              0.0000000000
     40305      1273  PPPE      HN2            10.8483231414       13.1864384486      -21.7708780632  MEMB      13              0.0000000000
     40306      1273  PPPE      HN3            12.3951705584       12.8949685450      -21.0607618079  MEMB      13              0.0000000000
     40307      1273  PPPE      C12            11.0722552241       11.2628638038      -21.3744713354  MEMB      13              0.0000000000
     40308      1273  PPPE      H12A           11.7382910500       10.5136767240      -21.8534661141  MEMB      13              0.0000000000
     40309      1273  PPPE      H12B           10.0862454108       11.1451558248      -21.8727187437  MEMB      13              0.0000000000
     40310      1273  PPPE      C11            10.9094805404       11.0180354653      -19.8444936349  MEMB      13              0.0000000000
     40311      1273  PPPE      H11A           10.5015358531        9.9864259638      -19.7837979297  MEMB      13              0.0000000000
     40312      1273  PPPE      H11B           10.2310834198       11.8540598010      -19.5703373713  MEMB      13              0.0000000000
     40313      1273  PPPE      P              12.3243187694       10.3333671143      -17.7807773420  MEMB      13              0.0000000000
     40314      1273  PPPE      O13            12.4570960618        8.8926309431      -17.9061064522  MEMB      13              0.0000000000
     40315      1273  PPPE      O14            13.4266458364       11.0207220867      -17.1281369714  MEMB      13              0.0000000000
     40316      1273  PPPE      O11            10.9643985630       10.6843041076      -17.0235362253  MEMB      13              0.0000000000
     40317      1273  PPPE      O12            12.1444450808       11.0284590363      -19.2153820007  MEMB      13              0.0000000000
     40318      1273  PPPE      C1             10.5096799319       11.9948027395      -17.0098258498  MEMB      13              0.0000000000
     40319      1273  PPPE      HA              9.4026685423       11.9315053192      -17.0793975401  MEMB      13              0.0000000000
     40320      1273  PPPE      HB             10.9363621409       12.7076493415      -17.7474660157  MEMB      13              0.0000000000
     40321      1273  PPPE      C2             10.8390806012       12.6612565994      -15.6842097493  MEMB      13              0.0000000000
     40322      1273  PPPE      HS             11.8523669194       13.1102365270      -15.7615974859  MEMB      13              0.0000000000
     40323      1273  PPPE      O21            10.7359236059       11.8297423601      -14.3896142438  MEMB      13              0.0000000000
     40324      1273  PPPE      C21            11.6582816480       12.1665206521      -13.4829894922  MEMB      13              0.0000000000
     40325      1273  PPPE      O22            12.5020447870       13.0472068849      -13.5362330212  MEMB      13              0.0000000000
     40326      1273  PPPE      C22            11.4584703497       11.3435723616      -12.2037591307  MEMB      13              0.0000000000
     40327      1273  PPPE      H2R            10.3794256783       11.0883655338      -12.1340951376  MEMB      13              0.0000000000
     40328      1273  PPPE      H2S            11.8982612970       11.9630147146      -11.3930828118  MEMB      13              0.0000000000
     40329      1273  PPPE      C3              9.9698263688       13.9124213484      -15.4188381996  MEMB      13              0.0000000000
     40330      1273  PPPE      HX             10.4425443354       14.2850149676      -14.4850112782  MEMB      13              0.0000000000
     40331      1273  PPPE      HY             10.0266740981       14.5421971597      -16.3323324597  MEMB      13              0.0000000000
     40332      1273  PPPE      O31             8.5910054766       13.5189267122      -15.1851793079  MEMB      13              0.0000000000
     40333      1273  PPPE      C31             8.0495885870       13.9834844287      -14.0971429558  MEMB      13              0.0000000000
     40334      1273  PPPE      O32             8.4961250545       14.7457449315      -13.2675175201  MEMB      13              0.0000000000
     40335      1273  PPPE      C32             6.6303719844       13.4745441285      -13.9476520421  MEMB      13              0.0000000000
     40336      1273  PPPE      H2X             6.5863330142       12.5475711880      -14.5584734046  MEMB      13              0.0000000000
     40337      1273  PPPE      H2Y             5.9244398383       14.2863576053      -14.2250320771  MEMB      13              0.0000000000
     40338      1273  PPPE      C23            12.2408961414       10.0633232929      -12.4090945729  MEMB      13              0.0000000000
     40339      1273  PPPE      H3R            13.1167482539       10.0922381722      -13.0920059923  MEMB      13              0.0000000000
     40340      1273  PPPE      H3S            11.6333356430        9.3116658651      -12.9570018205  MEMB      13              0.0000000000
     40341      1273  PPPE      C24            12.5544846177        9.3614232951      -11.0558535687  MEMB      13              0.0000000000
     40342      1273  PPPE      H4R            13.3525536272        9.9304993229      -10.5328245726  MEMB      13              0.0000000000
     40343      1273  PPPE      H4S            12.8487744424        8.3051408518      -11.2346884061  MEMB      13              0.0000000000
     40344      1273  PPPE      C25            11.3117294607        9.2252392536      -10.1815897185  MEMB      13              0.0000000000
     40345      1273  PPPE      H5R            10.7720691638        8.3548390888      -10.6122767475  MEMB      13              0.0000000000
     40346      1273  PPPE      H5S            10.6701228805       10.1321070374      -10.1974900033  MEMB      13              0.0000000000
     40347      1273  PPPE      C26            11.7927248806        8.7937723765       -8.7443430508  MEMB      13              0.0000000000
     40348      1273  PPPE      H6R            12.6623169999        9.4347106295       -8.4848653023  MEMB      13              0.0000000000
     40349      1273  PPPE      H6S            12.0556395753        7.7207011892       -8.8614544942  MEMB      13              0.0000000000
     40350      1273  PPPE      C27            10.7167772572        9.0535260203       -7.6796587395  MEMB      13              0.0000000000
     40351      1273  PPPE      H7R            11.0199450526        8.7084236575       -6.6680685818  MEMB      13              0.0000000000
     40352      1273  PPPE      H7S             9.7949607271        8.5184664425       -7.9931655705  MEMB      13              0.0000000000
     40353      1273  PPPE      C28            10.2684201399       10.5761210788       -7.4256373567  MEMB      13              0.0000000000
     40354      1273  PPPE      H8R             9.6479214704       10.5457561821       -6.5045616952  MEMB      13              0.0000000000
     40355      1273  PPPE      H8S             9.5501796484       10.8867537221       -8.2142811021  MEMB      13              0.0000000000
     40356      1273  PPPE      C29            11.2337192632       11.7087087893       -7.3800738777  MEMB      13              0.0000000000
     40357      1273  PPPE      H91            11.9880249494       11.7908594201       -8.1764872163  MEMB      13              0.0000000000
     40358      1273  PPPE      C210           11.2420974015       12.6511340154       -6.4468928639  MEMB      13              0.0000000000
     40359      1273  PPPE      H101           11.9943293868       13.4435844856       -6.5740513978  MEMB      13              0.0000000000
     40360      1273  PPPE      C211           10.3732028699       12.9160943078       -5.2917431041  MEMB      13              0.0000000000
     40361      1273  PPPE      H11R            9.7849307233       12.0206526871       -4.9977342852  MEMB      13              0.0000000000
     40362      1273  PPPE      H11S            9.7315290254       13.8210613957       -5.3518284339  MEMB      13              0.0000000000
     40363      1273  PPPE      C212           11.2693619557       13.3277690482       -4.0380024844  MEMB      13              0.0000000000
     40364      1273  PPPE      H12R           10.5551794727       13.4187562265       -3.1918430938  MEMB      13              0.0000000000
     40365      1273  PPPE      H12S           11.7396468566       14.3328505992       -4.0924468412  MEMB      13              0.0000000000
     40366      1273  PPPE      C213           12.3000573044       12.1524992052       -3.6447462245  MEMB      13              0.0000000000
     40367      1273  PPPE      H13R           13.2490510651       12.3127652486       -4.1997657174  MEMB      13              0.0000000000
     40368      1273  PPPE      H13S           11.8411287699       11.1727617421       -3.8973726361  MEMB      13              0.0000000000
     40369      1273  PPPE      C214           12.4515373908       12.0202352308       -2.0444062304  MEMB      13              0.0000000000
     40370      1273  PPPE      H14R           11.4425576877       11.9878468218       -1.5804752551  MEMB      13              0.0000000000
     40371      1273  PPPE      H14S           13.0635406755       12.8618430854       -1.6552157902  MEMB      13              0.0000000000
     40372      1273  PPPE      C215           13.1282032553       10.6946214591       -1.5657152464  MEMB      13              0.0000000000
     40373      1273  PPPE      H15R           14.1050920913       10.6382605717       -2.0918641345  MEMB      13              0.0000000000
     40374      1273  PPPE      H15S           12.4991866455        9.8765139440       -1.9772479889  MEMB      13              0.0000000000
     40375      1273  PPPE      C216           13.2439062229       10.4452005962       -0.0190944328  MEMB      13              0.0000000000
     40376      1273  PPPE      H16R           13.9059852558        9.5852325981        0.2184500817  MEMB      13              0.0000000000
     40377      1273  PPPE      H16S           13.6100095573       11.2640868269        0.6364318366  MEMB      13              0.0000000000
     40378      1273  PPPE      H16T           12.2541602440       10.1292926039        0.3745120173  MEMB      13              0.0000000000
     40379      1273  PPPE      C33             6.3638950663       13.0535518238      -12.4948020957  MEMB      13              0.0000000000
     40380      1273  PPPE      H3X             5.3873170464       12.5266353734      -12.5493495551  MEMB      13              0.0000000000
     40381      1273  PPPE      H3Y             6.3472835481       13.9362490744      -11.8203462992  MEMB      13              0.0000000000
     40382      1273  PPPE      C34             7.3470963571       12.0401658560      -11.8440192937  MEMB      13              0.0000000000
     40383      1273  PPPE      H4X             8.3468312081       12.5167299160      -11.7560538225  MEMB      13              0.0000000000
     40384      1273  PPPE      H4Y             7.4525463929       11.2284750857      -12.5952578598  MEMB      13              0.0000000000
     40385      1273  PPPE      C35             6.8240069844       11.5492166624      -10.4501215650  MEMB      13              0.0000000000
     40386      1273  PPPE      H5X             7.3277055283       10.6014815438      -10.1630555068  MEMB      13              0.0000000000
     40387      1273  PPPE      H5Y             5.7525228570       11.2721556268      -10.5474865853  MEMB      13              0.0000000000
     40388      1273  PPPE      C36             6.8170647121       12.6235105187       -9.3430626830  MEMB      13              0.0000000000
     40389      1273  PPPE      H6X             6.2430918927       13.4788376741       -9.7593458319  MEMB      13              0.0000000000
     40390      1273  PPPE      H6Y             7.7970431140       13.0148121439       -8.9954330381  MEMB      13              0.0000000000
     40391      1273  PPPE      C37             5.9609063548       12.2711821240       -8.0657170540  MEMB      13              0.0000000000
     40392      1273  PPPE      H7X             4.9654579251       12.7522584429       -8.1751199754  MEMB      13              0.0000000000
     40393      1273  PPPE      H7Y             6.3831070485       12.8859590537       -7.2422385171  MEMB      13              0.0000000000
     40394      1273  PPPE      C38             5.8438257626       10.8137233039       -7.5373197920  MEMB      13              0.0000000000
     40395      1273  PPPE      H8X             6.8586719034       10.4246924294       -7.3069650894  MEMB      13              0.0000000000
     40396      1273  PPPE      H8Y             5.4989450574       10.2148317930       -8.4072090133  MEMB      13              0.0000000000
     40397      1273  PPPE      C39             5.0818460497       10.8400003724       -6.2495227123  MEMB      13              0.0000000000
     40398      1273  PPPE      H9X             4.9113417539        9.7849252519       -5.9460992865  MEMB      13              0.0000000000
     40399      1273  PPPE      H9Y             4.0991565447       11.3457332575       -6.3629977574  MEMB      13              0.0000000000
     40400      1273  PPPE      C310            5.5454545127       11.5565474467       -4.9445654122  MEMB      13              0.0000000000
     40401      1273  PPPE      H10X            4.8198267286       11.5363466271       -4.1035081930  MEMB      13              0.0000000000
     40402      1273  PPPE      H10Y            5.7780285214       12.6201218557       -5.1660147451  MEMB      13              0.0000000000
     40403      1273  PPPE      C311            6.9194366453       10.9690957887       -4.4547342822  MEMB      13              0.0000000000
     40404      1273  PPPE      H11X            7.7586978427       11.1421126719       -5.1618600141  MEMB      13              0.0000000000
     40405      1273  PPPE      H11Y            6.7307824239        9.8742410440       -4.4498688072  MEMB      13              0.0000000000
     40406      1273  PPPE      C312            7.2747819817       11.3582283231       -3.0721846205  MEMB      13              0.0000000000
     40407      1273  PPPE      H12X            6.4454524460       11.1253842922       -2.3705314450  MEMB      13              0.0000000000
     40408      1273  PPPE      H12Y            7.2938757134       12.4660284048       -3.1542541539  MEMB      13              0.0000000000
     40409      1273  PPPE      C313            8.5456839038       10.7219960454       -2.5376503800  MEMB      13              0.0000000000
     40410      1273  PPPE      H13X            8.8164596352       11.3163074967       -1.6388759911  MEMB      13              0.0000000000
     40411      1273  PPPE      H13Y            9.4013842155       10.9274206390       -3.2158087043  MEMB      13              0.0000000000
     40412      1273  PPPE      C314            8.4227894195        9.2665866305       -2.0446473796  MEMB      13              0.0000000000
     40413      1273  PPPE      H14X            8.0125792080        8.6349974022       -2.8614359870  MEMB      13              0.0000000000
     40414      1273  PPPE      H14Y            7.6469069684        9.3551597634       -1.2544055039  MEMB      13              0.0000000000
     40415      1273  PPPE      C315            9.7645947640        8.6135628767       -1.5948544697  MEMB      13              0.0000000000
     40416      1273  PPPE      H15X           10.4121914778        9.4933305522       -1.3924975245  MEMB      13              0.0000000000
     40417      1273  PPPE      H15Y           10.2475401332        8.0717247109       -2.4359823866  MEMB      13              0.0000000000
     40418      1273  PPPE      C316            9.6659028169        7.7053509383       -0.3640442913  MEMB      13              0.0000000000
     40419      1273  PPPE      H16X            8.8642301645        6.9789935554       -0.6171192027  MEMB      13              0.0000000000
     40420      1273  PPPE      H16Y           10.6107027159        7.3011708363        0.0582264701  MEMB      13              0.0000000000
     40421      1273  PPPE      H16Z            9.2271417239        8.2601466664        0.4927003634  MEMB      13              0.0000000000
     40422      1274  PPPE      N               7.8228958403       16.1600556223      -21.4442051274  MEMB      14              0.0000000000
     40423      1274  PPPE      HN1             7.9286168149       15.5823238703      -22.3024877721  MEMB      14              0.0000000000
     40424      1274  PPPE      HN2             7.6960641751       17.1366283751      -21.7785991874  MEMB      14              0.0000000000
     40425      1274  PPPE      HN3             8.6574458745       16.0098881990      -20.8420622993  MEMB      14              0.0000000000
     40426      1274  PPPE      C12             6.5152155713       15.7599221961      -20.7148521478  MEMB      14              0.0000000000
     40427      1274  PPPE      H12A            6.7004732130       14.8453133790      -20.1119497361  MEMB      14              0.0000000000
     40428      1274  PPPE      H12B            5.7532181039       15.5418181147      -21.4933837588  MEMB      14              0.0000000000
     40429      1274  PPPE      C11             6.1714310151       17.0112382587      -19.8656082248  MEMB      14              0.0000000000
     40430      1274  PPPE      H11A            6.2284685415       17.9535351998      -20.4513933350  MEMB      14              0.0000000000
     40431      1274  PPPE      H11B            6.7948763150       17.0805613952      -18.9486397080  MEMB      14              0.0000000000
     40432      1274  PPPE      P               4.3662004628       16.8535882724      -17.9209176024  MEMB      14              0.0000000000
     40433      1274  PPPE      O13             5.3708293922       17.5670645030      -17.1545981044  MEMB      14              0.0000000000
     40434      1274  PPPE      O14             2.9702171720       17.3487170082      -17.7647482794  MEMB      14              0.0000000000
     40435      1274  PPPE      O11             4.5362113482       15.2397502830      -17.7277228969  MEMB      14              0.0000000000
     40436      1274  PPPE      O12             4.8359042959       16.8712742274      -19.4073480041  MEMB      14              0.0000000000
     40437      1274  PPPE      C1              3.6863717706       14.3719263989      -18.4554485689  MEMB      14              0.0000000000
     40438      1274  PPPE      HA              4.2855413965       14.2003248977      -19.3751603086  MEMB      14              0.0000000000
     40439      1274  PPPE      HB              2.6350051662       14.7159445862      -18.5584085130  MEMB      14              0.0000000000
     40440      1274  PPPE      C2              3.6345437614       12.9862764064      -17.8300717004  MEMB      14              0.0000000000
     40441      1274  PPPE      HS              2.7506917990       12.4230439550      -18.1987123307  MEMB      14              0.0000000000
     40442      1274  PPPE      O21             3.7838823496       13.1103748105      -16.3946852251  MEMB      14              0.0000000000
     40443      1274  PPPE      C21             2.8058103070       13.8095448781      -15.8107364036  MEMB      14              0.0000000000
     40444      1274  PPPE      O22             1.6918615203       13.9663343371      -16.2754737164  MEMB      14              0.0000000000
     40445      1274  PPPE      C22             3.2953682197       14.3925526069      -14.4905967858  MEMB      14              0.0000000000
     40446      1274  PPPE      H2R             4.1461050840       15.0937036570      -14.6282739179  MEMB      14              0.0000000000
     40447      1274  PPPE      H2S             3.5253262406       13.5185617713      -13.8443922300  MEMB      14              0.0000000000
     40448      1274  PPPE      C3              4.7795715618       12.1219303741      -18.4020360748  MEMB      14              0.0000000000
     40449      1274  PPPE      HX              4.7854521843       11.1537057040      -17.8572173835  MEMB      14              0.0000000000
     40450      1274  PPPE      HY              4.5000905696       12.0205790163      -19.4725216083  MEMB      14              0.0000000000
     40451      1274  PPPE      O31             6.0379167275       12.8428395665      -18.4631306408  MEMB      14              0.0000000000
     40452      1274  PPPE      C31             6.7618309652       12.7597563042      -17.3092028997  MEMB      14              0.0000000000
     40453      1274  PPPE      O32             6.4993868424       12.0684914602      -16.3360298854  MEMB      14              0.0000000000
     40454      1274  PPPE      C32             7.8737154187       13.6727291137      -17.2906160678  MEMB      14              0.0000000000
     40455      1274  PPPE      H2X             7.6574787107       14.6716265310      -17.7262381927  MEMB      14              0.0000000000
     40456      1274  PPPE      H2Y             8.8146210096       13.2469568354      -17.7001714803  MEMB      14              0.0000000000
     40457      1274  PPPE      C23             2.2450868456       15.2341755397      -13.6471509315  MEMB      14              0.0000000000
     40458      1274  PPPE      H3R             1.3331267755       14.6190619675      -13.4913140812  MEMB      14              0.0000000000
     40459      1274  PPPE      H3S             1.8784898822       16.1297236316      -14.1929725886  MEMB      14              0.0000000000
     40460      1274  PPPE      C24             2.7140848635       15.5940298422      -12.1913451187  MEMB      14              0.0000000000
     40461      1274  PPPE      H4R             1.8555706359       16.0750842837      -11.6757280657  MEMB      14              0.0000000000
     40462      1274  PPPE      H4S             3.5423057216       16.3337019548      -12.2267905106  MEMB      14              0.0000000000
     40463      1274  PPPE      C25             3.1656278370       14.3938888775      -11.3135096658  MEMB      14              0.0000000000
     40464      1274  PPPE      H5R             4.1851708198       14.0189904734      -11.5465424803  MEMB      14              0.0000000000
     40465      1274  PPPE      H5S             2.4286110975       13.5770418583      -11.4680679816  MEMB      14              0.0000000000
     40466      1274  PPPE      C26             3.1138101107       14.8431845133       -9.8578847756  MEMB      14              0.0000000000
     40467      1274  PPPE      H6R             2.0263972467       14.9827541192       -9.6779553773  MEMB      14              0.0000000000
     40468      1274  PPPE      H6S             3.6890599492       15.7754831274       -9.6728768913  MEMB      14              0.0000000000
     40469      1274  PPPE      C27             3.7246832532       13.9835240527       -8.7858832783  MEMB      14              0.0000000000
     40470      1274  PPPE      H7R             4.8085416730       14.2274205641       -8.7765871771  MEMB      14              0.0000000000
     40471      1274  PPPE      H7S             3.4811405220       12.9113059039       -8.9451195157  MEMB      14              0.0000000000
     40472      1274  PPPE      C28             3.3326873803       14.3801917610       -7.3025980925  MEMB      14              0.0000000000
     40473      1274  PPPE      H8R             2.2253413772       14.3101018063       -7.2460894398  MEMB      14              0.0000000000
     40474      1274  PPPE      H8S             3.6477383510       15.4430317614       -7.2288755082  MEMB      14              0.0000000000
     40475      1274  PPPE      C29             3.8909781280       13.4638456497       -6.2295742893  MEMB      14              0.0000000000
     40476      1274  PPPE      H91             4.8497163963       12.9838779858       -6.4754441217  MEMB      14              0.0000000000
     40477      1274  PPPE      C210            3.2070036369       12.9716273010       -5.1889451881  MEMB      14              0.0000000000
     40478      1274  PPPE      H101            3.7655115641       12.3562500691       -4.4682651219  MEMB      14              0.0000000000
     40479      1274  PPPE      C211            1.8072144133       13.2305005376       -4.7556368222  MEMB      14              0.0000000000
     40480      1274  PPPE      H11R            1.2410324457       12.2871282650       -4.6013392695  MEMB      14              0.0000000000
     40481      1274  PPPE      H11S            1.2922625576       13.6826367623       -5.6301186234  MEMB      14              0.0000000000
     40482      1274  PPPE      C212            1.6269799747       14.0965423289       -3.4630939738  MEMB      14              0.0000000000
     40483      1274  PPPE      H12R            0.6626885635       13.8237183539       -2.9834793859  MEMB      14              0.0000000000
     40484      1274  PPPE      H12S            1.6381164597       15.1521430594       -3.8093656538  MEMB      14              0.0000000000
     40485      1274  PPPE      C213            2.6397115031       13.6720140186       -2.2810892899  MEMB      14              0.0000000000
     40486      1274  PPPE      H13R            3.6521643182       13.8345474526       -2.7086909502  MEMB      14              0.0000000000
     40487      1274  PPPE      H13S            2.5720929612       12.6149825103       -1.9457788019  MEMB      14              0.0000000000
     40488      1274  PPPE      C214            2.5287688610       14.5528148020       -1.0531265040  MEMB      14              0.0000000000
     40489      1274  PPPE      H14R            1.5998519362       14.2466817299       -0.5261379946  MEMB      14              0.0000000000
     40490      1274  PPPE      H14S            2.3863591244       15.6235601980       -1.3130202589  MEMB      14              0.0000000000
     40491      1274  PPPE      C215            3.6676638923       14.3709521743       -0.0971049079  MEMB      14              0.0000000000
     40492      1274  PPPE      H15R            3.3317386214       14.8320451788        0.8562410175  MEMB      14              0.0000000000
     40493      1274  PPPE      H15S            4.4720412447       15.0020655761       -0.5318392510  MEMB      14              0.0000000000
     40494      1274  PPPE      C216            4.3138567822       13.0551394799        0.3195604914  MEMB      14              0.0000000000
     40495      1274  PPPE      H16R            4.8594377077       12.5421578530       -0.5011174626  MEMB      14              0.0000000000
     40496      1274  PPPE      H16S            5.0130995305       13.2048019207        1.1698438164  MEMB      14              0.0000000000
     40497      1274  PPPE      H16T            3.4866836774       12.4674196292        0.7719884213  MEMB      14              0.0000000000
     40498      1274  PPPE      C33             8.3345844217       14.0447191120      -15.8391216910  MEMB      14              0.0000000000
     40499      1274  PPPE      H3X             9.3209517992       14.5454228652      -15.9425438741  MEMB      14              0.0000000000
     40500      1274  PPPE      H3Y             8.4545582536       13.1244760924      -15.2283188878  MEMB      14              0.0000000000
     40501      1274  PPPE      C34             7.4164116236       15.0367018184      -15.0555996227  MEMB      14              0.0000000000
     40502      1274  PPPE      H4X             6.4711744987       14.5460951589      -14.7391302189  MEMB      14              0.0000000000
     40503      1274  PPPE      H4Y             7.2357407079       15.9775676438      -15.6181389713  MEMB      14              0.0000000000
     40504      1274  PPPE      C35             8.1560301347       15.5862895217      -13.8151199049  MEMB      14              0.0000000000
     40505      1274  PPPE      H5X             8.9242780414       16.3304288576      -14.1157406006  MEMB      14              0.0000000000
     40506      1274  PPPE      H5Y             8.6127280044       14.7557970320      -13.2354387164  MEMB      14              0.0000000000
     40507      1274  PPPE      C36             7.1648137606       16.2395598125      -12.7972529665  MEMB      14              0.0000000000
     40508      1274  PPPE      H6X             6.2539187485       15.6035551899      -12.7877979724  MEMB      14              0.0000000000
     40509      1274  PPPE      H6Y             6.9888031504       17.2937520135      -13.1006010646  MEMB      14              0.0000000000
     40510      1274  PPPE      C37             7.7730298921       16.2108925587      -11.3959277035  MEMB      14              0.0000000000
     40511      1274  PPPE      H7X             8.7549081930       16.7146565209      -11.2676394629  MEMB      14              0.0000000000
     40512      1274  PPPE      H7Y             7.9617562690       15.1464888791      -11.1395136604  MEMB      14              0.0000000000
     40513      1274  PPPE      C38             6.8083406090       16.9062861296      -10.3586787141  MEMB      14              0.0000000000
     40514      1274  PPPE      H8X             5.7731357650       16.5493938207      -10.5465611525  MEMB      14              0.0000000000
     40515      1274  PPPE      H8Y             6.7788494986       18.0089615088      -10.4911863837  MEMB      14              0.0000000000
     40516      1274  PPPE      C39             7.2965462686       16.5437360288       -8.9069239191  MEMB      14              0.0000000000
     40517      1274  PPPE      H9X             8.3084052175       16.9067553171       -8.6264253201  MEMB      14              0.0000000000
     40518      1274  PPPE      H9Y             7.2273374597       15.4385742156       -8.8166548361  MEMB      14              0.0000000000
     40519      1274  PPPE      C310            6.4267774290       17.1960004284       -7.8185276676  MEMB      14              0.0000000000
     40520      1274  PPPE      H10X            5.3690970019       16.8691465772       -7.9123342449  MEMB      14              0.0000000000
     40521      1274  PPPE      H10Y            6.4997547940       18.3010581451       -7.9070869532  MEMB      14              0.0000000000
     40522      1274  PPPE      C311            6.8821405801       16.9233715171       -6.4254792965  MEMB      14              0.0000000000
     40523      1274  PPPE      H11X            7.9580448400       17.1971167769       -6.3828816888  MEMB      14              0.0000000000
     40524      1274  PPPE      H11Y            6.7872288409       15.8452020953       -6.1747534308  MEMB      14              0.0000000000
     40525      1274  PPPE      C312            6.2352977373       17.8098281339       -5.3097538386  MEMB      14              0.0000000000
     40526      1274  PPPE      H12X            5.1790321343       17.4656914496       -5.3236793007  MEMB      14              0.0000000000
     40527      1274  PPPE      H12Y            6.2595654186       18.8977050124       -5.5339322868  MEMB      14              0.0000000000
     40528      1274  PPPE      C313            6.6978333685       17.5615653159       -3.9258988403  MEMB      14              0.0000000000
     40529      1274  PPPE      H13X            7.7077885721       17.9946072055       -3.7622339130  MEMB      14              0.0000000000
     40530      1274  PPPE      H13Y            6.8264606170       16.4596179422       -3.8668394078  MEMB      14              0.0000000000
     40531      1274  PPPE      C314            5.7921020718       18.1210887956       -2.7867049815  MEMB      14              0.0000000000
     40532      1274  PPPE      H14X            4.8203166200       17.5840894732       -2.7468833364  MEMB      14              0.0000000000
     40533      1274  PPPE      H14Y            5.6746105479       19.2245754466       -2.8399398673  MEMB      14              0.0000000000
     40534      1274  PPPE      C315            6.3737404461       17.8554172239       -1.3519468186  MEMB      14              0.0000000000
     40535      1274  PPPE      H15X            7.3031698949       18.4639793063       -1.3403670297  MEMB      14              0.0000000000
     40536      1274  PPPE      H15Y            6.6252761122       16.7761834163       -1.2725415463  MEMB      14              0.0000000000
     40537      1274  PPPE      C316            5.4707806810       18.3242573049       -0.2462220907  MEMB      14              0.0000000000
     40538      1274  PPPE      H16X            5.2246287934       19.4064183617       -0.1946692516  MEMB      14              0.0000000000
     40539      1274  PPPE      H16Y            4.4981623572       17.7898198243       -0.2982910417  MEMB      14              0.0000000000
     40540      1274  PPPE      H16Z            5.8775342067       18.0361825216        0.7466955739  MEMB      14              0.0000000000
     40541      1275  PPPE      N              18.1204524601       -1.4986654663      -21.0655027442  MEMB      15              0.0000000000
     40542      1275  PPPE      HN1            17.7304179182       -2.4445883722      -20.8792155674  MEMB      15              0.0000000000
     40543      1275  PPPE      HN2            17.9412203109       -1.1840656998      -22.0404400876  MEMB      15              0.0000000000
     40544      1275  PPPE      HN3            19.1292238223       -1.4866576373      -20.8128445744  MEMB      15              0.0000000000
     40545      1275  PPPE      C12            17.3821118228       -0.5786709886      -20.0562940782  MEMB      15              0.0000000000
     40546      1275  PPPE      H12A           16.3574194395       -0.3610183264      -20.4263668251  MEMB      15              0.0000000000
     40547      1275  PPPE      H12B           17.8959068896        0.4030693487      -20.1370501258  MEMB      15              0.0000000000
     40548      1275  PPPE      C11            17.2680913847       -1.1947459024      -18.6628437688  MEMB      15              0.0000000000
     40549      1275  PPPE      H11A           16.8083513659       -0.4380453935      -17.9917517821  MEMB      15              0.0000000000
     40550      1275  PPPE      H11B           18.3024696726       -1.4401365232      -18.3400961880  MEMB      15              0.0000000000
     40551      1275  PPPE      P              16.9716453443       -3.8173039268      -18.4518077969  MEMB      15              0.0000000000
     40552      1275  PPPE      O13            15.8678861266       -4.7529893524      -18.0734950897  MEMB      15              0.0000000000
     40553      1275  PPPE      O14            17.6971747375       -4.0839266338      -19.7318072698  MEMB      15              0.0000000000
     40554      1275  PPPE      O11            18.0054229085       -3.7932097226      -17.2943353664  MEMB      15              0.0000000000
     40555      1275  PPPE      O12            16.4867768200       -2.3552840010      -18.6639142315  MEMB      15              0.0000000000
     40556      1275  PPPE      C1             17.5466843196       -3.2303292350      -16.0474092778  MEMB      15              0.0000000000
     40557      1275  PPPE      HA             16.6330911280       -3.8191221838      -15.8172107900  MEMB      15              0.0000000000
     40558      1275  PPPE      HB             17.2512168485       -2.1648055014      -16.1554793781  MEMB      15              0.0000000000
     40559      1275  PPPE      C2             18.6117590841       -3.4117727613      -14.8947556345  MEMB      15              0.0000000000
     40560      1275  PPPE      HS             19.5918391441       -3.1444804067      -15.3445543376  MEMB      15              0.0000000000
     40561      1275  PPPE      O21            18.5582223926       -4.6899313291      -14.3064895774  MEMB      15              0.0000000000
     40562      1275  PPPE      C21            19.5957988000       -5.2802437521      -13.9117882682  MEMB      15              0.0000000000
     40563      1275  PPPE      O22            20.7318387060       -4.7864014143      -13.9433939612  MEMB      15              0.0000000000
     40564      1275  PPPE      C22            19.2410552483       -6.7422615554      -13.4696894701  MEMB      15              0.0000000000
     40565      1275  PPPE      H2R            19.7143819895       -7.3825577168      -14.2444821017  MEMB      15              0.0000000000
     40566      1275  PPPE      H2S            18.1362487134       -6.8330142470      -13.3956120154  MEMB      15              0.0000000000
     40567      1275  PPPE      C3             18.4847964585       -2.4770410851      -13.6263270630  MEMB      15              0.0000000000
     40568      1275  PPPE      HX             19.0221052326       -2.9637059038      -12.7844377380  MEMB      15              0.0000000000
     40569      1275  PPPE      HY             18.9776019545       -1.5302724625      -13.9346984597  MEMB      15              0.0000000000
     40570      1275  PPPE      O31            17.1138200616       -2.2504404550      -13.2599472776  MEMB      15              0.0000000000
     40571      1275  PPPE      C31            16.9529599562       -1.3634344466      -12.3617016070  MEMB      15              0.0000000000
     40572      1275  PPPE      O32            17.8145946131       -0.8671445845      -11.6586616298  MEMB      15              0.0000000000
     40573      1275  PPPE      C32            15.3925103730       -1.2082447194      -12.2647952173  MEMB      15              0.0000000000
     40574      1275  PPPE      H2X            14.8767589678       -1.6480593830      -13.1450704866  MEMB      15              0.0000000000
     40575      1275  PPPE      H2Y            15.1602412341       -0.1238483371      -12.1980379477  MEMB      15              0.0000000000
     40576      1275  PPPE      C23            19.8853239035       -7.1047782200      -12.1690466297  MEMB      15              0.0000000000
     40577      1275  PPPE      H3R            20.8337115583       -6.5923610128      -11.9001405828  MEMB      15              0.0000000000
     40578      1275  PPPE      H3S            20.2691315870       -8.1381739047      -12.3072711606  MEMB      15              0.0000000000
     40579      1275  PPPE      C24            18.9297185187       -6.9927562193      -10.9651021637  MEMB      15              0.0000000000
     40580      1275  PPPE      H4R            19.4873581860       -7.2015450855      -10.0271436301  MEMB      15              0.0000000000
     40581      1275  PPPE      H4S            18.0302768231       -7.6404025837      -11.0417821676  MEMB      15              0.0000000000
     40582      1275  PPPE      C25            18.4083945005       -5.5139036646      -10.6916465235  MEMB      15              0.0000000000
     40583      1275  PPPE      H5R            18.0053243551       -5.0490003261      -11.6166980592  MEMB      15              0.0000000000
     40584      1275  PPPE      H5S            19.1546186842       -4.7410924456      -10.4083917133  MEMB      15              0.0000000000
     40585      1275  PPPE      C26            17.2236111497       -5.3988645689       -9.7410372018  MEMB      15              0.0000000000
     40586      1275  PPPE      H6R            16.3922755270       -5.9910886126      -10.1797543823  MEMB      15              0.0000000000
     40587      1275  PPPE      H6S            16.8934723518       -4.3386785686       -9.7044992918  MEMB      15              0.0000000000
     40588      1275  PPPE      C27            17.3727081008       -5.8691667450       -8.3014541668  MEMB      15              0.0000000000
     40589      1275  PPPE      H7R            18.4614994008       -5.7735514606       -8.1021749092  MEMB      15              0.0000000000
     40590      1275  PPPE      H7S            17.1923784775       -6.9510735858       -8.1245931623  MEMB      15              0.0000000000
     40591      1275  PPPE      C28            16.6575437618       -5.1606982657       -7.1726993268  MEMB      15              0.0000000000
     40592      1275  PPPE      H8R            16.9689631446       -4.0963314261       -7.2394990179  MEMB      15              0.0000000000
     40593      1275  PPPE      H8S            17.1979331859       -5.6393068198       -6.3281674314  MEMB      15              0.0000000000
     40594      1275  PPPE      C29            15.2048562958       -5.2548825364       -7.1034868583  MEMB      15              0.0000000000
     40595      1275  PPPE      H91            14.7631119742       -4.9041865742       -8.0478778242  MEMB      15              0.0000000000
     40596      1275  PPPE      C210           14.4138158282       -5.7112275310       -6.1178226105  MEMB      15              0.0000000000
     40597      1275  PPPE      H101           13.3454998825       -5.8519720930       -6.3389379836  MEMB      15              0.0000000000
     40598      1275  PPPE      C211           14.7990373159       -6.1711832295       -4.7972354466  MEMB      15              0.0000000000
     40599      1275  PPPE      H11R           15.7368028803       -5.7349318052       -4.3915244153  MEMB      15              0.0000000000
     40600      1275  PPPE      H11S           15.0050700543       -7.2618598887       -4.8451513695  MEMB      15              0.0000000000
     40601      1275  PPPE      C212           13.6721174297       -5.7309609476       -3.8404200161  MEMB      15              0.0000000000
     40602      1275  PPPE      H12R           12.6650067008       -6.0431170451       -4.1905736256  MEMB      15              0.0000000000
     40603      1275  PPPE      H12S           13.5724837444       -4.6288664392       -3.7415169148  MEMB      15              0.0000000000
     40604      1275  PPPE      C213           13.9740188935       -6.3598274475       -2.5083058900  MEMB      15              0.0000000000
     40605      1275  PPPE      H13R           14.8920343333       -5.9018545410       -2.0818912219  MEMB      15              0.0000000000
     40606      1275  PPPE      H13S           14.1921081509       -7.4296302984       -2.7139267452  MEMB      15              0.0000000000
     40607      1275  PPPE      C214           12.8699713048       -6.3134961348       -1.3840664502  MEMB      15              0.0000000000
     40608      1275  PPPE      H14R           13.1968586964       -6.9970739562       -0.5715475302  MEMB      15              0.0000000000
     40609      1275  PPPE      H14S           11.9384289367       -6.7783636263       -1.7719427601  MEMB      15              0.0000000000
     40610      1275  PPPE      C215           12.5114936077       -4.8879848833       -0.9508480781  MEMB      15              0.0000000000
     40611      1275  PPPE      H15R           11.6692998636       -4.8534170688       -0.2270830861  MEMB      15              0.0000000000
     40612      1275  PPPE      H15S           12.2540383001       -4.2934598501       -1.8533876892  MEMB      15              0.0000000000
     40613      1275  PPPE      C216           13.6302926194       -3.9618386118       -0.3359450076  MEMB      15              0.0000000000
     40614      1275  PPPE      H16R           13.8862786321       -4.4296751757        0.6386939567  MEMB      15              0.0000000000
     40615      1275  PPPE      H16S           14.4854484658       -3.8584466699       -1.0376141495  MEMB      15              0.0000000000
     40616      1275  PPPE      H16T           13.3241321145       -2.9075303594       -0.1655899249  MEMB      15              0.0000000000
     40617      1275  PPPE      C33            14.7496697989       -1.8420152455      -11.0240510275  MEMB      15              0.0000000000
     40618      1275  PPPE      H3X            15.1974945033       -2.8223770400      -10.7544869608  MEMB      15              0.0000000000
     40619      1275  PPPE      H3Y            13.6394652484       -1.8193497396      -11.0594506182  MEMB      15              0.0000000000
     40620      1275  PPPE      C34            15.2330991474       -1.1016296009       -9.7819721900  MEMB      15              0.0000000000
     40621      1275  PPPE      H4X            14.7676959398       -0.0934497937       -9.8179489952  MEMB      15              0.0000000000
     40622      1275  PPPE      H4Y            16.3215883200       -1.1109439398       -9.5596535800  MEMB      15              0.0000000000
     40623      1275  PPPE      C35            14.7252041955       -1.8162249636       -8.5539867209  MEMB      15              0.0000000000
     40624      1275  PPPE      H5X            15.0013159068       -2.8908432476       -8.4967253329  MEMB      15              0.0000000000
     40625      1275  PPPE      H5Y            13.6238129316       -1.8519150832       -8.6953532633  MEMB      15              0.0000000000
     40626      1275  PPPE      C36            14.9518172986       -1.1044235807       -7.1265397698  MEMB      15              0.0000000000
     40627      1275  PPPE      H6X            14.1949194155       -0.2912377132       -7.1390032951  MEMB      15              0.0000000000
     40628      1275  PPPE      H6Y            15.9353307946       -0.6282298692       -6.9258864559  MEMB      15              0.0000000000
     40629      1275  PPPE      C37            14.5273739516       -1.9703801930       -5.9883072438  MEMB      15              0.0000000000
     40630      1275  PPPE      H7X            15.1766737819       -2.8135373645       -5.6692199287  MEMB      15              0.0000000000
     40631      1275  PPPE      H7Y            13.6000772092       -2.4833779857       -6.3218863440  MEMB      15              0.0000000000
     40632      1275  PPPE      C38            14.2879953305       -1.0409309142       -4.8070845813  MEMB      15              0.0000000000
     40633      1275  PPPE      H8X            13.5513407449       -1.4439339474       -4.0795891677  MEMB      15              0.0000000000
     40634      1275  PPPE      H8Y            13.8557925937       -0.0797257014       -5.1586615051  MEMB      15              0.0000000000
     40635      1275  PPPE      C39            15.4487472926       -0.8191807039       -3.8432658293  MEMB      15              0.0000000000
     40636      1275  PPPE      H9X            15.0204473237       -0.2308749392       -3.0037561726  MEMB      15              0.0000000000
     40637      1275  PPPE      H9Y            16.2155519200       -0.2626200016       -4.4234139553  MEMB      15              0.0000000000
     40638      1275  PPPE      C310           16.0560436738       -2.1001615852       -3.2376968597  MEMB      15              0.0000000000
     40639      1275  PPPE      H10X           16.2823900555       -2.7191657366       -4.1320805448  MEMB      15              0.0000000000
     40640      1275  PPPE      H10Y           15.2764242516       -2.6587237042       -2.6768734333  MEMB      15              0.0000000000
     40641      1275  PPPE      C311           17.3797258879       -1.9038883627       -2.4761244058  MEMB      15              0.0000000000
     40642      1275  PPPE      H11X           17.1182943347       -1.6476662330       -1.4271607442  MEMB      15              0.0000000000
     40643      1275  PPPE      H11Y           18.0062784786       -1.1058196865       -2.9287160974  MEMB      15              0.0000000000
     40644      1275  PPPE      C312           18.2448701157       -3.1616243458       -2.2506295842  MEMB      15              0.0000000000
     40645      1275  PPPE      H12X           19.1256270349       -2.8236182584       -1.6638245619  MEMB      15              0.0000000000
     40646      1275  PPPE      H12Y           18.5051769916       -3.5783097023       -3.2470906442  MEMB      15              0.0000000000
     40647      1275  PPPE      C313           17.4439335336       -4.2015397155       -1.3717487522  MEMB      15              0.0000000000
     40648      1275  PPPE      H13X           16.4612738992       -4.4536625555       -1.8246671957  MEMB      15              0.0000000000
     40649      1275  PPPE      H13Y           17.0933627791       -3.9114629803       -0.3582021899  MEMB      15              0.0000000000
     40650      1275  PPPE      C314           18.2872736719       -5.5213922005       -1.3561963113  MEMB      15              0.0000000000
     40651      1275  PPPE      H14X           19.1213844729       -5.4112118262       -2.0817584772  MEMB      15              0.0000000000
     40652      1275  PPPE      H14Y           17.6856749471       -6.4100812678       -1.6436536406  MEMB      15              0.0000000000
     40653      1275  PPPE      C315           18.9058825547       -5.7889941922        0.0039362786  MEMB      15              0.0000000000
     40654      1275  PPPE      H15X           19.4018400637       -6.7831373718       -0.0012103309  MEMB      15              0.0000000000
     40655      1275  PPPE      H15Y           18.1280499004       -5.7696833968        0.7969838529  MEMB      15              0.0000000000
     40656      1275  PPPE      C316           20.0048620101       -4.9213863427        0.3656317471  MEMB      15              0.0000000000
     40657      1275  PPPE      H16X           20.7993294761       -5.0745584726       -0.3957359329  MEMB      15              0.0000000000
     40658      1275  PPPE      H16Y           19.6166075435       -3.8809265038        0.3336506178  MEMB      15              0.0000000000
     40659      1275  PPPE      H16Z           20.3315565957       -5.2618383228        1.3714568298  MEMB      15              0.0000000000
     40660      1276  PPPE      N               9.8310838928      -17.4320146660      -19.3996001653  MEMB      16              0.0000000000
     40661      1276  PPPE      HN1             9.8254563435      -16.9117168228      -18.4991233555  MEMB      16              0.0000000000
     40662      1276  PPPE      HN2            10.7150275823      -17.9725711198      -19.3099214388  MEMB      16              0.0000000000
     40663      1276  PPPE      HN3             9.9131303722      -16.7788977859      -20.2047751254  MEMB      16              0.0000000000
     40664      1276  PPPE      C12             8.5393728188      -18.1829968114      -19.7255177961  MEMB      16              0.0000000000
     40665      1276  PPPE      H12A            8.6125938595      -19.2095244710      -19.3069480370  MEMB      16              0.0000000000
     40666      1276  PPPE      H12B            8.5131804193      -18.3259384760      -20.8269725790  MEMB      16              0.0000000000
     40667      1276  PPPE      C11             7.3736924802      -17.4420646152      -19.0565626727  MEMB      16              0.0000000000
     40668      1276  PPPE      H11A            7.4935198305      -17.5422805456      -17.9565994126  MEMB      16              0.0000000000
     40669      1276  PPPE      H11B            6.4578565419      -18.0417261612      -19.2462243824  MEMB      16              0.0000000000
     40670      1276  PPPE      P               6.2916264268      -15.0694880532      -18.7889314259  MEMB      16              0.0000000000
     40671      1276  PPPE      O13             6.1040676632      -13.8709592978      -19.6310840655  MEMB      16              0.0000000000
     40672      1276  PPPE      O14             5.0135713148      -15.7708005654      -18.4269065206  MEMB      16              0.0000000000
     40673      1276  PPPE      O11             7.0277573048      -14.7360910425      -17.4554937102  MEMB      16              0.0000000000
     40674      1276  PPPE      O12             7.2391941761      -16.0707577577      -19.5159034681  MEMB      16              0.0000000000
     40675      1276  PPPE      C1              8.2270868668      -13.9943541124      -17.4023263263  MEMB      16              0.0000000000
     40676      1276  PPPE      HA              7.9798107364      -13.0616154876      -16.8517137828  MEMB      16              0.0000000000
     40677      1276  PPPE      HB              8.6593682482      -13.6130774947      -18.3521062735  MEMB      16              0.0000000000
     40678      1276  PPPE      C2              9.3019241288      -14.7893947682      -16.5519600201  MEMB      16              0.0000000000
     40679      1276  PPPE      HS              9.4385359066      -15.7353737834      -17.1183361538  MEMB      16              0.0000000000
     40680      1276  PPPE      O21             8.7705710630      -15.0275534577      -15.2563669341  MEMB      16              0.0000000000
     40681      1276  PPPE      C21             8.9621202666      -16.2860308633      -14.7248078816  MEMB      16              0.0000000000
     40682      1276  PPPE      O22             9.6557483632      -17.1812462325      -15.2136691367  MEMB      16              0.0000000000
     40683      1276  PPPE      C22             8.1969370716      -16.2971448182      -13.4697669172  MEMB      16              0.0000000000
     40684      1276  PPPE      H2R             7.1171908166      -16.1414483467      -13.6800705871  MEMB      16              0.0000000000
     40685      1276  PPPE      H2S             8.3826215570      -15.4738560807      -12.7472449960  MEMB      16              0.0000000000
     40686      1276  PPPE      C3             10.6884369717      -14.1019775482      -16.3056613950  MEMB      16              0.0000000000
     40687      1276  PPPE      HX             11.4257890753      -14.7510852719      -15.7867278361  MEMB      16              0.0000000000
     40688      1276  PPPE      HY             11.1274999293      -13.7003139327      -17.2438570351  MEMB      16              0.0000000000
     40689      1276  PPPE      O31            10.3714430017      -12.8834696005      -15.5127443028  MEMB      16              0.0000000000
     40690      1276  PPPE      C31            10.9076118097      -12.8720547847      -14.2138736717  MEMB      16              0.0000000000
     40691      1276  PPPE      O32            11.5491548191      -13.7489903774      -13.7021925002  MEMB      16              0.0000000000
     40692      1276  PPPE      C32            10.5344836242      -11.5816935707      -13.4202711301  MEMB      16              0.0000000000
     40693      1276  PPPE      H2X            11.0221912581      -10.7582295757      -13.9845133766  MEMB      16              0.0000000000
     40694      1276  PPPE      H2Y            10.9837891943      -11.6231452225      -12.4050237390  MEMB      16              0.0000000000
     40695      1276  PPPE      C23             8.5436569992      -17.5391619711      -12.6811699540  MEMB      16              0.0000000000
     40696      1276  PPPE      H3R             9.6011121351      -17.4273707979      -12.3592812009  MEMB      16              0.0000000000
     40697      1276  PPPE      H3S             8.6320083500      -18.4549730992      -13.3039098808  MEMB      16              0.0000000000
     40698      1276  PPPE      C24             7.5657643291      -17.6631778606      -11.4943701801  MEMB      16              0.0000000000
     40699      1276  PPPE      H4R             7.5882343002      -18.6097570163      -10.9131610935  MEMB      16              0.0000000000
     40700      1276  PPPE      H4S             6.5827618230      -17.5913791145      -12.0070806374  MEMB      16              0.0000000000
     40701      1276  PPPE      C25             7.5969840043      -16.5809887777      -10.3591414244  MEMB      16              0.0000000000
     40702      1276  PPPE      H5R             6.6083904808      -16.6270164171       -9.8542797586  MEMB      16              0.0000000000
     40703      1276  PPPE      H5S             7.8043578480      -15.6888543367      -10.9879603397  MEMB      16              0.0000000000
     40704      1276  PPPE      C26             8.7075111852      -16.7746955620       -9.3887234896  MEMB      16              0.0000000000
     40705      1276  PPPE      H6R             9.5912643736      -16.6089489629      -10.0412795155  MEMB      16              0.0000000000
     40706      1276  PPPE      H6S             8.6109874965      -17.8079785730       -8.9920745305  MEMB      16              0.0000000000
     40707      1276  PPPE      C27             8.9116948022      -15.6849327913       -8.2949015616  MEMB      16              0.0000000000
     40708      1276  PPPE      H7R             7.9781253630      -15.7150874848       -7.6933537276  MEMB      16              0.0000000000
     40709      1276  PPPE      H7S             9.0610269683      -14.7393697635       -8.8587556781  MEMB      16              0.0000000000
     40710      1276  PPPE      C28            10.2178608170      -15.8779642736       -7.4990036364  MEMB      16              0.0000000000
     40711      1276  PPPE      H8R            11.0903741629      -15.7930219649       -8.1815182996  MEMB      16              0.0000000000
     40712      1276  PPPE      H8S            10.2159778184      -16.9544475181       -7.2242286764  MEMB      16              0.0000000000
     40713      1276  PPPE      C29            10.4713147445      -14.9678687448       -6.3039808964  MEMB      16              0.0000000000
     40714      1276  PPPE      H91            10.9382195502      -13.9857558950       -6.4696741451  MEMB      16              0.0000000000
     40715      1276  PPPE      C210           10.1562469708      -15.1672331818       -5.0093006542  MEMB      16              0.0000000000
     40716      1276  PPPE      H101           10.5526689836      -14.4771067711       -4.2499752135  MEMB      16              0.0000000000
     40717      1276  PPPE      C211            9.3967907964      -16.3734222305       -4.3953294102  MEMB      16              0.0000000000
     40718      1276  PPPE      H11R           10.0690115525      -17.1746417489       -4.0205127373  MEMB      16              0.0000000000
     40719      1276  PPPE      H11S            8.7329069096      -16.9097804400       -5.1065952227  MEMB      16              0.0000000000
     40720      1276  PPPE      C212            8.5993906522      -16.0224382744       -3.1011061869  MEMB      16              0.0000000000
     40721      1276  PPPE      H12R            7.9300014188      -16.7748733318       -2.6319787644  MEMB      16              0.0000000000
     40722      1276  PPPE      H12S            7.9210884041      -15.1944012032       -3.3987329144  MEMB      16              0.0000000000
     40723      1276  PPPE      C213            9.2876222836      -15.3647667628       -1.9319143194  MEMB      16              0.0000000000
     40724      1276  PPPE      H13R            8.5506430563      -14.7847344436       -1.3363094780  MEMB      16              0.0000000000
     40725      1276  PPPE      H13S           10.1080954904      -14.6273863687       -2.0638797370  MEMB      16              0.0000000000
     40726      1276  PPPE      C214            9.8440738824      -16.4906327330       -1.0083841289  MEMB      16              0.0000000000
     40727      1276  PPPE      H14R           10.6553652075      -16.9880431334       -1.5817167370  MEMB      16              0.0000000000
     40728      1276  PPPE      H14S            9.0364912272      -17.2126733230       -0.7618306027  MEMB      16              0.0000000000
     40729      1276  PPPE      C215           10.3708604901      -15.9731631073        0.2627898162  MEMB      16              0.0000000000
     40730      1276  PPPE      H15R            9.5065999262      -15.5622085565        0.8271399158  MEMB      16              0.0000000000
     40731      1276  PPPE      H15S           11.0236156381      -15.0976881990        0.0583994992  MEMB      16              0.0000000000
     40732      1276  PPPE      C216           10.8885367260      -16.9382196587        1.2984941555  MEMB      16              0.0000000000
     40733      1276  PPPE      H16R           10.0732730190      -17.5560261681        1.7320621492  MEMB      16              0.0000000000
     40734      1276  PPPE      H16S           11.6569509267      -17.5373343101        0.7647130668  MEMB      16              0.0000000000
     40735      1276  PPPE      H16T           11.4122033330      -16.3698538184        2.0966511301  MEMB      16              0.0000000000
     40736      1276  PPPE      C33             9.0085528007      -11.2986347546      -13.3142795625  MEMB      16              0.0000000000
     40737      1276  PPPE      H3X             8.5943251123      -11.3095659734      -14.3451126871  MEMB      16              0.0000000000
     40738      1276  PPPE      H3Y             8.7655660879      -10.2554252733      -13.0193347617  MEMB      16              0.0000000000
     40739      1276  PPPE      C34             8.3417786845      -12.2625181260      -12.3374908155  MEMB      16              0.0000000000
     40740      1276  PPPE      H4X             9.0543081125      -12.2568742688      -11.4850877645  MEMB      16              0.0000000000
     40741      1276  PPPE      H4Y             8.3540767986      -13.2876495586      -12.7655974638  MEMB      16              0.0000000000
     40742      1276  PPPE      C35             6.9991690041      -11.7501018912      -12.0238621970  MEMB      16              0.0000000000
     40743      1276  PPPE      H5X             6.4910437180      -11.8471332114      -13.0070786618  MEMB      16              0.0000000000
     40744      1276  PPPE      H5Y             7.1027992176      -10.6827560495      -11.7334235066  MEMB      16              0.0000000000
     40745      1276  PPPE      C36             6.3553193477      -12.4672274068      -10.8871426026  MEMB      16              0.0000000000
     40746      1276  PPPE      H6X             6.5202674901      -13.5486948144      -11.0808985224  MEMB      16              0.0000000000
     40747      1276  PPPE      H6Y             5.2972367100      -12.1284421485      -10.8897272579  MEMB      16              0.0000000000
     40748      1276  PPPE      C37             7.0515618676      -12.0517679413       -9.5277345238  MEMB      16              0.0000000000
     40749      1276  PPPE      H7X             7.4012693457      -10.9974847940       -9.5503779568  MEMB      16              0.0000000000
     40750      1276  PPPE      H7Y             7.9385810868      -12.7207065286       -9.5339852252  MEMB      16              0.0000000000
     40751      1276  PPPE      C38             6.0828592176      -12.3169060338       -8.4047891885  MEMB      16              0.0000000000
     40752      1276  PPPE      H8X             5.8385901952      -13.3926566935       -8.2728264556  MEMB      16              0.0000000000
     40753      1276  PPPE      H8Y             5.1639574338      -11.7275481237       -8.6111814496  MEMB      16              0.0000000000
     40754      1276  PPPE      C39             6.6315404864      -11.7671251922       -7.1133376328  MEMB      16              0.0000000000
     40755      1276  PPPE      H9X             5.7628818255      -11.8113424112       -6.4221083161  MEMB      16              0.0000000000
     40756      1276  PPPE      H9Y             6.8604917598      -10.7022338362       -7.3322182265  MEMB      16              0.0000000000
     40757      1276  PPPE      C310            7.8573983036      -12.4012558670       -6.5416452334  MEMB      16              0.0000000000
     40758      1276  PPPE      H10X            8.7247955201      -12.3379171078       -7.2329709673  MEMB      16              0.0000000000
     40759      1276  PPPE      H10Y            7.6970086420      -13.4906941677       -6.3942669948  MEMB      16              0.0000000000
     40760      1276  PPPE      C311            8.3841295642      -11.7787183218       -5.2264812615  MEMB      16              0.0000000000
     40761      1276  PPPE      H11X            8.5589236314      -10.6828311904       -5.2793908947  MEMB      16              0.0000000000
     40762      1276  PPPE      H11Y            9.3518281480      -12.2695906069       -4.9878919686  MEMB      16              0.0000000000
     40763      1276  PPPE      C312            7.3734247735      -11.8804935449       -4.0157552984  MEMB      16              0.0000000000
     40764      1276  PPPE      H12X            6.8707761058      -12.8674366916       -3.9285283415  MEMB      16              0.0000000000
     40765      1276  PPPE      H12Y            6.6358595487      -11.0638723052       -4.1688836430  MEMB      16              0.0000000000
     40766      1276  PPPE      C313            8.1440965516      -11.5928856983       -2.7102693826  MEMB      16              0.0000000000
     40767      1276  PPPE      H13X            8.9163904166      -10.8332509302       -2.9569234021  MEMB      16              0.0000000000
     40768      1276  PPPE      H13Y            8.7269940147      -12.5235556575       -2.5417316279  MEMB      16              0.0000000000
     40769      1276  PPPE      C314            7.2212984495      -11.3038325980       -1.5009303047  MEMB      16              0.0000000000
     40770      1276  PPPE      H14X            6.2680005084      -11.8717138615       -1.4456590981  MEMB      16              0.0000000000
     40771      1276  PPPE      H14Y            6.9026579554      -10.2436441491       -1.5946836421  MEMB      16              0.0000000000
     40772      1276  PPPE      C315            8.0443810707      -11.4634625707       -0.2193645358  MEMB      16              0.0000000000
     40773      1276  PPPE      H15X            8.3872802571      -12.5135554973       -0.1008487417  MEMB      16              0.0000000000
     40774      1276  PPPE      H15Y            7.3982360756      -11.3458713404        0.6767325281  MEMB      16              0.0000000000
     40775      1276  PPPE      C316            9.2541560911      -10.5657194597        0.0031805151  MEMB      16              0.0000000000
     40776      1276  PPPE      H16X            8.9942565733       -9.4859515367       -0.0263909752  MEMB      16              0.0000000000
     40777      1276  PPPE      H16Y            9.6597026280      -10.7194299967        1.0260324483  MEMB      16              0.0000000000
     40778      1276  PPPE      H16Z           10.0813084265      -10.8118209873       -0.6965151704  MEMB      16              0.0000000000
     40779      1277  PVPG      C13            -2.3360345674      -17.7854232909      -19.3779356759  MEMB      17              0.0000000000
     40780      1277  PVPG      H13A           -1.5275442283      -17.1304017954      -18.9885628103  MEMB      17              0.0000000000
     40781      1277  PVPG      H13B           -2.6801026282      -17.5133041604      -20.3986654564  MEMB      17              0.0000000000
     40782      1277  PVPG      OC3            -3.4630962447      -17.5424650333      -18.5173561673  MEMB      17              0.0000000000
     40783      1277  PVPG      HO3            -3.9041682977      -18.3933152997      -18.5731165693  MEMB      17              0.0000000000
     40784      1277  PVPG      C12            -1.9456448430      -19.3075755299      -19.2518116981  MEMB      17              0.0000000000
     40785      1277  PVPG      H12A           -2.8028448389      -19.9028588697      -19.6437618892  MEMB      17              0.0000000000
     40786      1277  PVPG      OC2            -1.7585638252      -19.6554393956      -17.8792111321  MEMB      17              0.0000000000
     40787      1277  PVPG      HO2            -1.3928956874      -20.5656280300      -17.9298105651  MEMB      17              0.0000000000
     40788      1277  PVPG      C11            -0.6494171004      -19.6578952347      -20.1131299471  MEMB      17              0.0000000000
     40789      1277  PVPG      H11A           -0.8487873799      -19.5427560650      -21.2000133323  MEMB      17              0.0000000000
     40790      1277  PVPG      H11B           -0.3183912978      -20.7043776196      -19.9410325891  MEMB      17              0.0000000000
     40791      1277  PVPG      P               1.7177711322      -19.1593577198      -19.0054185820  MEMB      17              0.0000000000
     40792      1277  PVPG      O13             2.8244335689      -18.8629100311      -19.9477981957  MEMB      17              0.0000000000
     40793      1277  PVPG      O14             1.5129550532      -20.5253522310      -18.4194517507  MEMB      17              0.0000000000
     40794      1277  PVPG      O12             0.3716924839      -18.6803665604      -19.7019250682  MEMB      17              0.0000000000
     40795      1277  PVPG      O11             1.8813199092      -18.1185789518      -17.7859617811  MEMB      17              0.0000000000
     40796      1277  PVPG      C1              0.6871643266      -17.8748461674      -17.0701011146  MEMB      17              0.0000000000
     40797      1277  PVPG      HA              0.5332138660      -18.7080180219      -16.3514601937  MEMB      17              0.0000000000
     40798      1277  PVPG      HB             -0.2075800918      -17.6509487586      -17.6894745090  MEMB      17              0.0000000000
     40799      1277  PVPG      C2              0.7115007266      -16.6250287230      -16.0937954195  MEMB      17              0.0000000000
     40800      1277  PVPG      HS              0.7075631022      -15.7134826411      -16.7289245268  MEMB      17              0.0000000000
     40801      1277  PVPG      O21             1.8522026617      -16.7664275257      -15.2165031782  MEMB      17              0.0000000000
     40802      1277  PVPG      C21             2.2498223720      -15.6040478804      -14.6648693056  MEMB      17              0.0000000000
     40803      1277  PVPG      O22             1.7312511929      -14.5082627414      -14.9277353977  MEMB      17              0.0000000000
     40804      1277  PVPG      C22             3.4523610582      -15.8674345154      -13.7869050876  MEMB      17              0.0000000000
     40805      1277  PVPG      H2R             4.2309726534      -16.1960502639      -14.5080825661  MEMB      17              0.0000000000
     40806      1277  PVPG      H2S             3.3171905224      -16.7115095509      -13.0772665695  MEMB      17              0.0000000000
     40807      1277  PVPG      C3             -0.5694306509      -16.7027367388      -15.2112799994  MEMB      17              0.0000000000
     40808      1277  PVPG      HX             -0.6938687838      -15.7768330595      -14.6099990592  MEMB      17              0.0000000000
     40809      1277  PVPG      HY             -1.4557872411      -16.6267860937      -15.8768058508  MEMB      17              0.0000000000
     40810      1277  PVPG      O31            -0.4914716990      -17.8266553667      -14.2722986418  MEMB      17              0.0000000000
     40811      1277  PVPG      C31            -1.5608535327      -18.0449294748      -13.5005875253  MEMB      17              0.0000000000
     40812      1277  PVPG      O32            -2.5389871439      -17.3460835583      -13.5110026398  MEMB      17              0.0000000000
     40813      1277  PVPG      C32            -1.2222294676      -19.0596724493      -12.4560819339  MEMB      17              0.0000000000
     40814      1277  PVPG      H2X            -0.1909468260      -18.7969274469      -12.1371120326  MEMB      17              0.0000000000
     40815      1277  PVPG      H2Y            -1.3274442490      -20.0530166029      -12.9424133953  MEMB      17              0.0000000000
     40816      1277  PVPG      C23             3.8491295984      -14.6133810368      -12.9415722003  MEMB      17              0.0000000000
     40817      1277  PVPG      H3R             3.6135318567      -13.6767694923      -13.4907287291  MEMB      17              0.0000000000
     40818      1277  PVPG      H3S             4.9536981034      -14.6130612376      -12.8222033297  MEMB      17              0.0000000000
     40819      1277  PVPG      C24             3.3445928449      -14.5764471326      -11.4695245995  MEMB      17              0.0000000000
     40820      1277  PVPG      H4R             4.1786068892      -14.2594003754      -10.8075398901  MEMB      17              0.0000000000
     40821      1277  PVPG      H4S             3.0284894745      -15.6102436704      -11.2132741015  MEMB      17              0.0000000000
     40822      1277  PVPG      C25             2.1899956911      -13.6090991810      -11.3421040710  MEMB      17              0.0000000000
     40823      1277  PVPG      H5R             1.3304015123      -14.0066784573      -11.9229216553  MEMB      17              0.0000000000
     40824      1277  PVPG      H5S             2.4800135248      -12.5754690076      -11.6281445780  MEMB      17              0.0000000000
     40825      1277  PVPG      C26             1.5774919002      -13.6157240140       -9.9234055730  MEMB      17              0.0000000000
     40826      1277  PVPG      H6R             0.8771536049      -12.7544021759       -9.9678114094  MEMB      17              0.0000000000
     40827      1277  PVPG      H6S             2.3054538750      -13.2379540783       -9.1739499891  MEMB      17              0.0000000000
     40828      1277  PVPG      C27             0.9330976179      -14.9620939600       -9.5097694208  MEMB      17              0.0000000000
     40829      1277  PVPG      H7R             1.5213254431      -15.8821213960       -9.3051748556  MEMB      17              0.0000000000
     40830      1277  PVPG      H7S             0.1808184194      -15.2435310226      -10.2773558741  MEMB      17              0.0000000000
     40831      1277  PVPG      C28             0.2297842746      -14.8496018613       -8.2053722892  MEMB      17              0.0000000000
     40832      1277  PVPG      H8R            -0.5196921539      -14.0509348724       -8.3917502904  MEMB      17              0.0000000000
     40833      1277  PVPG      H8S             0.8618184905      -14.4491088822       -7.3841183667  MEMB      17              0.0000000000
     40834      1277  PVPG      C29            -0.5982758552      -16.0796551772       -7.7597891760  MEMB      17              0.0000000000
     40835      1277  PVPG      H9R             0.2040015336      -16.8303082995       -7.5948899052  MEMB      17              0.0000000000
     40836      1277  PVPG      H9S            -1.3099994602      -16.3491877270       -8.5691852114  MEMB      17              0.0000000000
     40837      1277  PVPG      C210           -1.4827192738      -15.9560283923       -6.4680228122  MEMB      17              0.0000000000
     40838      1277  PVPG      H10R           -2.3018728180      -15.2933081113       -6.8203160851  MEMB      17              0.0000000000
     40839      1277  PVPG      H10S           -1.0876770709      -15.5927263504       -5.4952568294  MEMB      17              0.0000000000
     40840      1277  PVPG      C211           -2.1617854665      -17.2870745095       -6.2570509808  MEMB      17              0.0000000000
     40841      1277  PVPG      H111           -2.8311161444      -17.5283453736       -7.0959697813  MEMB      17              0.0000000000
     40842      1277  PVPG      C212           -1.9752554339      -18.2115030980       -5.3536370730  MEMB      17              0.0000000000
     40843      1277  PVPG      H121           -2.6148085393      -19.1057139141       -5.3904980562  MEMB      17              0.0000000000
     40844      1277  PVPG      C213           -0.9944734439      -18.2070579613       -4.2246679933  MEMB      17              0.0000000000
     40845      1277  PVPG      H13R           -0.2742442504      -17.3818582389       -4.4107764470  MEMB      17              0.0000000000
     40846      1277  PVPG      H13S           -0.3217357643      -19.0797134238       -4.3668548741  MEMB      17              0.0000000000
     40847      1277  PVPG      C214           -1.5510796716      -18.4025194355       -2.7719290802  MEMB      17              0.0000000000
     40848      1277  PVPG      H14R           -2.1019598219      -19.3624705158       -2.6752558151  MEMB      17              0.0000000000
     40849      1277  PVPG      H14S           -2.2320303799      -17.5455552702       -2.5815627221  MEMB      17              0.0000000000
     40850      1277  PVPG      C215           -0.4076873510      -18.5057381187       -1.6883745871  MEMB      17              0.0000000000
     40851      1277  PVPG      H15R            0.4258418846      -17.8023240430       -1.8999368678  MEMB      17              0.0000000000
     40852      1277  PVPG      H15S            0.0301457859      -19.5268090228       -1.6822665981  MEMB      17              0.0000000000
     40853      1277  PVPG      C216           -0.9349921599      -18.2666773925       -0.2896836177  MEMB      17              0.0000000000
     40854      1277  PVPG      H16R           -0.1700748487      -18.5998278721        0.4439592238  MEMB      17              0.0000000000
     40855      1277  PVPG      H16S           -1.7445261568      -19.0212069072       -0.1913941634  MEMB      17              0.0000000000
     40856      1277  PVPG      C217           -1.3466649422      -16.8579145840        0.0280608343  MEMB      17              0.0000000000
     40857      1277  PVPG      H17R           -1.9621266068      -16.9299477986        0.9501999309  MEMB      17              0.0000000000
     40858      1277  PVPG      H17S           -1.9933638909      -16.4262949641       -0.7655420060  MEMB      17              0.0000000000
     40859      1277  PVPG      C218           -0.2676790407      -15.8214774227        0.3811160447  MEMB      17              0.0000000000
     40860      1277  PVPG      H18R           -0.6331555021      -15.0157363996        1.0530752161  MEMB      17              0.0000000000
     40861      1277  PVPG      H18S            0.5368996200      -16.2594641640        1.0097178656  MEMB      17              0.0000000000
     40862      1277  PVPG      H18T            0.2816389402      -15.3966195975       -0.4861027594  MEMB      17              0.0000000000
     40863      1277  PVPG      C33            -2.3196597953      -19.0153741458      -11.3672928101  MEMB      17              0.0000000000
     40864      1277  PVPG      H3X            -3.2296598380      -19.2494584029      -11.9601039248  MEMB      17              0.0000000000
     40865      1277  PVPG      H3Y            -2.4895670791      -17.9663288621      -11.0433224756  MEMB      17              0.0000000000
     40866      1277  PVPG      C34            -2.1566561723      -19.9580735642      -10.2110312736  MEMB      17              0.0000000000
     40867      1277  PVPG      H4X            -2.1037893674      -20.9902512033      -10.6186289042  MEMB      17              0.0000000000
     40868      1277  PVPG      H4Y            -3.0783456450      -19.8787913678       -9.5957879977  MEMB      17              0.0000000000
     40869      1277  PVPG      C35            -0.8891797913      -19.6503057552       -9.4064474301  MEMB      17              0.0000000000
     40870      1277  PVPG      H5X            -1.0461125859      -18.6810324915       -8.8866373224  MEMB      17              0.0000000000
     40871      1277  PVPG      H5Y             0.0076907075      -19.5643785867      -10.0564944976  MEMB      17              0.0000000000
     40872      1277  PVPG      C36            -0.4144364342      -20.7223503073       -8.3341403200  MEMB      17              0.0000000000
     40873      1277  PVPG      H6X            -0.0928148956      -21.6873009660       -8.7810755946  MEMB      17              0.0000000000
     40874      1277  PVPG      H6Y            -1.3337636609      -20.9247820483       -7.7440727219  MEMB      17              0.0000000000
     40875      1277  PVPG      C37             0.7353857658      -20.2256854503       -7.5023439407  MEMB      17              0.0000000000
     40876      1277  PVPG      H7X             0.2950607359      -19.5038214274       -6.7816861638  MEMB      17              0.0000000000
     40877      1277  PVPG      H7Y             1.4688235886      -19.6136181902       -8.0695863020  MEMB      17              0.0000000000
     40878      1277  PVPG      C38             1.5629101698      -21.2757985615       -6.6999535611  MEMB      17              0.0000000000
     40879      1277  PVPG      H8X             2.0533823318      -21.9738744315       -7.4116048605  MEMB      17              0.0000000000
     40880      1277  PVPG      H8Y             0.8266040826      -21.8729261288       -6.1206322119  MEMB      17              0.0000000000
     40881      1277  PVPG      C39             2.7320356575      -20.6096965463       -5.9054508795  MEMB      17              0.0000000000
     40882      1277  PVPG      H9X             3.6126207534      -20.4143629608       -6.5540922190  MEMB      17              0.0000000000
     40883      1277  PVPG      H9Y             3.0175733824      -21.4335793323       -5.2169699685  MEMB      17              0.0000000000
     40884      1277  PVPG      C310            2.3776094370      -19.3249702591       -5.1300249472  MEMB      17              0.0000000000
     40885      1277  PVPG      H10X            1.7632370734      -19.5787580815       -4.2398233691  MEMB      17              0.0000000000
     40886      1277  PVPG      H10Y            1.8163760651      -18.6432549950       -5.8042671517  MEMB      17              0.0000000000
     40887      1277  PVPG      C311            3.6834175902      -18.5675662651       -4.7564786524  MEMB      17              0.0000000000
     40888      1277  PVPG      H11X            4.2696517599      -18.5566806082       -5.7001587280  MEMB      17              0.0000000000
     40889      1277  PVPG      H11Y            4.3347443173      -19.1451129845       -4.0661633928  MEMB      17              0.0000000000
     40890      1277  PVPG      C312            3.5101546866      -17.1729090327       -4.1045208937  MEMB      17              0.0000000000
     40891      1277  PVPG      H12X            4.5047793156      -16.7277441331       -3.8880222783  MEMB      17              0.0000000000
     40892      1277  PVPG      H12Y            2.9882924365      -17.3929923965       -3.1487259476  MEMB      17              0.0000000000
     40893      1277  PVPG      C313            2.6878370868      -16.1811491617       -4.8968086979  MEMB      17              0.0000000000
     40894      1277  PVPG      H13X            1.6747759799      -16.6310368056       -4.9718373912  MEMB      17              0.0000000000
     40895      1277  PVPG      H13Y            3.1756841040      -16.0982469326       -5.8915209861  MEMB      17              0.0000000000
     40896      1277  PVPG      C314            2.6335160110      -14.7903140139       -4.2588636595  MEMB      17              0.0000000000
     40897      1277  PVPG      H14X            2.2076336516      -14.1304003774       -5.0446504041  MEMB      17              0.0000000000
     40898      1277  PVPG      H14Y            3.6679686856      -14.5120484453       -3.9642509868  MEMB      17              0.0000000000
     40899      1277  PVPG      C315            1.6777805038      -14.7842467320       -3.0441487213  MEMB      17              0.0000000000
     40900      1277  PVPG      H15X            1.9546729324      -15.4981418462       -2.2391605440  MEMB      17              0.0000000000
     40901      1277  PVPG      H15Y            0.7377069040      -15.1035273824       -3.5427881193  MEMB      17              0.0000000000
     40902      1277  PVPG      C316            1.5951443364      -13.3791354182       -2.4182996383  MEMB      17              0.0000000000
     40903      1277  PVPG      H16X            1.0933663812      -13.4928917724       -1.4336165349  MEMB      17              0.0000000000
     40904      1277  PVPG      H16Y            2.6131406807      -12.9817455814       -2.2180855326  MEMB      17              0.0000000000
     40905      1277  PVPG      H16Z            1.0519090034      -12.7504476561       -3.1558396301  MEMB      17              0.0000000000
     40906      1278  PVPG      C13           -15.7175074982        7.4276562253      -18.0187169438  MEMB      18              0.0000000000
     40907      1278  PVPG      H13A          -15.2866767565        6.8872914193      -17.1488251240  MEMB      18              0.0000000000
     40908      1278  PVPG      H13B          -14.9098869076        7.9007213095      -18.6172816209  MEMB      18              0.0000000000
     40909      1278  PVPG      OC3           -16.6041044411        8.4210938544      -17.5148517714  MEMB      18              0.0000000000
     40910      1278  PVPG      HO3           -15.9733606558        8.9490866092      -17.0198909894  MEMB      18              0.0000000000
     40911      1278  PVPG      C12           -16.4246354109        6.4642789585      -19.0119327632  MEMB      18              0.0000000000
     40912      1278  PVPG      H12A          -15.6471459126        5.7737667662      -19.4137810333  MEMB      18              0.0000000000
     40913      1278  PVPG      OC2           -16.9692170785        7.2004706956      -20.1080593178  MEMB      18              0.0000000000
     40914      1278  PVPG      HO2           -17.4974449888        6.5250690293      -20.5871466835  MEMB      18              0.0000000000
     40915      1278  PVPG      C11           -17.5242924605        5.6446978671      -18.2046113508  MEMB      18              0.0000000000
     40916      1278  PVPG      H11A          -18.1759493059        6.3998895731      -17.7153774636  MEMB      18              0.0000000000
     40917      1278  PVPG      H11B          -16.9107995276        5.0910699266      -17.4620188978  MEMB      18              0.0000000000
     40918      1278  PVPG      P             -19.6401604191        4.9147182996      -19.4848637029  MEMB      18              0.0000000000
     40919      1278  PVPG      O13           -20.0940432894        3.8566031080      -20.4198970320  MEMB      18              0.0000000000
     40920      1278  PVPG      O14           -19.7977748016        6.3003238917      -20.0855916168  MEMB      18              0.0000000000
     40921      1278  PVPG      O12           -18.1707721525        4.7029068365      -19.0161742183  MEMB      18              0.0000000000
     40922      1278  PVPG      O11           -20.4132594662        4.8112789576      -18.1353012856  MEMB      18              0.0000000000
     40923      1278  PVPG      C1            -20.6043321074        3.5989047059      -17.5096508360  MEMB      18              0.0000000000
     40924      1278  PVPG      HA            -19.7261033600        2.9185058590      -17.5000244654  MEMB      18              0.0000000000
     40925      1278  PVPG      HB            -21.5294234623        3.1389546408      -17.9182739587  MEMB      18              0.0000000000
     40926      1278  PVPG      C2            -21.0139919981        3.8621565135      -15.9985649749  MEMB      18              0.0000000000
     40927      1278  PVPG      HS            -21.8131081345        3.1837232165      -15.6305125381  MEMB      18              0.0000000000
     40928      1278  PVPG      O21           -21.3014646600        5.2492413263      -15.7333211663  MEMB      18              0.0000000000
     40929      1278  PVPG      C21           -22.5235439768        5.5282691128      -15.8968795415  MEMB      18              0.0000000000
     40930      1278  PVPG      O22           -23.4322112615        4.7207268906      -16.1946319842  MEMB      18              0.0000000000
     40931      1278  PVPG      C22           -22.7422445982        7.0080823326      -15.9615099956  MEMB      18              0.0000000000
     40932      1278  PVPG      H2R           -23.5650338075        7.2585636911      -16.6647865084  MEMB      18              0.0000000000
     40933      1278  PVPG      H2S           -21.9042454449        7.4245473066      -16.5603716991  MEMB      18              0.0000000000
     40934      1278  PVPG      C3            -19.7741883690        3.4661650587      -15.0853001916  MEMB      18              0.0000000000
     40935      1278  PVPG      HX            -19.4121967399        2.4819254329      -15.4521181388  MEMB      18              0.0000000000
     40936      1278  PVPG      HY            -19.0216323036        4.2602547468      -15.2786966840  MEMB      18              0.0000000000
     40937      1278  PVPG      O31           -20.1022125870        3.5646769203      -13.6913184034  MEMB      18              0.0000000000
     40938      1278  PVPG      C31           -20.1096326041        2.4583754817      -12.9233157366  MEMB      18              0.0000000000
     40939      1278  PVPG      O32           -20.1430658841        1.3607950579      -13.3477988355  MEMB      18              0.0000000000
     40940      1278  PVPG      C32           -20.1981007165        2.8766610368      -11.4971585955  MEMB      18              0.0000000000
     40941      1278  PVPG      H2X           -21.0159699428        2.3367709338      -10.9737751587  MEMB      18              0.0000000000
     40942      1278  PVPG      H2Y           -20.5470229478        3.9270859791      -11.4013378054  MEMB      18              0.0000000000
     40943      1278  PVPG      C23           -23.1292302801        7.6672050881      -14.6411096642  MEMB      18              0.0000000000
     40944      1278  PVPG      H3R           -24.0568181391        7.2381589159      -14.2054253438  MEMB      18              0.0000000000
     40945      1278  PVPG      H3S           -23.3833345095        8.6971680659      -14.9711523827  MEMB      18              0.0000000000
     40946      1278  PVPG      C24           -22.0009885888        7.6380951018      -13.5755440605  MEMB      18              0.0000000000
     40947      1278  PVPG      H4R           -21.7771826383        6.5896185889      -13.2841186084  MEMB      18              0.0000000000
     40948      1278  PVPG      H4S           -22.5789252034        7.9739197522      -12.6881140652  MEMB      18              0.0000000000
     40949      1278  PVPG      C25           -20.8413174640        8.6276687713      -13.7431076026  MEMB      18              0.0000000000
     40950      1278  PVPG      H5R           -21.0071131136        9.0132719476      -14.7717684515  MEMB      18              0.0000000000
     40951      1278  PVPG      H5S           -19.8385437624        8.1497290543      -13.7246915145  MEMB      18              0.0000000000
     40952      1278  PVPG      C26           -20.9113805021        9.7975316921      -12.6919370859  MEMB      18              0.0000000000
     40953      1278  PVPG      H6R           -21.9800864163        9.9730524038      -12.4441843340  MEMB      18              0.0000000000
     40954      1278  PVPG      H6S           -20.5840252924       10.7373149093      -13.1858674659  MEMB      18              0.0000000000
     40955      1278  PVPG      C27           -19.8703537851        9.7096511668      -11.5279834132  MEMB      18              0.0000000000
     40956      1278  PVPG      H7R           -20.1180449310       10.6188864017      -10.9395433496  MEMB      18              0.0000000000
     40957      1278  PVPG      H7S           -18.8246770492        9.5877959182      -11.8829934218  MEMB      18              0.0000000000
     40958      1278  PVPG      C28           -20.0817367025        8.5580515367      -10.4977546229  MEMB      18              0.0000000000
     40959      1278  PVPG      H8R           -19.2425538631        8.6518500264       -9.7757477025  MEMB      18              0.0000000000
     40960      1278  PVPG      H8S           -20.0487851387        7.5553346940      -10.9750325190  MEMB      18              0.0000000000
     40961      1278  PVPG      C29           -21.4424269011        8.6438935315       -9.7245943880  MEMB      18              0.0000000000
     40962      1278  PVPG      H9R           -22.2948103044        8.5154715864      -10.4255019670  MEMB      18              0.0000000000
     40963      1278  PVPG      H9S           -21.6807892685        9.6787502231       -9.3981341083  MEMB      18              0.0000000000
     40964      1278  PVPG      C210          -21.7649270896        7.8074421589       -8.4355241741  MEMB      18              0.0000000000
     40965      1278  PVPG      H10R          -21.8335925692        6.7308052262       -8.7009653127  MEMB      18              0.0000000000
     40966      1278  PVPG      H10S          -22.7755574184        8.0767424059       -8.0607910976  MEMB      18              0.0000000000
     40967      1278  PVPG      C211          -20.7737099449        8.0552191336       -7.3245276515  MEMB      18              0.0000000000
     40968      1278  PVPG      H111          -20.4001217445        9.0878949679       -7.3878718016  MEMB      18              0.0000000000
     40969      1278  PVPG      C212          -20.1782593172        7.1569339062       -6.5104361045  MEMB      18              0.0000000000
     40970      1278  PVPG      H121          -19.5065907295        7.5529625840       -5.7345353873  MEMB      18              0.0000000000
     40971      1278  PVPG      C213          -20.4499991528        5.6600638581       -6.5542984248  MEMB      18              0.0000000000
     40972      1278  PVPG      H13R          -19.8895328863        5.0811860124       -5.7893806576  MEMB      18              0.0000000000
     40973      1278  PVPG      H13S          -20.2028132858        5.2298969473       -7.5483699269  MEMB      18              0.0000000000
     40974      1278  PVPG      C214          -21.9080036359        5.2479110555       -6.2749511466  MEMB      18              0.0000000000
     40975      1278  PVPG      H14R          -21.8427665197        4.1412607310       -6.2015325578  MEMB      18              0.0000000000
     40976      1278  PVPG      H14S          -22.5293229515        5.5339843006       -7.1504196139  MEMB      18              0.0000000000
     40977      1278  PVPG      C215          -22.6791662483        5.9720838569       -5.1230235817  MEMB      18              0.0000000000
     40978      1278  PVPG      H15R          -23.6631902458        5.4610836285       -5.0530479826  MEMB      18              0.0000000000
     40979      1278  PVPG      H15S          -22.9021387805        6.9744617627       -5.5471021298  MEMB      18              0.0000000000
     40980      1278  PVPG      C216          -22.1293729427        6.1516997824       -3.7284374322  MEMB      18              0.0000000000
     40981      1278  PVPG      H16R          -22.9429933537        6.5559287574       -3.0889512250  MEMB      18              0.0000000000
     40982      1278  PVPG      H16S          -21.3495237859        6.9314738731       -3.8630054572  MEMB      18              0.0000000000
     40983      1278  PVPG      C217          -21.5018870249        4.8927766061       -3.1643766222  MEMB      18              0.0000000000
     40984      1278  PVPG      H17R          -20.7916356779        4.5653536631       -3.9534636704  MEMB      18              0.0000000000
     40985      1278  PVPG      H17S          -22.3627853817        4.2088640960       -3.0048814961  MEMB      18              0.0000000000
     40986      1278  PVPG      C218          -20.9252837173        5.2450551269       -1.8362989601  MEMB      18              0.0000000000
     40987      1278  PVPG      H18R          -20.8352728123        4.3201011039       -1.2274660177  MEMB      18              0.0000000000
     40988      1278  PVPG      H18S          -20.0088560376        5.8728210437       -1.8560844316  MEMB      18              0.0000000000
     40989      1278  PVPG      H18T          -21.7037432858        5.8450759544       -1.3183254829  MEMB      18              0.0000000000
     40990      1278  PVPG      C33           -18.9172584053        2.6846478762      -10.8553560139  MEMB      18              0.0000000000
     40991      1278  PVPG      H3X           -18.1908636418        3.4306504060      -11.2428504406  MEMB      18              0.0000000000
     40992      1278  PVPG      H3Y           -18.5301846281        1.6436603192      -10.8843334382  MEMB      18              0.0000000000
     40993      1278  PVPG      C34           -18.9410438197        2.9206279378       -9.3083674720  MEMB      18              0.0000000000
     40994      1278  PVPG      H4X           -19.3295871451        3.9586056608       -9.2311844870  MEMB      18              0.0000000000
     40995      1278  PVPG      H4Y           -17.9242121871        2.7418206162       -8.8979985642  MEMB      18              0.0000000000
     40996      1278  PVPG      C35           -20.0016916636        2.0909024931       -8.4988383885  MEMB      18              0.0000000000
     40997      1278  PVPG      H5X           -20.0737543848        1.1456032949       -9.0780941451  MEMB      18              0.0000000000
     40998      1278  PVPG      H5Y           -21.0128855018        2.5412989071       -8.5934484239  MEMB      18              0.0000000000
     40999      1278  PVPG      C36           -19.7197451487        1.8743909793       -7.0314712820  MEMB      18              0.0000000000
     41000      1278  PVPG      H6X           -20.5418769141        1.4419169285       -6.4220557994  MEMB      18              0.0000000000
     41001      1278  PVPG      H6Y           -19.6646325464        2.9211760981       -6.6633351973  MEMB      18              0.0000000000
     41002      1278  PVPG      C37           -18.4125226930        1.0512656182       -6.8171218408  MEMB      18              0.0000000000
     41003      1278  PVPG      H7X           -17.5595395481        1.2941092675       -7.4862756443  MEMB      18              0.0000000000
     41004      1278  PVPG      H7Y           -18.5539499520       -0.0346863956       -7.0042771053  MEMB      18              0.0000000000
     41005      1278  PVPG      C38           -17.9327152568        1.2423588400       -5.3502365787  MEMB      18              0.0000000000
     41006      1278  PVPG      H8X           -17.2700300247        0.4169613379       -5.0127626157  MEMB      18              0.0000000000
     41007      1278  PVPG      H8Y           -18.7728479140        1.1323741442       -4.6316254660  MEMB      18              0.0000000000
     41008      1278  PVPG      C39           -17.2188055535        2.5610757724       -5.1219771749  MEMB      18              0.0000000000
     41009      1278  PVPG      H9X           -18.0903422826        3.2457407446       -5.1993004431  MEMB      18              0.0000000000
     41010      1278  PVPG      H9Y           -16.4443632145        2.7777726558       -5.8885298365  MEMB      18              0.0000000000
     41011      1278  PVPG      C310          -16.5281422535        2.6216316935       -3.7427226545  MEMB      18              0.0000000000
     41012      1278  PVPG      H10X          -15.8434233942        1.7489810042       -3.6797760623  MEMB      18              0.0000000000
     41013      1278  PVPG      H10Y          -17.3333252626        2.5293350397       -2.9827997031  MEMB      18              0.0000000000
     41014      1278  PVPG      C311          -15.8967914906        3.9557915503       -3.4021487289  MEMB      18              0.0000000000
     41015      1278  PVPG      H11X          -15.1738251301        4.2452407750       -4.1945251488  MEMB      18              0.0000000000
     41016      1278  PVPG      H11Y          -15.3805409845        3.9395801313       -2.4185119957  MEMB      18              0.0000000000
     41017      1278  PVPG      C312          -16.9740956109        5.1629063637       -3.4924381526  MEMB      18              0.0000000000
     41018      1278  PVPG      H12X          -17.6751454278        4.9621981051       -2.6542463773  MEMB      18              0.0000000000
     41019      1278  PVPG      H12Y          -17.5370263882        5.1495411045       -4.4501704028  MEMB      18              0.0000000000
     41020      1278  PVPG      C313          -16.3207475102        6.5775660248       -3.2781302974  MEMB      18              0.0000000000
     41021      1278  PVPG      H13X          -15.5378156900        6.6338394033       -4.0643700450  MEMB      18              0.0000000000
     41022      1278  PVPG      H13Y          -15.7672149943        6.5925484195       -2.3149594184  MEMB      18              0.0000000000
     41023      1278  PVPG      C314          -17.0927348744        7.8306400034       -3.2756394517  MEMB      18              0.0000000000
     41024      1278  PVPG      H14X          -17.6450202832        7.9561843792       -2.3198468865  MEMB      18              0.0000000000
     41025      1278  PVPG      H14Y          -17.8189157587        7.7707351981       -4.1143255382  MEMB      18              0.0000000000
     41026      1278  PVPG      C315          -16.1130632890        8.9697573306       -3.5138176195  MEMB      18              0.0000000000
     41027      1278  PVPG      H15X          -16.7564508830        9.8752620444       -3.5346630783  MEMB      18              0.0000000000
     41028      1278  PVPG      H15Y          -15.5753689404        8.8140567631       -4.4734852401  MEMB      18              0.0000000000
     41029      1278  PVPG      C316          -15.0894265794        9.2629381448       -2.4363526359  MEMB      18              0.0000000000
     41030      1278  PVPG      H16X          -14.0700983657        9.3354273996       -2.8722825893  MEMB      18              0.0000000000
     41031      1278  PVPG      H16Y          -15.1362325598       10.2661964370       -1.9613753517  MEMB      18              0.0000000000
     41032      1278  PVPG      H16Z          -15.1422936511        8.4851468075       -1.6447911957  MEMB      18              0.0000000000
     41033      1279  PPPE      N              20.8550518316        4.9458259581      -20.3410662502  MEMB      19              0.0000000000
     41034      1279  PPPE      HN1            20.5366446375        4.0072588644      -20.0259334699  MEMB      19              0.0000000000
     41035      1279  PPPE      HN2            21.8097157540        4.8443434019      -20.7409638448  MEMB      19              0.0000000000
     41036      1279  PPPE      HN3            20.8197752414        5.5354356557      -19.4850779520  MEMB      19              0.0000000000
     41037      1279  PPPE      C12            19.7245110604        5.5146608073      -21.0955112755  MEMB      19              0.0000000000
     41038      1279  PPPE      H12A           19.8464527772        5.2280594540      -22.1619590624  MEMB      19              0.0000000000
     41039      1279  PPPE      H12B           19.9191241531        6.6079833401      -21.1285655269  MEMB      19              0.0000000000
     41040      1279  PPPE      C11            18.3594837149        5.1364950084      -20.4485707638  MEMB      19              0.0000000000
     41041      1279  PPPE      H11A           18.3203593194        4.0799824945      -20.7899965827  MEMB      19              0.0000000000
     41042      1279  PPPE      H11B           17.5928614855        5.8716643922      -20.7743580173  MEMB      19              0.0000000000
     41043      1279  PPPE      P              17.6324725922        5.8668081870      -18.0158722072  MEMB      19              0.0000000000
     41044      1279  PPPE      O13            17.0928661566        7.0994656174      -18.6401275738  MEMB      19              0.0000000000
     41045      1279  PPPE      O14            16.6258269848        4.9167032887      -17.4422708161  MEMB      19              0.0000000000
     41046      1279  PPPE      O11            18.7403295740        6.2595291082      -16.9885098754  MEMB      19              0.0000000000
     41047      1279  PPPE      O12            18.4771844907        5.0130586828      -19.0280714639  MEMB      19              0.0000000000
     41048      1279  PPPE      C1             19.3960868467        5.2804920756      -16.1947572808  MEMB      19              0.0000000000
     41049      1279  PPPE      HA             20.2199098842        4.7852955333      -16.7519080570  MEMB      19              0.0000000000
     41050      1279  PPPE      HB             18.6189738592        4.6573875210      -15.7026626570  MEMB      19              0.0000000000
     41051      1279  PPPE      C2             20.1537096242        6.1085485929      -15.1343404356  MEMB      19              0.0000000000
     41052      1279  PPPE      HS             20.7494930728        5.4278811742      -14.4893172210  MEMB      19              0.0000000000
     41053      1279  PPPE      O21            19.2202511326        6.7373667363      -14.2776657514  MEMB      19              0.0000000000
     41054      1279  PPPE      C21            18.4155745654        6.0055033943      -13.4884976292  MEMB      19              0.0000000000
     41055      1279  PPPE      O22            18.3915195177        4.8368131636      -13.2815473719  MEMB      19              0.0000000000
     41056      1279  PPPE      C22            17.5324620172        6.9019602976      -12.6274644387  MEMB      19              0.0000000000
     41057      1279  PPPE      H2R            16.4949945627        6.5129837482      -12.5457360781  MEMB      19              0.0000000000
     41058      1279  PPPE      H2S            17.4420342795        7.9506938323      -12.9828540804  MEMB      19              0.0000000000
     41059      1279  PPPE      C3             21.1695933738        7.1957497105      -15.7414654601  MEMB      19              0.0000000000
     41060      1279  PPPE      HX             21.4780167823        6.7724774832      -16.7212800460  MEMB      19              0.0000000000
     41061      1279  PPPE      HY             20.5314603486        8.0657124734      -16.0065541874  MEMB      19              0.0000000000
     41062      1279  PPPE      O31            22.1405788059        7.4225230704      -14.7269550765  MEMB      19              0.0000000000
     41063      1279  PPPE      C31            21.8343453614        8.4844506503      -13.8834475562  MEMB      19              0.0000000000
     41064      1279  PPPE      O32            20.8505831154        9.1359196897      -14.0178026933  MEMB      19              0.0000000000
     41065      1279  PPPE      C32            22.7467239567        8.5116105890      -12.6291382759  MEMB      19              0.0000000000
     41066      1279  PPPE      H2X            22.8703436118        9.5742283129      -12.3293337499  MEMB      19              0.0000000000
     41067      1279  PPPE      H2Y            23.7454362171        8.1446621214      -12.9488938747  MEMB      19              0.0000000000
     41068      1279  PPPE      C23            18.2315897436        6.8681318486      -11.3312903510  MEMB      19              0.0000000000
     41069      1279  PPPE      H3R            19.2890265359        7.1710995127      -11.4873641312  MEMB      19              0.0000000000
     41070      1279  PPPE      H3S            18.2029503476        5.8580945387      -10.8694187050  MEMB      19              0.0000000000
     41071      1279  PPPE      C24            17.6503586142        7.8666868342      -10.2778676942  MEMB      19              0.0000000000
     41072      1279  PPPE      H4R            16.5542427954        7.7391233645      -10.1491094991  MEMB      19              0.0000000000
     41073      1279  PPPE      H4S            17.7667475501        8.8698863180      -10.7408638186  MEMB      19              0.0000000000
     41074      1279  PPPE      C25            18.2202184409        7.8872785622       -8.8380486347  MEMB      19              0.0000000000
     41075      1279  PPPE      H5R            18.0052784979        6.8561609028       -8.4846109549  MEMB      19              0.0000000000
     41076      1279  PPPE      H5S            17.7752443574        8.6257569216       -8.1373569923  MEMB      19              0.0000000000
     41077      1279  PPPE      C26            19.7563902688        8.3002467586       -8.7485318366  MEMB      19              0.0000000000
     41078      1279  PPPE      H6R            19.7236353654        9.4093140094       -8.8052588091  MEMB      19              0.0000000000
     41079      1279  PPPE      H6S            20.2576383661        7.9177382263       -9.6632769200  MEMB      19              0.0000000000
     41080      1279  PPPE      C27            20.6188075845        7.7162474513       -7.5648400273  MEMB      19              0.0000000000
     41081      1279  PPPE      H7R            20.8297262278        6.6762621693       -7.8938764070  MEMB      19              0.0000000000
     41082      1279  PPPE      H7S            20.0497743474        7.7168682669       -6.6106273729  MEMB      19              0.0000000000
     41083      1279  PPPE      C28            21.8653375072        8.5492597549       -7.4122390056  MEMB      19              0.0000000000
     41084      1279  PPPE      H8R            21.6460070932        9.6376922487       -7.3731253792  MEMB      19              0.0000000000
     41085      1279  PPPE      H8S            22.4710852744        8.3466021761       -8.3212607591  MEMB      19              0.0000000000
     41086      1279  PPPE      C29            22.6185067270        8.0667658028       -6.2415626400  MEMB      19              0.0000000000
     41087      1279  PPPE      H91            23.3389580229        7.2539913271       -6.4157682144  MEMB      19              0.0000000000
     41088      1279  PPPE      C210           22.5587626906        8.5569310602       -5.0472338637  MEMB      19              0.0000000000
     41089      1279  PPPE      H101           23.3373844447        8.2960922547       -4.3153108611  MEMB      19              0.0000000000
     41090      1279  PPPE      C211           21.7211197896        9.7219803377       -4.5566631442  MEMB      19              0.0000000000
     41091      1279  PPPE      H11R           21.3406750025       10.3012985999       -5.4249793972  MEMB      19              0.0000000000
     41092      1279  PPPE      H11S           22.4243420963       10.3466834601       -3.9654395011  MEMB      19              0.0000000000
     41093      1279  PPPE      C212           20.4545481255        9.3007550611       -3.6871405439  MEMB      19              0.0000000000
     41094      1279  PPPE      H12R           19.6958364783        8.6484781557       -4.1700613190  MEMB      19              0.0000000000
     41095      1279  PPPE      H12S           19.9407877272       10.2846890923       -3.7345227700  MEMB      19              0.0000000000
     41096      1279  PPPE      C213           20.8605678753        8.9850203444       -2.2322427294  MEMB      19              0.0000000000
     41097      1279  PPPE      H13R           21.5193817360        9.8153815262       -1.8993980135  MEMB      19              0.0000000000
     41098      1279  PPPE      H13S           21.4345475632        8.0378196885       -2.3198739750  MEMB      19              0.0000000000
     41099      1279  PPPE      C214           19.6674337995        8.8444009371       -1.2654161417  MEMB      19              0.0000000000
     41100      1279  PPPE      H14R           19.1485283440        7.9111586413       -1.5722009939  MEMB      19              0.0000000000
     41101      1279  PPPE      H14S           18.9991276406        9.7135729970       -1.4449371942  MEMB      19              0.0000000000
     41102      1279  PPPE      C215           20.1970755569        8.9845240050        0.1888254133  MEMB      19              0.0000000000
     41103      1279  PPPE      H15R           20.8573416502        9.8779904219        0.1794740576  MEMB      19              0.0000000000
     41104      1279  PPPE      H15S           20.7864249414        8.0646931731        0.3910617694  MEMB      19              0.0000000000
     41105      1279  PPPE      C216           19.1449328660        9.1135173407        1.2681271209  MEMB      19              0.0000000000
     41106      1279  PPPE      H16R           18.2604843082        8.5853402126        0.8520734345  MEMB      19              0.0000000000
     41107      1279  PPPE      H16S           19.4039414934        8.6902682942        2.2621571887  MEMB      19              0.0000000000
     41108      1279  PPPE      H16T           18.7967137138       10.1648298444        1.3564811907  MEMB      19              0.0000000000
     41109      1279  PPPE      C33            22.2800338060        7.6651154390      -11.4772488484  MEMB      19              0.0000000000
     41110      1279  PPPE      H3X            21.1692685936        7.6872578693      -11.4828484739  MEMB      19              0.0000000000
     41111      1279  PPPE      H3Y            22.6374310225        8.1793985935      -10.5595881995  MEMB      19              0.0000000000
     41112      1279  PPPE      C34            22.7597292844        6.1948114873      -11.6536245914  MEMB      19              0.0000000000
     41113      1279  PPPE      H4X            23.7664326618        6.2338769973      -12.1219654884  MEMB      19              0.0000000000
     41114      1279  PPPE      H4Y            22.0823736849        5.8240885734      -12.4524205058  MEMB      19              0.0000000000
     41115      1279  PPPE      C35            22.7492042022        5.3544742614      -10.3434222959  MEMB      19              0.0000000000
     41116      1279  PPPE      H5X            21.9927131009        5.8112881417       -9.6700997192  MEMB      19              0.0000000000
     41117      1279  PPPE      H5Y            23.6975118118        5.4892242447       -9.7805047891  MEMB      19              0.0000000000
     41118      1279  PPPE      C36            22.5040375384        3.8223412220      -10.4596179605  MEMB      19              0.0000000000
     41119      1279  PPPE      H6X            22.9390597246        3.3233467794       -9.5673841102  MEMB      19              0.0000000000
     41120      1279  PPPE      H6Y            23.1316505161        3.3225832260      -11.2281652237  MEMB      19              0.0000000000
     41121      1279  PPPE      C37            20.9871586925        3.4327683324      -10.6364632034  MEMB      19              0.0000000000
     41122      1279  PPPE      H7X            20.9340383980        2.3781196556      -10.9817390390  MEMB      19              0.0000000000
     41123      1279  PPPE      H7Y            20.5153334688        3.9014927865      -11.5264066536  MEMB      19              0.0000000000
     41124      1279  PPPE      C38            20.1908801433        3.9016794293       -9.3544884632  MEMB      19              0.0000000000
     41125      1279  PPPE      H8X            19.4831725958        4.6561839957       -9.7596969116  MEMB      19              0.0000000000
     41126      1279  PPPE      H8Y            20.8406917483        4.3399915749       -8.5671204800  MEMB      19              0.0000000000
     41127      1279  PPPE      C39            19.3435111702        2.7673379929       -8.6655552156  MEMB      19              0.0000000000
     41128      1279  PPPE      H9X            20.0229019569        1.9099863666       -8.4713971670  MEMB      19              0.0000000000
     41129      1279  PPPE      H9Y            18.5089938027        2.5530011517       -9.3669548749  MEMB      19              0.0000000000
     41130      1279  PPPE      C310           18.7895170442        3.3088588929       -7.3073712451  MEMB      19              0.0000000000
     41131      1279  PPPE      H10X           18.0938269141        2.5567739286       -6.8775986897  MEMB      19              0.0000000000
     41132      1279  PPPE      H10Y           18.2227501430        4.2475352725       -7.4862089767  MEMB      19              0.0000000000
     41133      1279  PPPE      C311           19.7863846075        3.6443943858       -6.2539519260  MEMB      19              0.0000000000
     41134      1279  PPPE      H11X           20.3553263688        4.5545727952       -6.5406600274  MEMB      19              0.0000000000
     41135      1279  PPPE      H11Y           20.4758395057        2.7898877910       -6.0842715720  MEMB      19              0.0000000000
     41136      1279  PPPE      C312           19.2996659665        4.0330234443       -4.8642456977  MEMB      19              0.0000000000
     41137      1279  PPPE      H12X           18.5238209490        3.2605810977       -4.6752527610  MEMB      19              0.0000000000
     41138      1279  PPPE      H12Y           18.8661100464        5.0532714678       -4.7904606395  MEMB      19              0.0000000000
     41139      1279  PPPE      C313           20.4420319698        3.9741320484       -3.8022578509  MEMB      19              0.0000000000
     41140      1279  PPPE      H13X           21.2559339752        4.7069128782       -3.9891181756  MEMB      19              0.0000000000
     41141      1279  PPPE      H13Y           20.9125659530        2.9735899690       -3.6934721995  MEMB      19              0.0000000000
     41142      1279  PPPE      C314           19.8229262684        4.1114456919       -2.4283354650  MEMB      19              0.0000000000
     41143      1279  PPPE      H14X           19.2742077432        3.1626201092       -2.2467893449  MEMB      19              0.0000000000
     41144      1279  PPPE      H14Y           19.1893607604        5.0182094386       -2.3249176002  MEMB      19              0.0000000000
     41145      1279  PPPE      C315           20.8158107373        4.1144148012       -1.2827668796  MEMB      19              0.0000000000
     41146      1279  PPPE      H15X           21.6566596278        4.7493639772       -1.6350929886  MEMB      19              0.0000000000
     41147      1279  PPPE      H15Y           21.3312501802        3.1706571631       -1.0035452804  MEMB      19              0.0000000000
     41148      1279  PPPE      C316           20.1334181536        4.6235062985       -0.0205446313  MEMB      19              0.0000000000
     41149      1279  PPPE      H16X           20.8142286081        4.8869070765        0.8169744164  MEMB      19              0.0000000000
     41150      1279  PPPE      H16Y           19.6469255641        5.6101697702       -0.1759188694  MEMB      19              0.0000000000
     41151      1279  PPPE      H16Z           19.4338287266        3.8806396826        0.4188240346  MEMB      19              0.0000000000
     41152      1280  PPPE      N             -20.5298474706       -1.0595704240      -16.6812534000  MEMB      20              0.0000000000
     41153      1280  PPPE      HN1           -20.9193577373       -1.0526826259      -15.7169742338  MEMB      20              0.0000000000
     41154      1280  PPPE      HN2           -19.5691622535       -1.4534842986      -16.7405473550  MEMB      20              0.0000000000
     41155      1280  PPPE      HN3           -20.5570995953       -0.0621391458      -16.9744907901  MEMB      20              0.0000000000
     41156      1280  PPPE      C12           -21.5334348005       -1.6772150927      -17.6208460435  MEMB      20              0.0000000000
     41157      1280  PPPE      H12A          -22.3453528382       -0.9222500547      -17.5491669580  MEMB      20              0.0000000000
     41158      1280  PPPE      H12B          -21.7181205784       -2.6843728791      -17.1897481928  MEMB      20              0.0000000000
     41159      1280  PPPE      C11           -21.2460556994       -1.7124475616      -19.1295933414  MEMB      20              0.0000000000
     41160      1280  PPPE      H11A          -21.6841452110       -0.7390274214      -19.4375735528  MEMB      20              0.0000000000
     41161      1280  PPPE      H11B          -21.7596512527       -2.5808534141      -19.5947942473  MEMB      20              0.0000000000
     41162      1280  PPPE      P             -18.9671449011       -2.8885010526      -19.8008520310  MEMB      20              0.0000000000
     41163      1280  PPPE      O13           -19.6519659422       -3.7637232178      -20.7532856069  MEMB      20              0.0000000000
     41164      1280  PPPE      O14           -17.6194084965       -2.4518337700      -20.2368365248  MEMB      20              0.0000000000
     41165      1280  PPPE      O11           -18.9512675460       -3.5941284936      -18.3822302432  MEMB      20              0.0000000000
     41166      1280  PPPE      O12           -19.8078199457       -1.6829683370      -19.3951025448  MEMB      20              0.0000000000
     41167      1280  PPPE      C1            -17.7208985197       -3.8408458508      -17.6906519676  MEMB      20              0.0000000000
     41168      1280  PPPE      HA            -17.3993267378       -2.9410236701      -17.1238780865  MEMB      20              0.0000000000
     41169      1280  PPPE      HB            -16.9176897357       -4.1845635348      -18.3769717203  MEMB      20              0.0000000000
     41170      1280  PPPE      C2            -17.9771516091       -4.8463808941      -16.5796419502  MEMB      20              0.0000000000
     41171      1280  PPPE      HS            -17.9780676566       -5.9239808110      -16.8500094407  MEMB      20              0.0000000000
     41172      1280  PPPE      O21           -19.1460061233       -4.5902124805      -15.7854129762  MEMB      20              0.0000000000
     41173      1280  PPPE      C21           -19.5860852163       -5.5290404278      -14.9218023605  MEMB      20              0.0000000000
     41174      1280  PPPE      O22           -19.2783012040       -6.7148304790      -14.9595852649  MEMB      20              0.0000000000
     41175      1280  PPPE      C22           -20.4143561016       -4.9104094665      -13.8002231025  MEMB      20              0.0000000000
     41176      1280  PPPE      H2R           -21.4757098391       -5.0053629547      -14.1146003901  MEMB      20              0.0000000000
     41177      1280  PPPE      H2S           -20.1507369728       -3.8318909301      -13.7599276747  MEMB      20              0.0000000000
     41178      1280  PPPE      C3            -16.7910433791       -4.7909938955      -15.6088033703  MEMB      20              0.0000000000
     41179      1280  PPPE      HX            -16.8470250713       -5.7667615220      -15.0805377276  MEMB      20              0.0000000000
     41180      1280  PPPE      HY            -15.8213493085       -4.8093087526      -16.1507249287  MEMB      20              0.0000000000
     41181      1280  PPPE      O31           -16.8014708102       -3.5618287431      -14.7839722882  MEMB      20              0.0000000000
     41182      1280  PPPE      C31           -16.0508212897       -3.5302411944      -13.6601761843  MEMB      20              0.0000000000
     41183      1280  PPPE      O32           -15.4833310943       -4.4937104951      -13.1171696728  MEMB      20              0.0000000000
     41184      1280  PPPE      C32           -16.2696542024       -2.2293026661      -13.0093972674  MEMB      20              0.0000000000
     41185      1280  PPPE      H2X           -17.3727848384       -2.1176636831      -12.9389661845  MEMB      20              0.0000000000
     41186      1280  PPPE      H2Y           -15.9460524663       -1.4794084066      -13.7625649220  MEMB      20              0.0000000000
     41187      1280  PPPE      C23           -20.3636764081       -5.5803390280      -12.3596682926  MEMB      20              0.0000000000
     41188      1280  PPPE      H3R           -19.3147171379       -5.5769241679      -11.9936166732  MEMB      20              0.0000000000
     41189      1280  PPPE      H3S           -20.7563787582       -6.6034489017      -12.5422937301  MEMB      20              0.0000000000
     41190      1280  PPPE      C24           -21.0994590579       -4.8200252885      -11.2473777368  MEMB      20              0.0000000000
     41191      1280  PPPE      H4R           -22.1154707162       -4.6117780499      -11.6457172876  MEMB      20              0.0000000000
     41192      1280  PPPE      H4S           -20.7077285269       -3.8030328003      -11.0315202146  MEMB      20              0.0000000000
     41193      1280  PPPE      C25           -21.1064108543       -5.5654164391       -9.9380159806  MEMB      20              0.0000000000
     41194      1280  PPPE      H5R           -20.0839088184       -5.4491393133       -9.5193392357  MEMB      20              0.0000000000
     41195      1280  PPPE      H5S           -21.2842661701       -6.6556638435      -10.0565448126  MEMB      20              0.0000000000
     41196      1280  PPPE      C26           -22.0614812268       -5.0092439612       -8.8521255690  MEMB      20              0.0000000000
     41197      1280  PPPE      H6R           -21.9508357378       -5.6341575691       -7.9402255973  MEMB      20              0.0000000000
     41198      1280  PPPE      H6S           -23.1296170552       -5.0897356062       -9.1469610263  MEMB      20              0.0000000000
     41199      1280  PPPE      C27           -21.8391916671       -3.4968833065       -8.4563337963  MEMB      20              0.0000000000
     41200      1280  PPPE      H7R           -22.1619771012       -2.9703157170       -9.3798364424  MEMB      20              0.0000000000
     41201      1280  PPPE      H7S           -20.8281406990       -3.1993630458       -8.1047962673  MEMB      20              0.0000000000
     41202      1280  PPPE      C28           -22.6372034698       -2.9503462087       -7.1959320003  MEMB      20              0.0000000000
     41203      1280  PPPE      H8R           -22.4457536001       -3.7250390757       -6.4229385274  MEMB      20              0.0000000000
     41204      1280  PPPE      H8S           -23.7214851101       -3.1240609126       -7.3646848557  MEMB      20              0.0000000000
     41205      1280  PPPE      C29           -22.4222206347       -1.4679999379       -6.8743825862  MEMB      20              0.0000000000
     41206      1280  PPPE      H91           -22.7865029613       -0.7735242911       -7.6457462895  MEMB      20              0.0000000000
     41207      1280  PPPE      C210          -21.8626806464       -0.9471277355       -5.7954199392  MEMB      20              0.0000000000
     41208      1280  PPPE      H101          -21.9980447813        0.1323837709       -5.6331502302  MEMB      20              0.0000000000
     41209      1280  PPPE      C211          -21.2925059501       -1.7593050654       -4.6724094699  MEMB      20              0.0000000000
     41210      1280  PPPE      H11R          -20.1852616240       -1.8138387735       -4.7456015259  MEMB      20              0.0000000000
     41211      1280  PPPE      H11S          -21.6149207575       -2.8220468836       -4.7032237497  MEMB      20              0.0000000000
     41212      1280  PPPE      C212          -21.5250821752       -1.4411527763       -3.1885031595  MEMB      20              0.0000000000
     41213      1280  PPPE      H12R          -22.6271616931       -1.4671851552       -3.0504305281  MEMB      20              0.0000000000
     41214      1280  PPPE      H12S          -21.1042910924       -0.4178662680       -3.0878026795  MEMB      20              0.0000000000
     41215      1280  PPPE      C213          -21.1464450826       -2.5126710002       -2.1187246616  MEMB      20              0.0000000000
     41216      1280  PPPE      H13R          -21.2318309357       -2.0204946612       -1.1263574375  MEMB      20              0.0000000000
     41217      1280  PPPE      H13S          -20.1272751712       -2.9205124133       -2.2898359510  MEMB      20              0.0000000000
     41218      1280  PPPE      C214          -22.2171059472       -3.6988276173       -1.9499870893  MEMB      20              0.0000000000
     41219      1280  PPPE      H14R          -22.4583694941       -4.0235081626       -2.9847312337  MEMB      20              0.0000000000
     41220      1280  PPPE      H14S          -22.9954359286       -3.1451329967       -1.3825844923  MEMB      20              0.0000000000
     41221      1280  PPPE      C215          -21.5646226104       -4.7417425407       -1.0249451040  MEMB      20              0.0000000000
     41222      1280  PPPE      H15R          -20.6499080147       -5.1828752442       -1.4755226737  MEMB      20              0.0000000000
     41223      1280  PPPE      H15S          -22.2008340653       -5.6190291376       -0.7801508814  MEMB      20              0.0000000000
     41224      1280  PPPE      C216          -21.1667631302       -4.2870052348        0.3618770535  MEMB      20              0.0000000000
     41225      1280  PPPE      H16R          -20.1765305626       -3.7882297260        0.4324706365  MEMB      20              0.0000000000
     41226      1280  PPPE      H16S          -21.8664483961       -3.5905174139        0.8714516249  MEMB      20              0.0000000000
     41227      1280  PPPE      H16T          -20.8654913614       -5.1339254493        1.0147801640  MEMB      20              0.0000000000
     41228      1280  PPPE      C33           -15.4362087895       -2.0701275302      -11.7228254338  MEMB      20              0.0000000000
     41229      1280  PPPE      H3X           -14.3757882557       -2.2168808869      -12.0199663830  MEMB      20              0.0000000000
     41230      1280  PPPE      H3Y           -15.7574470934       -2.8286904614      -10.9773663594  MEMB      20              0.0000000000
     41231      1280  PPPE      C34           -15.5946130453       -0.6680113285      -11.1104259066  MEMB      20              0.0000000000
     41232      1280  PPPE      H4X           -16.6892865328       -0.6601110995      -10.9208248990  MEMB      20              0.0000000000
     41233      1280  PPPE      H4Y           -15.2289213771        0.0757883717      -11.8502587320  MEMB      20              0.0000000000
     41234      1280  PPPE      C35           -14.7640125623       -0.5719601352       -9.8235496217  MEMB      20              0.0000000000
     41235      1280  PPPE      H5X           -14.5709376032        0.4801024583       -9.5232042212  MEMB      20              0.0000000000
     41236      1280  PPPE      H5Y           -13.7879200004       -1.0740555138       -9.9952020074  MEMB      20              0.0000000000
     41237      1280  PPPE      C36           -15.3174370095       -1.3380578502       -8.5977875729  MEMB      20              0.0000000000
     41238      1280  PPPE      H6X           -14.4787488700       -1.4150146968       -7.8732181501  MEMB      20              0.0000000000
     41239      1280  PPPE      H6Y           -15.5776788999       -2.3619481873       -8.9416534420  MEMB      20              0.0000000000
     41240      1280  PPPE      C37           -16.4040206158       -0.5807426707       -7.8703832595  MEMB      20              0.0000000000
     41241      1280  PPPE      H7X           -17.4194523591       -0.9487457745       -8.1307543221  MEMB      20              0.0000000000
     41242      1280  PPPE      H7Y           -16.3287735824        0.4468367436       -8.2860025942  MEMB      20              0.0000000000
     41243      1280  PPPE      C38           -16.2599549666       -0.5267408936       -6.3944948599  MEMB      20              0.0000000000
     41244      1280  PPPE      H8X           -15.2192135174       -0.1430856296       -6.3313531606  MEMB      20              0.0000000000
     41245      1280  PPPE      H8Y           -16.2376559746       -1.5775054274       -6.0343314950  MEMB      20              0.0000000000
     41246      1280  PPPE      C39           -17.2130430354        0.4116056633       -5.5813559038  MEMB      20              0.0000000000
     41247      1280  PPPE      H9X           -18.1827080908       -0.1048056802       -5.7468551622  MEMB      20              0.0000000000
     41248      1280  PPPE      H9Y           -17.2357440503        1.4309890591       -6.0225623817  MEMB      20              0.0000000000
     41249      1280  PPPE      C310          -16.8219578431        0.4611423687       -4.1190465031  MEMB      20              0.0000000000
     41250      1280  PPPE      H10X          -17.3859285476        1.2708336742       -3.6084997038  MEMB      20              0.0000000000
     41251      1280  PPPE      H10Y          -15.7420542634        0.6433074729       -3.9321103289  MEMB      20              0.0000000000
     41252      1280  PPPE      C311          -17.1486206999       -0.7437150274       -3.3025706623  MEMB      20              0.0000000000
     41253      1280  PPPE      H11X          -16.6380844005       -1.6464007420       -3.7011082237  MEMB      20              0.0000000000
     41254      1280  PPPE      H11Y          -18.2480178014       -0.7979140681       -3.1518740232  MEMB      20              0.0000000000
     41255      1280  PPPE      C312          -16.5609886496       -0.7451867343       -1.8448563255  MEMB      20              0.0000000000
     41256      1280  PPPE      H12X          -16.5753749325        0.2676389960       -1.3884594862  MEMB      20              0.0000000000
     41257      1280  PPPE      H12Y          -15.4799837474       -0.9963107694       -1.8966841206  MEMB      20              0.0000000000
     41258      1280  PPPE      C313          -17.3028980173       -1.5812431565       -0.8108293829  MEMB      20              0.0000000000
     41259      1280  PPPE      H13X          -17.4097910920       -2.5964390662       -1.2493178495  MEMB      20              0.0000000000
     41260      1280  PPPE      H13Y          -18.2955859685       -1.1329014485       -0.5920113200  MEMB      20              0.0000000000
     41261      1280  PPPE      C314          -16.4234055990       -1.6856646127        0.4693198990  MEMB      20              0.0000000000
     41262      1280  PPPE      H14X          -17.1432115833       -1.9052418696        1.2866241099  MEMB      20              0.0000000000
     41263      1280  PPPE      H14Y          -15.8924018643       -0.7464268828        0.7342510607  MEMB      20              0.0000000000
     41264      1280  PPPE      C315          -15.3093112270       -2.7933638831        0.4391535784  MEMB      20              0.0000000000
     41265      1280  PPPE      H15X          -14.7540898928       -2.8814952454        1.3974244864  MEMB      20              0.0000000000
     41266      1280  PPPE      H15Y          -14.5355211970       -2.6500517264       -0.3450859355  MEMB      20              0.0000000000
     41267      1280  PPPE      C316          -15.9144746140       -4.1248092736        0.1781603036  MEMB      20              0.0000000000
     41268      1280  PPPE      H16X          -16.6348191996       -4.3363659163        0.9971038089  MEMB      20              0.0000000000
     41269      1280  PPPE      H16Y          -16.3164081469       -4.2801774276       -0.8458666354  MEMB      20              0.0000000000
     41270      1280  PPPE      H16Z          -15.1692949702       -4.9063537249        0.4393433217  MEMB      20              0.0000000000
     41271      1281  PVCL2     C3             13.8948373465      -13.4884231811      -20.4971901092  MEMB      21              0.0000000000
     41272      1281  PVCL2     HG31           13.6693107708      -13.0073628280      -21.4729154618  MEMB      21              0.0000000000
     41273      1281  PVCL2     HG32           12.9606802016      -14.0439662160      -20.2668782707  MEMB      21              0.0000000000
     41274      1281  PVCL2     P3             13.6120075693      -12.4367570962      -18.1487506103  MEMB      21              0.0000000000
     41275      1281  PVCL2     OP33           14.6744971121      -12.8201742269      -17.1670266446  MEMB      21              0.0000000000
     41276      1281  PVCL2     OP34           12.3579582618      -13.1941991572      -18.2052771400  MEMB      21              0.0000000000
     41277      1281  PVCL2     OP31           14.1742814732      -12.3505049258      -19.6054088321  MEMB      21              0.0000000000
     41278      1281  PVCL2     OP32           13.2455140345      -10.9002040537      -17.9896953929  MEMB      21              0.0000000000
     41279      1281  PVCL2     C31            12.6065580634      -10.1280705727      -18.9861471620  MEMB      21              0.0000000000
     41280      1281  PVCL2     H31J           13.3327894070       -9.6770170011      -19.6956960540  MEMB      21              0.0000000000
     41281      1281  PVCL2     H31K           11.8594885798      -10.6653780548      -19.6086492505  MEMB      21              0.0000000000
     41282      1281  PVCL2     C2             15.0797473021      -14.4098061805      -20.7078068187  MEMB      21              0.0000000000
     41283      1281  PVCL2     HG22           15.5365664428      -14.5927983903      -19.7117390472  MEMB      21              0.0000000000
     41284      1281  PVCL2     OG12           14.6709301307      -15.6227716585      -21.2486919758  MEMB      21              0.0000000000
     41285      1281  PVCL2     HO12           13.7230921496      -15.7288554649      -21.1393797313  MEMB      21              0.0000000000
     41286      1281  PVCL2     C1             16.2363564263      -13.9149107250      -21.5874638774  MEMB      21              0.0000000000
     41287      1281  PVCL2     HG11           15.8091695144      -13.9811071171      -22.6109140367  MEMB      21              0.0000000000
     41288      1281  PVCL2     HG12           17.0575860445      -14.6556704456      -21.6931902423  MEMB      21              0.0000000000
     41289      1281  PVCL2     P1             17.9752967031      -12.2592836081      -20.3991777144  MEMB      21              0.0000000000
     41290      1281  PVCL2     OP13           18.9843733153      -11.4287169439      -21.1343334836  MEMB      21              0.0000000000
     41291      1281  PVCL2     OP14           17.4195661574      -11.6402632045      -19.1581487341  MEMB      21              0.0000000000
     41292      1281  PVCL2     OP11           16.6823596858      -12.6131329775      -21.3831551832  MEMB      21              0.0000000000
     41293      1281  PVCL2     OP12           18.6988681336      -13.5711024692      -20.0171481970  MEMB      21              0.0000000000
     41294      1281  PVCL2     C11            19.6543399763      -13.6079152091      -18.9858616685  MEMB      21              0.0000000000
     41295      1281  PVCL2     H11J           19.5374775362      -12.7606280763      -18.2767997931  MEMB      21              0.0000000000
     41296      1281  PVCL2     H11K           20.6670359515      -13.5183925960      -19.4339169860  MEMB      21              0.0000000000
     41297      1281  PVCL2     C12            19.5617741769      -14.9694042156      -18.2296021438  MEMB      21              0.0000000000
     41298      1281  PVCL2     H12J           19.4220291266      -15.7848265719      -18.9711404797  MEMB      21              0.0000000000
     41299      1281  PVCL2     O12            18.3516345216      -14.8590843506      -17.5777288929  MEMB      21              0.0000000000
     41300      1281  PVCL2     CA1            17.6454333540      -15.8975579514      -17.2391331151  MEMB      21              0.0000000000
     41301      1281  PVCL2     OA1            17.9640891484      -17.0963901422      -17.4436443739  MEMB      21              0.0000000000
     41302      1281  PVCL2     CA2            16.3243271025      -15.4977062389      -16.5983983985  MEMB      21              0.0000000000
     41303      1281  PVCL2     H2A            15.6335374026      -16.3635163284      -16.6850216112  MEMB      21              0.0000000000
     41304      1281  PVCL2     H2B            15.8970816098      -14.6084340128      -17.1092577419  MEMB      21              0.0000000000
     41305      1281  PVCL2     C13            20.6607564814      -15.1749282723      -17.2340879187  MEMB      21              0.0000000000
     41306      1281  PVCL2     H13J           21.5233026666      -15.6659734726      -17.7332964003  MEMB      21              0.0000000000
     41307      1281  PVCL2     H13K           20.3210846523      -15.9839428441      -16.5525900735  MEMB      21              0.0000000000
     41308      1281  PVCL2     O13            21.0643475750      -14.0479176817      -16.4132541644  MEMB      21              0.0000000000
     41309      1281  PVCL2     CB1            20.7608996286      -14.2195086576      -15.1099012585  MEMB      21              0.0000000000
     41310      1281  PVCL2     OB1            20.3679878903      -15.1587353731      -14.5550733912  MEMB      21              0.0000000000
     41311      1281  PVCL2     CB2            20.9149829575      -12.9159121553      -14.3809196506  MEMB      21              0.0000000000
     41312      1281  PVCL2     H2D            21.9924596148      -12.6464472972      -14.4083708053  MEMB      21              0.0000000000
     41313      1281  PVCL2     H2E            20.5804513258      -13.1114101571      -13.3396751675  MEMB      21              0.0000000000
     41314      1281  PVCL2     C32            11.8519369675       -8.9539888244      -18.1941730169  MEMB      21              0.0000000000
     41315      1281  PVCL2     H32J           11.4348841933       -8.2438504645      -18.9398883295  MEMB      21              0.0000000000
     41316      1281  PVCL2     O32            12.7352248362       -8.3902231337      -17.2349097605  MEMB      21              0.0000000000
     41317      1281  PVCL2     CC1            13.5905516881       -7.4835717145      -17.7591006305  MEMB      21              0.0000000000
     41318      1281  PVCL2     OC1            13.4835724845       -7.0817233430      -18.9177673928  MEMB      21              0.0000000000
     41319      1281  PVCL2     CC2            14.5720711139       -7.0337596552      -16.6258827602  MEMB      21              0.0000000000
     41320      1281  PVCL2     H2R            14.0995111686       -6.1408179913      -16.1636457151  MEMB      21              0.0000000000
     41321      1281  PVCL2     H2S            15.5149627692       -6.7447381690      -17.1374910018  MEMB      21              0.0000000000
     41322      1281  PVCL2     C33            10.6116528162       -9.4901302435      -17.4541994038  MEMB      21              0.0000000000
     41323      1281  PVCL2     H33J           10.1562680976       -8.5700640066      -17.0294358213  MEMB      21              0.0000000000
     41324      1281  PVCL2     H33K            9.7442680988       -9.9305012773      -17.9908907829  MEMB      21              0.0000000000
     41325      1281  PVCL2     O33            10.9998723332      -10.4611474604      -16.3925175423  MEMB      21              0.0000000000
     41326      1281  PVCL2     CD1            10.9611105046      -10.0349605225      -15.0881679120  MEMB      21              0.0000000000
     41327      1281  PVCL2     OD1            10.7479760536       -8.9064719395      -14.6757344945  MEMB      21              0.0000000000
     41328      1281  PVCL2     CD2            11.1366685807      -11.2805832725      -14.2591806260  MEMB      21              0.0000000000
     41329      1281  PVCL2     H2X            12.2422508329      -11.3483534331      -14.1730643587  MEMB      21              0.0000000000
     41330      1281  PVCL2     H2Y            10.7421120322      -12.1723011510      -14.7916145306  MEMB      21              0.0000000000
     41331      1281  PVCL2     CA3            16.5788873095      -15.2911004685      -15.0985439248  MEMB      21              0.0000000000
     41332      1281  PVCL2     H3A            17.3967669258      -14.5686947996      -14.8899198384  MEMB      21              0.0000000000
     41333      1281  PVCL2     H3B            16.7497255597      -16.2468448845      -14.5584621741  MEMB      21              0.0000000000
     41334      1281  PVCL2     CA4            15.4025743984      -14.7001076915      -14.3495414749  MEMB      21              0.0000000000
     41335      1281  PVCL2     H4A            14.5548846366      -15.4166434326      -14.3977053549  MEMB      21              0.0000000000
     41336      1281  PVCL2     H4B            14.8035908543      -13.9141145500      -14.8572362954  MEMB      21              0.0000000000
     41337      1281  PVCL2     CA5            15.5881883642      -14.3029959931      -12.8721414701  MEMB      21              0.0000000000
     41338      1281  PVCL2     H5A            15.7389045551      -15.2201329536      -12.2634827907  MEMB      21              0.0000000000
     41339      1281  PVCL2     H5B            14.7162157734      -13.7630922319      -12.4449541507  MEMB      21              0.0000000000
     41340      1281  PVCL2     CA6            16.7249654266      -13.3633459875      -12.6295773246  MEMB      21              0.0000000000
     41341      1281  PVCL2     H6A            16.6933990587      -12.3925763017      -13.1689573507  MEMB      21              0.0000000000
     41342      1281  PVCL2     H6B            17.6820162006      -13.7305651347      -13.0579754643  MEMB      21              0.0000000000
     41343      1281  PVCL2     CA7            16.8128383086      -12.8690108876      -11.1239793976  MEMB      21              0.0000000000
     41344      1281  PVCL2     H7A            15.8442793741      -12.3629945499      -10.9235747399  MEMB      21              0.0000000000
     41345      1281  PVCL2     H7B            17.4745772580      -12.0389887211      -10.7961292540  MEMB      21              0.0000000000
     41346      1281  PVCL2     CA8            17.2094887703      -13.9353050946      -10.0148227305  MEMB      21              0.0000000000
     41347      1281  PVCL2     H8A            16.6232622079      -14.8533089505      -10.2337490748  MEMB      21              0.0000000000
     41348      1281  PVCL2     H8B            16.9498356017      -13.5890169102       -8.9915992687  MEMB      21              0.0000000000
     41349      1281  PVCL2     CA9            18.6994525804      -14.2400978171      -10.1950030703  MEMB      21              0.0000000000
     41350      1281  PVCL2     H9A            19.2577380800      -13.4257224565      -10.7043467087  MEMB      21              0.0000000000
     41351      1281  PVCL2     H9B            18.8014529660      -15.1442271203      -10.8325510760  MEMB      21              0.0000000000
     41352      1281  PVCL2     CA10           19.4306709137      -14.6882914783       -8.8928640247  MEMB      21              0.0000000000
     41353      1281  PVCL2     H10A           19.6250240966      -13.8075782778       -8.2441021941  MEMB      21              0.0000000000
     41354      1281  PVCL2     H10B           20.4259822503      -15.1383752288       -9.0955979450  MEMB      21              0.0000000000
     41355      1281  PVCL2     CA11           18.7472769191      -15.7410042483       -8.0838614919  MEMB      21              0.0000000000
     41356      1281  PVCL2     H11A           18.7438186611      -16.7635191747       -8.4893866880  MEMB      21              0.0000000000
     41357      1281  PVCL2     CA12           18.2629510453      -15.5331506042       -6.8385239193  MEMB      21              0.0000000000
     41358      1281  PVCL2     H12A           17.7377412647      -16.4000467915       -6.4111532771  MEMB      21              0.0000000000
     41359      1281  PVCL2     CA13           18.3763393586      -14.1892113451       -6.1741605665  MEMB      21              0.0000000000
     41360      1281  PVCL2     H13A           17.9824158123      -13.5648199196       -7.0043890109  MEMB      21              0.0000000000
     41361      1281  PVCL2     H13B           19.3929277028      -13.7431089819       -6.1310090949  MEMB      21              0.0000000000
     41362      1281  PVCL2     CA14           17.4895335405      -13.7161291678       -5.0392745440  MEMB      21              0.0000000000
     41363      1281  PVCL2     H14A           16.4499082213      -14.1076622211       -5.0250609662  MEMB      21              0.0000000000
     41364      1281  PVCL2     H14B           17.3334453876      -12.6211146214       -4.9348697924  MEMB      21              0.0000000000
     41365      1281  PVCL2     CA15           18.1260658406      -14.0710810847       -3.6483727867  MEMB      21              0.0000000000
     41366      1281  PVCL2     H15A           19.1557881036      -13.6562804259       -3.6044005264  MEMB      21              0.0000000000
     41367      1281  PVCL2     H15B           18.2565212804      -15.1711027056       -3.5631947242  MEMB      21              0.0000000000
     41368      1281  PVCL2     CA16           17.3480455945      -13.5140467769       -2.4804121333  MEMB      21              0.0000000000
     41369      1281  PVCL2     H16A           17.8265314753      -13.9002278523       -1.5550810218  MEMB      21              0.0000000000
     41370      1281  PVCL2     H16B           16.3311347442      -13.9601392250       -2.5152668144  MEMB      21              0.0000000000
     41371      1281  PVCL2     CA17           17.4511449174      -11.9587323794       -2.4721565270  MEMB      21              0.0000000000
     41372      1281  PVCL2     H17A           16.6562278236      -11.6398801009       -3.1798009182  MEMB      21              0.0000000000
     41373      1281  PVCL2     H17B           18.4739955361      -11.5989076781       -2.7142798802  MEMB      21              0.0000000000
     41374      1281  PVCL2     CA18           17.1027667755      -11.4942899180       -1.0339060081  MEMB      21              0.0000000000
     41375      1281  PVCL2     H18A           17.8817933435      -11.8017370698       -0.3038960420  MEMB      21              0.0000000000
     41376      1281  PVCL2     H18B           16.0950942181      -11.8304544168       -0.7084666197  MEMB      21              0.0000000000
     41377      1281  PVCL2     H18C           17.1238986885      -10.3837132608       -1.0116790826  MEMB      21              0.0000000000
     41378      1281  PVCL2     CB3            20.1279076397      -11.8194190022      -15.1067143218  MEMB      21              0.0000000000
     41379      1281  PVCL2     H3D            19.2275160658      -12.2086879881      -15.6283326072  MEMB      21              0.0000000000
     41380      1281  PVCL2     H3E            20.8498300196      -11.4821693730      -15.8809311283  MEMB      21              0.0000000000
     41381      1281  PVCL2     CB4            19.6818651751      -10.6465917376      -14.1571283112  MEMB      21              0.0000000000
     41382      1281  PVCL2     H4D            18.8248655289      -11.1030911085      -13.6172385503  MEMB      21              0.0000000000
     41383      1281  PVCL2     H4E            19.3541562795       -9.7573320438      -14.7369084510  MEMB      21              0.0000000000
     41384      1281  PVCL2     CB5            20.7131339873      -10.0906973446      -13.1366134577  MEMB      21              0.0000000000
     41385      1281  PVCL2     H5D            21.5493996489       -9.7534269847      -13.7856353023  MEMB      21              0.0000000000
     41386      1281  PVCL2     H5E            21.0761068510      -10.8943611085      -12.4608204577  MEMB      21              0.0000000000
     41387      1281  PVCL2     CB6            20.0699924399       -9.0032152106      -12.2122189946  MEMB      21              0.0000000000
     41388      1281  PVCL2     H6D            19.2225534458       -9.5080331713      -11.7010177162  MEMB      21              0.0000000000
     41389      1281  PVCL2     H6E            19.6604685439       -8.1796723478      -12.8354270884  MEMB      21              0.0000000000
     41390      1281  PVCL2     CB7            21.0763044980       -8.4546973757      -11.1378739002  MEMB      21              0.0000000000
     41391      1281  PVCL2     H7D            20.5778219486       -7.5349079857      -10.7639439488  MEMB      21              0.0000000000
     41392      1281  PVCL2     H7E            21.9183745540       -8.1430478530      -11.7921778095  MEMB      21              0.0000000000
     41393      1281  PVCL2     CB8            21.4638091571       -9.4133454686       -9.9861997641  MEMB      21              0.0000000000
     41394      1281  PVCL2     H8D            22.2161176155       -8.8923893502       -9.3561536814  MEMB      21              0.0000000000
     41395      1281  PVCL2     H8E            21.9619424679      -10.2789500737      -10.4729363970  MEMB      21              0.0000000000
     41396      1281  PVCL2     CB9            20.2533235331       -9.9087796390       -9.2568346155  MEMB      21              0.0000000000
     41397      1281  PVCL2     H9D            19.6627712507      -10.5932010751       -9.9026959448  MEMB      21              0.0000000000
     41398      1281  PVCL2     H9E            19.6588824441       -9.0182875095       -8.9602125432  MEMB      21              0.0000000000
     41399      1281  PVCL2     CB10           20.5442441286      -10.7711612966       -8.0368089144  MEMB      21              0.0000000000
     41400      1281  PVCL2     H10D           21.0798368491      -11.6997557105       -8.3286543346  MEMB      21              0.0000000000
     41401      1281  PVCL2     H10E           19.5327092225      -11.0759230174       -7.6929507778  MEMB      21              0.0000000000
     41402      1281  PVCL2     CB11           21.4145807739      -10.2499831680       -6.8684306142  MEMB      21              0.0000000000
     41403      1281  PVCL2     H11D           20.8417129625       -9.4500987184       -6.3523610465  MEMB      21              0.0000000000
     41404      1281  PVCL2     H11E           22.3858214759       -9.8745475274       -7.2558073361  MEMB      21              0.0000000000
     41405      1281  PVCL2     CB12           21.7972429357      -11.3220015588       -5.8782265504  MEMB      21              0.0000000000
     41406      1281  PVCL2     H12D           21.7128822588      -12.3632296309       -6.2564434101  MEMB      21              0.0000000000
     41407      1281  PVCL2     H12E           21.1714369522      -11.1416367138       -4.9781389728  MEMB      21              0.0000000000
     41408      1281  PVCL2     CB13           23.2792089404      -11.0926654166       -5.3866660375  MEMB      21              0.0000000000
     41409      1281  PVCL2     H13D           23.4354771997      -10.0050823743       -5.2221534795  MEMB      21              0.0000000000
     41410      1281  PVCL2     H13E           24.0110986920      -11.3584829066       -6.1791306134  MEMB      21              0.0000000000
     41411      1281  PVCL2     CB14           23.7103921928      -11.8514081166       -4.2032676356  MEMB      21              0.0000000000
     41412      1281  PVCL2     H14D           24.7618854794      -11.6646666899       -3.8969821208  MEMB      21              0.0000000000
     41413      1281  PVCL2     H14E           23.5987669958      -12.9510855957       -4.3153848448  MEMB      21              0.0000000000
     41414      1281  PVCL2     CB15           22.9114840904      -11.4692067359       -2.9034333113  MEMB      21              0.0000000000
     41415      1281  PVCL2     H15D           21.8461426944      -11.7842904721       -2.9130028033  MEMB      21              0.0000000000
     41416      1281  PVCL2     H15E           22.8852813985      -10.3585293115       -2.8979842573  MEMB      21              0.0000000000
     41417      1281  PVCL2     CB16           23.5371509281      -12.1520674441       -1.6743423962  MEMB      21              0.0000000000
     41418      1281  PVCL2     H16D           23.0198952285      -11.7803819812       -0.7640569231  MEMB      21              0.0000000000
     41419      1281  PVCL2     H16E           24.6359573297      -12.0323256122       -1.5620612564  MEMB      21              0.0000000000
     41420      1281  PVCL2     H16F           23.4391247727      -13.2530312163       -1.7865511281  MEMB      21              0.0000000000
     41421      1281  PVCL2     CC3            14.6685768896       -7.9580736951      -15.4082280196  MEMB      21              0.0000000000
     41422      1281  PVCL2     H3R            13.6718882371       -8.1586565841      -14.9602332712  MEMB      21              0.0000000000
     41423      1281  PVCL2     H3S            15.3129938133       -7.5195341101      -14.6165647669  MEMB      21              0.0000000000
     41424      1281  PVCL2     CC4            15.4683796371       -9.2060070017      -15.6998612825  MEMB      21              0.0000000000
     41425      1281  PVCL2     H4R            16.5361660630       -8.9944275890      -15.4776287002  MEMB      21              0.0000000000
     41426      1281  PVCL2     H4S            15.3678101791       -9.5590331689      -16.7484696669  MEMB      21              0.0000000000
     41427      1281  PVCL2     CC5            15.1272217526      -10.4282136566      -14.7389061351  MEMB      21              0.0000000000
     41428      1281  PVCL2     H5R            15.8722325434      -11.2517502977      -14.7062386344  MEMB      21              0.0000000000
     41429      1281  PVCL2     H5S            14.1999918511      -10.8721432854      -15.1602042809  MEMB      21              0.0000000000
     41430      1281  PVCL2     CC6            14.8714899516      -10.1877823898      -13.2376785852  MEMB      21              0.0000000000
     41431      1281  PVCL2     H6R            14.5289930562      -11.1752492260      -12.8609479162  MEMB      21              0.0000000000
     41432      1281  PVCL2     H6S            14.0201282214       -9.4827985345      -13.1258663636  MEMB      21              0.0000000000
     41433      1281  PVCL2     CC7            15.9824060701       -9.5315409487      -12.4343834324  MEMB      21              0.0000000000
     41434      1281  PVCL2     H7R            16.3975706116       -8.5820732656      -12.8349710726  MEMB      21              0.0000000000
     41435      1281  PVCL2     H7S            16.8155224474      -10.2390856953      -12.2353397386  MEMB      21              0.0000000000
     41436      1281  PVCL2     CC8            15.5254917519       -9.0848299171      -11.0096994652  MEMB      21              0.0000000000
     41437      1281  PVCL2     H8R            14.9505503142       -9.9218355757      -10.5589394357  MEMB      21              0.0000000000
     41438      1281  PVCL2     H8S            14.8083685552       -8.2437337789      -11.1220066567  MEMB      21              0.0000000000
     41439      1281  PVCL2     CC9            16.6718313313       -8.7099086996      -10.1215808384  MEMB      21              0.0000000000
     41440      1281  PVCL2     H9R            17.4472500881       -8.1329282669      -10.6694315084  MEMB      21              0.0000000000
     41441      1281  PVCL2     H9S            17.2871506756       -9.6151946428       -9.9314217619  MEMB      21              0.0000000000
     41442      1281  PVCL2     CC10           16.2841399481       -8.0344315292       -8.8884683446  MEMB      21              0.0000000000
     41443      1281  PVCL2     H10R           15.4352494629       -7.3521483187       -9.1080032360  MEMB      21              0.0000000000
     41444      1281  PVCL2     H10S           17.1023043951       -7.3580818560       -8.5606292540  MEMB      21              0.0000000000
     41445      1281  PVCL2     CC11           15.7417329947       -8.8689341445       -7.8149069974  MEMB      21              0.0000000000
     41446      1281  PVCL2     H11R           14.6680210774       -9.0708539955       -7.9428573043  MEMB      21              0.0000000000
     41447      1281  PVCL2     CC12           16.4245264802       -9.3257443280       -6.7933677251  MEMB      21              0.0000000000
     41448      1281  PVCL2     H12R           15.8873889972       -9.9017437043       -6.0254428025  MEMB      21              0.0000000000
     41449      1281  PVCL2     CC13           17.8412915511       -9.1736223083       -6.3487588162  MEMB      21              0.0000000000
     41450      1281  PVCL2     H13R           18.4502692720       -8.4159342676       -6.8866959514  MEMB      21              0.0000000000
     41451      1281  PVCL2     H13S           18.4111023583      -10.0979691736       -6.5837470329  MEMB      21              0.0000000000
     41452      1281  PVCL2     CC14           18.0334859487       -8.9384813934       -4.8518885120  MEMB      21              0.0000000000
     41453      1281  PVCL2     H14R           19.0867349052       -9.1142854735       -4.5451622477  MEMB      21              0.0000000000
     41454      1281  PVCL2     H14S           17.5278181548       -9.7780152367       -4.3286254660  MEMB      21              0.0000000000
     41455      1281  PVCL2     CC15           17.4796952865       -7.6289447694       -4.2453008276  MEMB      21              0.0000000000
     41456      1281  PVCL2     H15R           16.4442215941       -7.4180339710       -4.5882758450  MEMB      21              0.0000000000
     41457      1281  PVCL2     H15S           18.1288977338       -6.8190992915       -4.6415422686  MEMB      21              0.0000000000
     41458      1281  PVCL2     CC16           17.4359732157       -7.3588206223       -2.6930892477  MEMB      21              0.0000000000
     41459      1281  PVCL2     H16R           16.7755897854       -8.1153949262       -2.2178950437  MEMB      21              0.0000000000
     41460      1281  PVCL2     H16S           16.9208358282       -6.3792030079       -2.5966331571  MEMB      21              0.0000000000
     41461      1281  PVCL2     CC17           18.8650012993       -7.2710019581       -2.1154293458  MEMB      21              0.0000000000
     41462      1281  PVCL2     H17R           18.7834865385       -6.4693860330       -1.3505191972  MEMB      21              0.0000000000
     41463      1281  PVCL2     H17S           19.6756585873       -7.1901822861       -2.8708259605  MEMB      21              0.0000000000
     41464      1281  PVCL2     CC18           19.2381216836       -8.4848110477       -1.3013675278  MEMB      21              0.0000000000
     41465      1281  PVCL2     H18R           20.1183049785       -8.3320202743       -0.6408728597  MEMB      21              0.0000000000
     41466      1281  PVCL2     H18S           19.4651306675       -9.4321422382       -1.8355515093  MEMB      21              0.0000000000
     41467      1281  PVCL2     H18T           18.4620623986       -8.8587725432       -0.5997941292  MEMB      21              0.0000000000
     41468      1281  PVCL2     CD3            10.4333763512      -11.0156943836      -12.8980036637  MEMB      21              0.0000000000
     41469      1281  PVCL2     H3X             9.4828347311      -10.4728110754      -13.0879220014  MEMB      21              0.0000000000
     41470      1281  PVCL2     H3Y            11.0133226996      -10.3915364483      -12.1849749248  MEMB      21              0.0000000000
     41471      1281  PVCL2     CD4            10.1755183231      -12.4078862457      -12.2003215882  MEMB      21              0.0000000000
     41472      1281  PVCL2     H4X             9.6353268486      -13.0643213202      -12.9155888768  MEMB      21              0.0000000000
     41473      1281  PVCL2     H4Y             9.4432041977      -12.3703143021      -11.3656806597  MEMB      21              0.0000000000
     41474      1281  PVCL2     CD5            11.4236048734      -13.1722086152      -11.7363107455  MEMB      21              0.0000000000
     41475      1281  PVCL2     H5X            11.9934917102      -13.4539627484      -12.6474446994  MEMB      21              0.0000000000
     41476      1281  PVCL2     H5Y            11.1007566949      -14.0937813537      -11.2064115095  MEMB      21              0.0000000000
     41477      1281  PVCL2     CD6            12.2687213589      -12.3851920870      -10.7898256385  MEMB      21              0.0000000000
     41478      1281  PVCL2     H6X            12.4213334924      -11.3454327504      -11.1502855090  MEMB      21              0.0000000000
     41479      1281  PVCL2     H6Y            13.2102569532      -12.9663689065      -10.6894999509  MEMB      21              0.0000000000
     41480      1281  PVCL2     CD7            11.6593240363      -12.3367095912       -9.3113138231  MEMB      21              0.0000000000
     41481      1281  PVCL2     H7X            11.5831553014      -13.3569696389       -8.8781988612  MEMB      21              0.0000000000
     41482      1281  PVCL2     H7Y            10.6534348204      -11.8762832831       -9.4138604748  MEMB      21              0.0000000000
     41483      1281  PVCL2     CD8            12.5048996790      -11.4356483977       -8.4247498809  MEMB      21              0.0000000000
     41484      1281  PVCL2     H8X            12.5198473654      -10.4396799824       -8.9168317651  MEMB      21              0.0000000000
     41485      1281  PVCL2     H8Y            13.5101389904      -11.9076727480       -8.3930003845  MEMB      21              0.0000000000
     41486      1281  PVCL2     CD9            11.9158602458      -11.2225253956       -7.0516823556  MEMB      21              0.0000000000
     41487      1281  PVCL2     H9X            11.6384576693      -12.2403880227       -6.7033655039  MEMB      21              0.0000000000
     41488      1281  PVCL2     H9Y            10.9421121733      -10.6876745543       -7.0432793931  MEMB      21              0.0000000000
     41489      1281  PVCL2     CD10           12.9680733511      -10.6046722919       -6.0637656067  MEMB      21              0.0000000000
     41490      1281  PVCL2     H10X           13.1886114233       -9.5161609397       -6.0925261072  MEMB      21              0.0000000000
     41491      1281  PVCL2     H10Y           13.9678769655      -11.0874683513       -6.1040366782  MEMB      21              0.0000000000
     41492      1281  PVCL2     CD11           12.5543482583      -11.0215937280       -4.6327736048  MEMB      21              0.0000000000
     41493      1281  PVCL2     H11X           13.2074291284      -10.4085529017       -3.9755159912  MEMB      21              0.0000000000
     41494      1281  PVCL2     H11Y           12.7312455927      -12.1168621169       -4.5743337699  MEMB      21              0.0000000000
     41495      1281  PVCL2     CD12           11.0507331769      -10.7287720277       -4.2060927999  MEMB      21              0.0000000000
     41496      1281  PVCL2     H12X           10.2362617873      -10.9084669913       -4.9400321463  MEMB      21              0.0000000000
     41497      1281  PVCL2     H12Y           10.9947929555       -9.6262961005       -4.0806406300  MEMB      21              0.0000000000
     41498      1281  PVCL2     CD13           10.5888469987      -11.3378174460       -2.9238898913  MEMB      21              0.0000000000
     41499      1281  PVCL2     H13X           10.1976048747      -12.3351328406       -3.2181886208  MEMB      21              0.0000000000
     41500      1281  PVCL2     H13Y            9.7707806781      -10.7849204803       -2.4145819128  MEMB      21              0.0000000000
     41501      1281  PVCL2     CD14           11.6653944604      -11.6688147928       -1.7955743295  MEMB      21              0.0000000000
     41502      1281  PVCL2     H14X           12.5097045926      -12.2686281841       -2.1976748518  MEMB      21              0.0000000000
     41503      1281  PVCL2     H14Y           11.1862774239      -12.4032758452       -1.1134200017  MEMB      21              0.0000000000
     41504      1281  PVCL2     CD15           12.2477901484      -10.4892732844       -0.9778837983  MEMB      21              0.0000000000
     41505      1281  PVCL2     H15X           12.7604303576       -9.7264031709       -1.6020242018  MEMB      21              0.0000000000
     41506      1281  PVCL2     H15Y           13.0973369415      -10.9496672272       -0.4295874754  MEMB      21              0.0000000000
     41507      1281  PVCL2     CD16           11.2499569893       -9.7977760517       -0.1267674279  MEMB      21              0.0000000000
     41508      1281  PVCL2     H16X           10.8805574954      -10.5637086165        0.5882244929  MEMB      21              0.0000000000
     41509      1281  PVCL2     H16Y           10.3638682436       -9.3372703613       -0.6136974736  MEMB      21              0.0000000000
     41510      1281  PVCL2     H16Z           11.6734103238       -8.9607390219        0.4685292013  MEMB      21              0.0000000000
     41511      1282  PPPE      N             -11.0675540567       17.0221206680      -19.0249168451  MEMB      22              0.0000000000
     41512      1282  PPPE      HN1           -11.7711223476       16.4888177095      -18.4752081818  MEMB      22              0.0000000000
     41513      1282  PPPE      HN2           -10.8913755696       17.9172304682      -18.5255776954  MEMB      22              0.0000000000
     41514      1282  PPPE      HN3           -11.5565815402       17.2199970901      -19.9211852435  MEMB      22              0.0000000000
     41515      1282  PPPE      C12            -9.7559776720       16.2825437773      -19.3206108803  MEMB      22              0.0000000000
     41516      1282  PPPE      H12A          -10.0056933888       15.4757994987      -20.0425019591  MEMB      22              0.0000000000
     41517      1282  PPPE      H12B           -9.3793138423       16.0102134957      -18.3115114912  MEMB      22              0.0000000000
     41518      1282  PPPE      C11            -8.7333897943       17.2850654474      -19.9946389408  MEMB      22              0.0000000000
     41519      1282  PPPE      H11A           -9.2683734501       17.9213010077      -20.7317398837  MEMB      22              0.0000000000
     41520      1282  PPPE      H11B           -8.0128152526       16.7321105637      -20.6344312716  MEMB      22              0.0000000000
     41521      1282  PPPE      P              -8.4480561500       19.5795685151      -18.7148382272  MEMB      22              0.0000000000
     41522      1282  PPPE      O13            -9.5038283084       19.9661990706      -19.6512475784  MEMB      22              0.0000000000
     41523      1282  PPPE      O14            -8.8278187828       19.7049908230      -17.2412157647  MEMB      22              0.0000000000
     41524      1282  PPPE      O11            -7.2264180350       20.4315411829      -19.0474470660  MEMB      22              0.0000000000
     41525      1282  PPPE      O12            -8.0128599190       18.0496329173      -19.0050843528  MEMB      22              0.0000000000
     41526      1282  PPPE      C1             -5.8901123621       19.8596601813      -19.1919445617  MEMB      22              0.0000000000
     41527      1282  PPPE      HA             -5.3393255129       20.6867783282      -19.6887648691  MEMB      22              0.0000000000
     41528      1282  PPPE      HB             -5.9753875925       18.9731468406      -19.8561307042  MEMB      22              0.0000000000
     41529      1282  PPPE      C2             -5.0813859651       19.5213196809      -17.8493449100  MEMB      22              0.0000000000
     41530      1282  PPPE      HS             -4.1062256723       19.0492700119      -18.0954191122  MEMB      22              0.0000000000
     41531      1282  PPPE      O21            -5.8225103329       18.6775318353      -16.9463765940  MEMB      22              0.0000000000
     41532      1282  PPPE      C21            -5.8355304703       17.3261284172      -17.1978719940  MEMB      22              0.0000000000
     41533      1282  PPPE      O22            -5.2996429056       16.7394503475      -18.1108368784  MEMB      22              0.0000000000
     41534      1282  PPPE      C22            -6.7855744576       16.6155442949      -16.2412837112  MEMB      22              0.0000000000
     41535      1282  PPPE      H2R            -6.7177723828       15.5072564692      -16.2789927822  MEMB      22              0.0000000000
     41536      1282  PPPE      H2S            -7.8099613871       16.9619212725      -16.4961864537  MEMB      22              0.0000000000
     41537      1282  PPPE      C3             -4.6839323597       20.7372151085      -17.0217697422  MEMB      22              0.0000000000
     41538      1282  PPPE      HX             -4.2327299117       20.3171956700      -16.0974748637  MEMB      22              0.0000000000
     41539      1282  PPPE      HY             -3.8505811857       21.2853491523      -17.5110507358  MEMB      22              0.0000000000
     41540      1282  PPPE      O31            -5.7570492082       21.6303829311      -16.7552375130  MEMB      22              0.0000000000
     41541      1282  PPPE      C31            -6.3558703947       21.5023580465      -15.5168476776  MEMB      22              0.0000000000
     41542      1282  PPPE      O32            -5.8979992750       20.9656007566      -14.5662353668  MEMB      22              0.0000000000
     41543      1282  PPPE      C32            -7.5621999925       22.5458847238      -15.4316006814  MEMB      22              0.0000000000
     41544      1282  PPPE      H2X            -8.1892090472       22.5420201305      -16.3487515470  MEMB      22              0.0000000000
     41545      1282  PPPE      H2Y            -7.1621225305       23.5715452002      -15.2823371168  MEMB      22              0.0000000000
     41546      1282  PPPE      C23            -6.5903453885       17.1487712769      -14.8352582702  MEMB      22              0.0000000000
     41547      1282  PPPE      H3R            -6.5385787764       18.2547411153      -14.7432151587  MEMB      22              0.0000000000
     41548      1282  PPPE      H3S            -5.5938114209       16.8280518342      -14.4632635251  MEMB      22              0.0000000000
     41549      1282  PPPE      C24            -7.6918329677       16.6529032989      -13.8716080341  MEMB      22              0.0000000000
     41550      1282  PPPE      H4R            -7.3682012537       15.6621255429      -13.4869745048  MEMB      22              0.0000000000
     41551      1282  PPPE      H4S            -8.6166074434       16.5774534957      -14.4826894497  MEMB      22              0.0000000000
     41552      1282  PPPE      C25            -8.1640773776       17.4788735079      -12.6536445127  MEMB      22              0.0000000000
     41553      1282  PPPE      H5R            -9.2345165797       17.3291889513      -12.3965930620  MEMB      22              0.0000000000
     41554      1282  PPPE      H5S            -8.1035788612       18.5430266672      -12.9670754990  MEMB      22              0.0000000000
     41555      1282  PPPE      C26            -7.3528360148       17.1007952460      -11.3539377162  MEMB      22              0.0000000000
     41556      1282  PPPE      H6R            -6.2850283756       17.3257799693      -11.5624796062  MEMB      22              0.0000000000
     41557      1282  PPPE      H6S            -7.5818129862       16.0210071408      -11.2276515566  MEMB      22              0.0000000000
     41558      1282  PPPE      C27            -7.7316782193       17.7888128050      -10.1385354654  MEMB      22              0.0000000000
     41559      1282  PPPE      H7R            -8.7753604254       17.6200699503       -9.7971056750  MEMB      22              0.0000000000
     41560      1282  PPPE      H7S            -7.7582581621       18.8609178163      -10.4287170487  MEMB      22              0.0000000000
     41561      1282  PPPE      C28            -6.7250856831       17.7735584715       -8.9652915877  MEMB      22              0.0000000000
     41562      1282  PPPE      H8R            -7.0226672413       18.4488644489       -8.1347929104  MEMB      22              0.0000000000
     41563      1282  PPPE      H8S            -5.7308432908       18.1586823230       -9.2775137592  MEMB      22              0.0000000000
     41564      1282  PPPE      C29            -6.5785531350       16.4118788277       -8.3833084193  MEMB      22              0.0000000000
     41565      1282  PPPE      H91            -5.6788242026       15.9186129363       -8.7797634717  MEMB      22              0.0000000000
     41566      1282  PPPE      C210           -7.4584460645       15.7826306899       -7.5252485866  MEMB      22              0.0000000000
     41567      1282  PPPE      H101           -7.1299837058       14.8065161969       -7.1388382150  MEMB      22              0.0000000000
     41568      1282  PPPE      C211           -8.7124839991       16.4243909547       -6.9430753848  MEMB      22              0.0000000000
     41569      1282  PPPE      H11R           -9.6718221985       16.0376722278       -7.3485872163  MEMB      22              0.0000000000
     41570      1282  PPPE      H11S           -8.8546265340       17.4701554268       -7.2901966439  MEMB      22              0.0000000000
     41571      1282  PPPE      C212           -8.8431620008       16.2353809472       -5.3790212666  MEMB      22              0.0000000000
     41572      1282  PPPE      H12R           -9.1340720419       15.1896807105       -5.1419487818  MEMB      22              0.0000000000
     41573      1282  PPPE      H12S           -9.7568861067       16.7908776638       -5.0776035228  MEMB      22              0.0000000000
     41574      1282  PPPE      C213           -7.5604359945       16.7854524175       -4.7270503429  MEMB      22              0.0000000000
     41575      1282  PPPE      H13R           -7.4938537543       17.8872781076       -4.8530184105  MEMB      22              0.0000000000
     41576      1282  PPPE      H13S           -6.5868610074       16.4696090540       -5.1591564803  MEMB      22              0.0000000000
     41577      1282  PPPE      C214           -7.5319398725       16.3521670479       -3.2696332991  MEMB      22              0.0000000000
     41578      1282  PPPE      H14R           -7.0587947391       15.3520180290       -3.1688532280  MEMB      22              0.0000000000
     41579      1282  PPPE      H14S           -8.5900511183       16.2468086574       -2.9477308279  MEMB      22              0.0000000000
     41580      1282  PPPE      C215           -6.9283982100       17.4140181741       -2.2275170412  MEMB      22              0.0000000000
     41581      1282  PPPE      H15R           -7.6633255089       18.2392730005       -2.1128116055  MEMB      22              0.0000000000
     41582      1282  PPPE      H15S           -5.9554665943       17.8030801923       -2.5967809268  MEMB      22              0.0000000000
     41583      1282  PPPE      C216           -6.5743805158       16.7972918276       -0.9058048661  MEMB      22              0.0000000000
     41584      1282  PPPE      H16R           -5.9561134856       15.8833950649       -1.0356493371  MEMB      22              0.0000000000
     41585      1282  PPPE      H16S           -5.9907525122       17.5602308974       -0.3475725406  MEMB      22              0.0000000000
     41586      1282  PPPE      H16T           -7.4776531380       16.5163661323       -0.3231383028  MEMB      22              0.0000000000
     41587      1282  PPPE      C33            -8.5332453472       22.2368658726      -14.2687925282  MEMB      22              0.0000000000
     41588      1282  PPPE      H3X            -8.6774594403       21.1695899960      -13.9959455041  MEMB      22              0.0000000000
     41589      1282  PPPE      H3Y            -9.4865146966       22.7349674049      -14.5471689121  MEMB      22              0.0000000000
     41590      1282  PPPE      C34            -8.0575784353       22.9501381202      -12.9996581210  MEMB      22              0.0000000000
     41591      1282  PPPE      H4X            -8.6488113779       23.8901242028      -12.9651505568  MEMB      22              0.0000000000
     41592      1282  PPPE      H4Y            -6.9574951320       23.1054884593      -13.0016576315  MEMB      22              0.0000000000
     41593      1282  PPPE      C35            -8.5117711767       22.1087757940      -11.7952961674  MEMB      22              0.0000000000
     41594      1282  PPPE      H5X            -7.9968658750       21.1259882605      -11.7376576890  MEMB      22              0.0000000000
     41595      1282  PPPE      H5Y            -9.5982989243       21.9695557102      -11.9807583520  MEMB      22              0.0000000000
     41596      1282  PPPE      C36            -8.4668550922       22.9445511269      -10.5262334629  MEMB      22              0.0000000000
     41597      1282  PPPE      H6X            -9.3054953554       23.6711806778      -10.5811243044  MEMB      22              0.0000000000
     41598      1282  PPPE      H6Y            -7.5867063772       23.5861439801      -10.3071037065  MEMB      22              0.0000000000
     41599      1282  PPPE      C37            -8.6045811569       22.1051530571       -9.2817958169  MEMB      22              0.0000000000
     41600      1282  PPPE      H7X            -7.6552574349       21.5321884224       -9.2123912199  MEMB      22              0.0000000000
     41601      1282  PPPE      H7Y            -9.4559965798       21.3916340769       -9.2992154142  MEMB      22              0.0000000000
     41602      1282  PPPE      C38            -8.7984906032       23.1271262487       -8.1274927389  MEMB      22              0.0000000000
     41603      1282  PPPE      H8X            -9.5649483980       23.8249699493       -8.5273397327  MEMB      22              0.0000000000
     41604      1282  PPPE      H8Y            -7.8301554056       23.6331335944       -7.9259871282  MEMB      22              0.0000000000
     41605      1282  PPPE      C39            -9.2003569411       22.4822198889       -6.7981395072  MEMB      22              0.0000000000
     41606      1282  PPPE      H9X           -10.0031731996       21.7183274390       -6.8773568049  MEMB      22              0.0000000000
     41607      1282  PPPE      H9Y            -9.6144905523       23.2995973107       -6.1698811986  MEMB      22              0.0000000000
     41608      1282  PPPE      C310           -8.0778920589       21.8216619040       -5.9395348152  MEMB      22              0.0000000000
     41609      1282  PPPE      H10X           -7.2076631825       22.5008166206       -6.0651197409  MEMB      22              0.0000000000
     41610      1282  PPPE      H10Y           -7.8951143506       20.8678500177       -6.4791237283  MEMB      22              0.0000000000
     41611      1282  PPPE      C311           -8.6273043286       21.4359529956       -4.5661061291  MEMB      22              0.0000000000
     41612      1282  PPPE      H11X           -7.8759039298       20.6742373471       -4.2669277349  MEMB      22              0.0000000000
     41613      1282  PPPE      H11Y           -9.6588590535       21.0272678606       -4.6226066598  MEMB      22              0.0000000000
     41614      1282  PPPE      C312           -8.5182906159       22.4941953534       -3.4333874981  MEMB      22              0.0000000000
     41615      1282  PPPE      H12X           -9.4317512601       23.1207819077       -3.5188271928  MEMB      22              0.0000000000
     41616      1282  PPPE      H12Y           -7.6345030002       23.1436554205       -3.6107066217  MEMB      22              0.0000000000
     41617      1282  PPPE      C313           -8.5425217535       21.7887253172       -2.0218267164  MEMB      22              0.0000000000
     41618      1282  PPPE      H13X           -7.5398823649       21.9205673868       -1.5617691928  MEMB      22              0.0000000000
     41619      1282  PPPE      H13Y           -8.8155827410       20.7337354158       -2.2380557736  MEMB      22              0.0000000000
     41620      1282  PPPE      C314           -9.6839172557       22.3712668189       -1.0894631816  MEMB      22              0.0000000000
     41621      1282  PPPE      H14X          -10.5329231764       22.4008402514       -1.8054487672  MEMB      22              0.0000000000
     41622      1282  PPPE      H14Y           -9.5691505316       23.4360861628       -0.7939816019  MEMB      22              0.0000000000
     41623      1282  PPPE      C315          -10.0955716284       21.3928383654        0.0038884061  MEMB      22              0.0000000000
     41624      1282  PPPE      H15X          -10.3655350202       20.3911162375       -0.3935956132  MEMB      22              0.0000000000
     41625      1282  PPPE      H15Y          -10.9994305370       21.6907407410        0.5771372593  MEMB      22              0.0000000000
     41626      1282  PPPE      C316           -9.1493084160       21.2530575620        1.1428275282  MEMB      22              0.0000000000
     41627      1282  PPPE      H16X           -8.9823236588       22.3281396745        1.3678509545  MEMB      22              0.0000000000
     41628      1282  PPPE      H16Y           -9.5466107795       20.5772903741        1.9301079990  MEMB      22              0.0000000000
     41629      1282  PPPE      H16Z           -8.2084158028       20.7819702880        0.7862901941  MEMB      22              0.0000000000
     41630      1283  PVPG      C13            -0.6905671057       19.9540653651      -21.0128267103  MEMB      23              0.0000000000
     41631      1283  PVPG      H13A            0.4075350672       20.0254877359      -21.1657692587  MEMB      23              0.0000000000
     41632      1283  PVPG      H13B           -0.8901259720       18.9593017974      -21.4655330047  MEMB      23              0.0000000000
     41633      1283  PVPG      OC3            -1.2862373627       21.1085273301      -21.6812456342  MEMB      23              0.0000000000
     41634      1283  PVPG      HO3            -1.1271879936       21.8643300843      -21.1111003387  MEMB      23              0.0000000000
     41635      1283  PVPG      C12            -1.1182820113       19.8667610582      -19.4756497074  MEMB      23              0.0000000000
     41636      1283  PVPG      H12A           -0.6331611360       18.9587107718      -19.0480032955  MEMB      23              0.0000000000
     41637      1283  PVPG      OC2            -2.5330160433       19.7030875743      -19.3671163053  MEMB      23              0.0000000000
     41638      1283  PVPG      HO2            -2.6931239557       19.7983839606      -18.4027507651  MEMB      23              0.0000000000
     41639      1283  PVPG      C11            -0.6946618833       21.0650069980      -18.5353307377  MEMB      23              0.0000000000
     41640      1283  PVPG      H11A            0.4054679533       21.1994694481      -18.6125007736  MEMB      23              0.0000000000
     41641      1283  PVPG      H11B           -0.9819585710       20.7992342330      -17.4955487830  MEMB      23              0.0000000000
     41642      1283  PVPG      P              -0.8131885628       23.6258395811      -17.9810360662  MEMB      23              0.0000000000
     41643      1283  PVPG      O13            -1.2770355283       24.8474645848      -18.6598196976  MEMB      23              0.0000000000
     41644      1283  PVPG      O14             0.6169370505       23.3850826489      -17.8797849595  MEMB      23              0.0000000000
     41645      1283  PVPG      O12            -1.3476037753       22.3797635009      -18.8361994813  MEMB      23              0.0000000000
     41646      1283  PVPG      O11            -1.6305671739       23.4274423592      -16.5709906992  MEMB      23              0.0000000000
     41647      1283  PVPG      C1             -3.0376046970       23.5988417191      -16.6493397130  MEMB      23              0.0000000000
     41648      1283  PVPG      HA             -3.5098478469       23.2434001839      -17.5900673924  MEMB      23              0.0000000000
     41649      1283  PVPG      HB             -3.2902600445       24.6693132830      -16.4925696822  MEMB      23              0.0000000000
     41650      1283  PVPG      C2             -3.6155299164       22.9382241636      -15.3201531867  MEMB      23              0.0000000000
     41651      1283  PVPG      HS             -4.7261049476       22.9084964624      -15.3279152614  MEMB      23              0.0000000000
     41652      1283  PVPG      O21            -3.0237341965       23.6828104306      -14.2300704413  MEMB      23              0.0000000000
     41653      1283  PVPG      C21            -3.5640832289       24.8876295101      -13.8915970869  MEMB      23              0.0000000000
     41654      1283  PVPG      O22            -4.4103866193       25.5473046483      -14.5337655838  MEMB      23              0.0000000000
     41655      1283  PVPG      C22            -3.0079470624       25.4571740592      -12.6022326522  MEMB      23              0.0000000000
     41656      1283  PVPG      H2R            -3.6540418992       25.2136095943      -11.7318545216  MEMB      23              0.0000000000
     41657      1283  PVPG      H2S            -2.8888472455       26.5536711400      -12.7357629764  MEMB      23              0.0000000000
     41658      1283  PVPG      C3             -3.1865243640       21.4198846444      -15.1225340129  MEMB      23              0.0000000000
     41659      1283  PVPG      HX             -3.5980814592       20.8825510607      -16.0035641553  MEMB      23              0.0000000000
     41660      1283  PVPG      HY             -2.1054814421       21.1661975633      -15.0863418562  MEMB      23              0.0000000000
     41661      1283  PVPG      O31            -3.8507253039       20.9836979233      -13.9540893200  MEMB      23              0.0000000000
     41662      1283  PVPG      C31            -3.0857655522       20.8151368274      -12.8586865298  MEMB      23              0.0000000000
     41663      1283  PVPG      O32            -1.9257877078       21.2172060128      -12.7502198374  MEMB      23              0.0000000000
     41664      1283  PVPG      C32            -3.8556602170       19.9602357949      -11.8632819745  MEMB      23              0.0000000000
     41665      1283  PVPG      H2X            -4.4341770542       19.2422699980      -12.4830913392  MEMB      23              0.0000000000
     41666      1283  PVPG      H2Y            -4.4478085107       20.6007520410      -11.1752266586  MEMB      23              0.0000000000
     41667      1283  PVPG      C23            -1.6137288207       24.8497141848      -12.2792809617  MEMB      23              0.0000000000
     41668      1283  PVPG      H3R            -0.8684304897       25.1830674578      -13.0327575517  MEMB      23              0.0000000000
     41669      1283  PVPG      H3S            -1.6147892817       23.7433367105      -12.3805181866  MEMB      23              0.0000000000
     41670      1283  PVPG      C24            -1.1492911847       25.1265992960      -10.7981038159  MEMB      23              0.0000000000
     41671      1283  PVPG      H4R            -1.9185502061       24.6436023385      -10.1583570706  MEMB      23              0.0000000000
     41672      1283  PVPG      H4S            -1.0941299974       26.2110519363      -10.5630706425  MEMB      23              0.0000000000
     41673      1283  PVPG      C25             0.2182708081       24.4856799726      -10.3686461404  MEMB      23              0.0000000000
     41674      1283  PVPG      H5R             1.0526885755       25.0050064921      -10.8866887117  MEMB      23              0.0000000000
     41675      1283  PVPG      H5S             0.1014816963       23.4466057575      -10.7441541261  MEMB      23              0.0000000000
     41676      1283  PVPG      C26             0.4701534117       24.4544641618       -8.8755924855  MEMB      23              0.0000000000
     41677      1283  PVPG      H6R            -0.4993528335       24.1519140045       -8.4252124723  MEMB      23              0.0000000000
     41678      1283  PVPG      H6S             0.6183307677       25.5086977602       -8.5578564714  MEMB      23              0.0000000000
     41679      1283  PVPG      C27             1.6114478293       23.5854768295       -8.3073807617  MEMB      23              0.0000000000
     41680      1283  PVPG      H7R             1.5897776735       23.6255988103       -7.1973164125  MEMB      23              0.0000000000
     41681      1283  PVPG      H7S             2.5145774480       24.1732338937       -8.5779712563  MEMB      23              0.0000000000
     41682      1283  PVPG      C28             1.7595042194       22.1811133891       -8.9203271421  MEMB      23              0.0000000000
     41683      1283  PVPG      H8R             2.3942985870       22.1196817200       -9.8300435032  MEMB      23              0.0000000000
     41684      1283  PVPG      H8S             0.7348572262       21.8501534051       -9.1939779067  MEMB      23              0.0000000000
     41685      1283  PVPG      C29             2.4497038180       21.1642154717       -8.0175619360  MEMB      23              0.0000000000
     41686      1283  PVPG      H9R             2.4170952400       20.1417020904       -8.4508332808  MEMB      23              0.0000000000
     41687      1283  PVPG      H9S             1.9645199693       21.1152732031       -7.0193025972  MEMB      23              0.0000000000
     41688      1283  PVPG      C210            3.9584512217       21.6589018225       -7.8790709215  MEMB      23              0.0000000000
     41689      1283  PVPG      H10R            3.8130394895       22.6016184896       -7.3094558403  MEMB      23              0.0000000000
     41690      1283  PVPG      H10S            4.4092462686       21.7042092964       -8.8934936056  MEMB      23              0.0000000000
     41691      1283  PVPG      C211            4.7311647067       20.6182612412       -7.0791673296  MEMB      23              0.0000000000
     41692      1283  PVPG      H111            5.3497986556       19.9837804551       -7.7308775950  MEMB      23              0.0000000000
     41693      1283  PVPG      C212            4.9415840248       20.6583010065       -5.7123796090  MEMB      23              0.0000000000
     41694      1283  PVPG      H121            5.3557851600       19.8084062326       -5.1501376084  MEMB      23              0.0000000000
     41695      1283  PVPG      C213            4.3922651616       21.7329439998       -4.8762800809  MEMB      23              0.0000000000
     41696      1283  PVPG      H13R            4.0499791037       22.6537954800       -5.3951191088  MEMB      23              0.0000000000
     41697      1283  PVPG      H13S            5.1321596220       22.0289828208       -4.1021757468  MEMB      23              0.0000000000
     41698      1283  PVPG      C214            3.1252877116       21.2005304892       -4.1215730701  MEMB      23              0.0000000000
     41699      1283  PVPG      H14R            2.4419886530       20.6684549091       -4.8175033572  MEMB      23              0.0000000000
     41700      1283  PVPG      H14S            2.4812419283       22.0659530375       -3.8559229130  MEMB      23              0.0000000000
     41701      1283  PVPG      C215            3.2396791268       20.1784076594       -2.9360573314  MEMB      23              0.0000000000
     41702      1283  PVPG      H15R            3.9628051184       20.4976221455       -2.1553452333  MEMB      23              0.0000000000
     41703      1283  PVPG      H15S            3.6433680642       19.2166647346       -3.3186892359  MEMB      23              0.0000000000
     41704      1283  PVPG      C216            1.9185491621       20.0716508243       -2.2409273887  MEMB      23              0.0000000000
     41705      1283  PVPG      H16R            1.1773659808       19.6045498406       -2.9241444451  MEMB      23              0.0000000000
     41706      1283  PVPG      H16S            1.5637125401       21.0800320843       -1.9383072939  MEMB      23              0.0000000000
     41707      1283  PVPG      C217            1.9997379051       19.1675049286       -0.9366115405  MEMB      23              0.0000000000
     41708      1283  PVPG      H17R            2.5794989390       19.6775229098       -0.1378118112  MEMB      23              0.0000000000
     41709      1283  PVPG      H17S            2.4369626512       18.1626052004       -1.1191824929  MEMB      23              0.0000000000
     41710      1283  PVPG      C218            0.5598368428       18.9683321760       -0.2807684729  MEMB      23              0.0000000000
     41711      1283  PVPG      H18R           -0.2053763854       18.6197017571       -1.0068712757  MEMB      23              0.0000000000
     41712      1283  PVPG      H18S            0.7988419404       18.2299561037        0.5142147358  MEMB      23              0.0000000000
     41713      1283  PVPG      H18T            0.2028247969       19.9351262478        0.1341692788  MEMB      23              0.0000000000
     41714      1283  PVPG      C33            -2.8775287117       19.2571390304      -10.9440561417  MEMB      23              0.0000000000
     41715      1283  PVPG      H3X            -2.0742203897       18.7321234923      -11.5038559388  MEMB      23              0.0000000000
     41716      1283  PVPG      H3Y            -3.4818790726       18.5762837523      -10.3072535719  MEMB      23              0.0000000000
     41717      1283  PVPG      C34            -2.4012167854       20.1607339257       -9.8077218811  MEMB      23              0.0000000000
     41718      1283  PVPG      H4X            -3.2907733095       20.3530158769       -9.1705115256  MEMB      23              0.0000000000
     41719      1283  PVPG      H4Y            -1.9595978422       21.0926729794      -10.2209810522  MEMB      23              0.0000000000
     41720      1283  PVPG      C35            -1.2621391989       19.5186511871       -8.8973961834  MEMB      23              0.0000000000
     41721      1283  PVPG      H5X            -0.9006198838       20.2759700427       -8.1693215809  MEMB      23              0.0000000000
     41722      1283  PVPG      H5Y            -0.4117436177       19.2864465128       -9.5735841347  MEMB      23              0.0000000000
     41723      1283  PVPG      C36            -1.7386005504       18.2497430903       -8.2043540762  MEMB      23              0.0000000000
     41724      1283  PVPG      H6X            -0.8464256828       17.9928401428       -7.5941524963  MEMB      23              0.0000000000
     41725      1283  PVPG      H6Y            -1.9556884893       17.3918074429       -8.8760239402  MEMB      23              0.0000000000
     41726      1283  PVPG      C37            -2.9451331346       18.3191911699       -7.3360110737  MEMB      23              0.0000000000
     41727      1283  PVPG      H7X            -3.2847296916       17.3191542806       -6.9911601934  MEMB      23              0.0000000000
     41728      1283  PVPG      H7Y            -3.7883029958       18.5579511776       -8.0189301177  MEMB      23              0.0000000000
     41729      1283  PVPG      C38            -2.9073522178       19.3122100640       -6.1790035420  MEMB      23              0.0000000000
     41730      1283  PVPG      H8X            -3.9044138518       19.3152514193       -5.6889221195  MEMB      23              0.0000000000
     41731      1283  PVPG      H8Y            -2.7716011773       20.3226678822       -6.6204420427  MEMB      23              0.0000000000
     41732      1283  PVPG      C39            -1.9171859855       19.2170729495       -5.0587112601  MEMB      23              0.0000000000
     41733      1283  PVPG      H9X            -0.9540408855       18.8237463818       -5.4485402408  MEMB      23              0.0000000000
     41734      1283  PVPG      H9Y            -2.2660068628       18.2903317083       -4.5549300246  MEMB      23              0.0000000000
     41735      1283  PVPG      C310           -1.8955880988       20.2929776511       -4.0323808284  MEMB      23              0.0000000000
     41736      1283  PVPG      H10X           -1.3118385723       19.8279900328       -3.2093716793  MEMB      23              0.0000000000
     41737      1283  PVPG      H10Y           -2.9169327116       20.5470023714       -3.6765046865  MEMB      23              0.0000000000
     41738      1283  PVPG      C311           -0.9655401025       21.4953959713       -4.2811079631  MEMB      23              0.0000000000
     41739      1283  PVPG      H11X           -0.0808267231       21.1122051011       -4.8331660707  MEMB      23              0.0000000000
     41740      1283  PVPG      H11Y           -0.6969162012       21.8917667644       -3.2785850348  MEMB      23              0.0000000000
     41741      1283  PVPG      C312           -1.5307426499       22.6149712542       -5.1823843509  MEMB      23              0.0000000000
     41742      1283  PVPG      H12X           -1.9147557919       22.1681860660       -6.1243166219  MEMB      23              0.0000000000
     41743      1283  PVPG      H12Y           -0.6996033998       23.3137714141       -5.4173456178  MEMB      23              0.0000000000
     41744      1283  PVPG      C313           -2.6880953800       23.5111549960       -4.6700652085  MEMB      23              0.0000000000
     41745      1283  PVPG      H13X           -3.4920819333       22.7916479264       -4.4050435964  MEMB      23              0.0000000000
     41746      1283  PVPG      H13Y           -3.0047076723       24.2783885404       -5.4085983683  MEMB      23              0.0000000000
     41747      1283  PVPG      C314           -2.1797200413       24.3054127756       -3.4352162206  MEMB      23              0.0000000000
     41748      1283  PVPG      H14X           -1.4216667873       24.9760928777       -3.8933261302  MEMB      23              0.0000000000
     41749      1283  PVPG      H14Y           -1.8201357268       23.5957151898       -2.6597494846  MEMB      23              0.0000000000
     41750      1283  PVPG      C315           -3.2489615272       25.2795753614       -2.8270901867  MEMB      23              0.0000000000
     41751      1283  PVPG      H15X           -4.1298063335       25.1675782082       -3.4948408217  MEMB      23              0.0000000000
     41752      1283  PVPG      H15Y           -2.7505939915       26.2676315785       -2.7286244684  MEMB      23              0.0000000000
     41753      1283  PVPG      C316           -3.7463185609       24.9019714076       -1.3931506891  MEMB      23              0.0000000000
     41754      1283  PVPG      H16X           -3.0185184907       25.2897993012       -0.6486935690  MEMB      23              0.0000000000
     41755      1283  PVPG      H16Y           -4.7648254878       25.3112787191       -1.2215909754  MEMB      23              0.0000000000
     41756      1283  PVPG      H16Z           -3.8148165206       23.7946937577       -1.3334421624  MEMB      23              0.0000000000
     41757      1284  PPPE      N             -16.7946348838       13.3673078343      -21.6279981607  MEMB      24              0.0000000000
     41758      1284  PPPE      HN1           -17.1226923060       14.2478726318      -22.0736257689  MEMB      24              0.0000000000
     41759      1284  PPPE      HN2           -15.8106841086       13.4344901648      -21.2979566384  MEMB      24              0.0000000000
     41760      1284  PPPE      HN3           -16.7961723810       12.5676886378      -22.2929844589  MEMB      24              0.0000000000
     41761      1284  PPPE      C12           -17.6418893381       12.9160735257      -20.4726929251  MEMB      24              0.0000000000
     41762      1284  PPPE      H12A          -16.9365217145       12.3691788574      -19.8111162195  MEMB      24              0.0000000000
     41763      1284  PPPE      H12B          -18.3516075287       12.2198980552      -20.9686372810  MEMB      24              0.0000000000
     41764      1284  PPPE      C11           -18.1911008771       14.1260983984      -19.6056880513  MEMB      24              0.0000000000
     41765      1284  PPPE      H11A          -18.5967194558       13.7731391843      -18.6334666970  MEMB      24              0.0000000000
     41766      1284  PPPE      H11B          -18.9743070522       14.6509896242      -20.1933940054  MEMB      24              0.0000000000
     41767      1284  PPPE      P             -16.2432115929       15.2462660316      -17.9992638335  MEMB      24              0.0000000000
     41768      1284  PPPE      O13           -16.2506690910       13.9426071371      -17.2633002204  MEMB      24              0.0000000000
     41769      1284  PPPE      O14           -14.9146023212       15.7725364524      -18.3570698635  MEMB      24              0.0000000000
     41770      1284  PPPE      O11           -17.1477494234       16.2566729286      -17.2126441547  MEMB      24              0.0000000000
     41771      1284  PPPE      O12           -17.0510376643       15.0489017067      -19.4613429110  MEMB      24              0.0000000000
     41772      1284  PPPE      C1            -17.4399226605       17.4972360904      -17.8346168626  MEMB      24              0.0000000000
     41773      1284  PPPE      HA            -18.3259796352       17.2996757917      -18.4750807305  MEMB      24              0.0000000000
     41774      1284  PPPE      HB            -16.5974341818       17.7675921481      -18.5065110249  MEMB      24              0.0000000000
     41775      1284  PPPE      C2            -17.8791512869       18.5188820297      -16.8075754922  MEMB      24              0.0000000000
     41776      1284  PPPE      HS            -17.6142924388       19.5412439788      -17.1524621919  MEMB      24              0.0000000000
     41777      1284  PPPE      O21           -17.0564538327       18.2847062724      -15.6118773347  MEMB      24              0.0000000000
     41778      1284  PPPE      C21           -15.6869132460       18.5211197972      -15.6514506489  MEMB      24              0.0000000000
     41779      1284  PPPE      O22           -15.1214242165       18.8113831082      -16.6917379242  MEMB      24              0.0000000000
     41780      1284  PPPE      C22           -15.0538831310       18.4656345862      -14.3130357316  MEMB      24              0.0000000000
     41781      1284  PPPE      H2R           -15.6217540312       19.0079844259      -13.5270966169  MEMB      24              0.0000000000
     41782      1284  PPPE      H2S           -13.9981742530       18.7901281928      -14.4334668906  MEMB      24              0.0000000000
     41783      1284  PPPE      C3            -19.3343121945       18.5206582226      -16.4563761375  MEMB      24              0.0000000000
     41784      1284  PPPE      HX            -19.6881984379       19.5737719330      -16.4624621506  MEMB      24              0.0000000000
     41785      1284  PPPE      HY            -20.0034616369       18.0930813559      -17.2333819591  MEMB      24              0.0000000000
     41786      1284  PPPE      O31           -19.6079407870       17.9047613970      -15.1544005123  MEMB      24              0.0000000000
     41787      1284  PPPE      C31           -20.1984920426       16.7136584716      -15.1765953057  MEMB      24              0.0000000000
     41788      1284  PPPE      O32           -20.6193215317       16.0884781119      -16.1352718252  MEMB      24              0.0000000000
     41789      1284  PPPE      C32           -20.4483851282       16.3672230948      -13.7143704571  MEMB      24              0.0000000000
     41790      1284  PPPE      H2X           -21.1482173681       15.5046323687      -13.6921651624  MEMB      24              0.0000000000
     41791      1284  PPPE      H2Y           -20.9442528132       17.2770885443      -13.3136447369  MEMB      24              0.0000000000
     41792      1284  PPPE      C23           -14.9709848208       17.0115855812      -13.6751017555  MEMB      24              0.0000000000
     41793      1284  PPPE      H3R           -14.3564140201       16.2776777607      -14.2390193397  MEMB      24              0.0000000000
     41794      1284  PPPE      H3S           -16.0111065367       16.6249380075      -13.6205905655  MEMB      24              0.0000000000
     41795      1284  PPPE      C24           -14.4031148722       17.0209328170      -12.2516481751  MEMB      24              0.0000000000
     41796      1284  PPPE      H4R           -15.0879710160       17.6909228911      -11.6891480747  MEMB      24              0.0000000000
     41797      1284  PPPE      H4S           -13.3737351809       17.4377795130      -12.2822632559  MEMB      24              0.0000000000
     41798      1284  PPPE      C25           -14.3690764497       15.7120826201      -11.5814292472  MEMB      24              0.0000000000
     41799      1284  PPPE      H5R           -13.4845612978       15.1324078692      -11.9219158541  MEMB      24              0.0000000000
     41800      1284  PPPE      H5S           -15.3171650064       15.1945999800      -11.8415461552  MEMB      24              0.0000000000
     41801      1284  PPPE      C26           -14.1970579806       15.7955376447      -10.0329286422  MEMB      24              0.0000000000
     41802      1284  PPPE      H6R           -15.0853792381       16.3737993700       -9.7000326819  MEMB      24              0.0000000000
     41803      1284  PPPE      H6S           -13.2170251226       16.2604059551       -9.7926079167  MEMB      24              0.0000000000
     41804      1284  PPPE      C27           -14.2779946191       14.4623424964       -9.3365350592  MEMB      24              0.0000000000
     41805      1284  PPPE      H7R           -13.4893724680       13.7737028275       -9.7082493435  MEMB      24              0.0000000000
     41806      1284  PPPE      H7S           -15.3143444689       14.0749365003       -9.4376121732  MEMB      24              0.0000000000
     41807      1284  PPPE      C28           -14.1311065132       14.4131385873       -7.7743319764  MEMB      24              0.0000000000
     41808      1284  PPPE      H8R           -13.1277822080       14.8149599874       -7.5170366190  MEMB      24              0.0000000000
     41809      1284  PPPE      H8S           -14.0938784655       13.4111169003       -7.2959099752  MEMB      24              0.0000000000
     41810      1284  PPPE      C29           -15.2577589375       15.1677742769       -7.1172243935  MEMB      24              0.0000000000
     41811      1284  PPPE      H91           -16.3237998912       14.9899601032       -7.3220140525  MEMB      24              0.0000000000
     41812      1284  PPPE      C210          -14.9527687079       16.1391091093       -6.2482008199  MEMB      24              0.0000000000
     41813      1284  PPPE      H101          -15.8461134093       16.7172874210       -5.9695521443  MEMB      24              0.0000000000
     41814      1284  PPPE      C211          -13.6301952590       16.6746364032       -5.8304190845  MEMB      24              0.0000000000
     41815      1284  PPPE      H11R          -13.2649256644       17.3075030023       -6.6673055708  MEMB      24              0.0000000000
     41816      1284  PPPE      H11S          -12.9147781638       15.8246383692       -5.8287691115  MEMB      24              0.0000000000
     41817      1284  PPPE      C212          -13.5842716088       17.3826869957       -4.5110770784  MEMB      24              0.0000000000
     41818      1284  PPPE      H12R          -14.1417337369       18.3437043861       -4.5126743671  MEMB      24              0.0000000000
     41819      1284  PPPE      H12S          -12.5404432968       17.7080684085       -4.3139213243  MEMB      24              0.0000000000
     41820      1284  PPPE      C213          -14.0868607549       16.3961980337       -3.3855927219  MEMB      24              0.0000000000
     41821      1284  PPPE      H13R          -13.4431106882       15.4914875011       -3.4230854403  MEMB      24              0.0000000000
     41822      1284  PPPE      H13S          -15.1406653788       16.1094585237       -3.5895468054  MEMB      24              0.0000000000
     41823      1284  PPPE      C214          -14.0797993370       16.9525680677       -1.9435747172  MEMB      24              0.0000000000
     41824      1284  PPPE      H14R          -14.7956256235       17.7996574847       -1.8775955769  MEMB      24              0.0000000000
     41825      1284  PPPE      H14S          -13.0370153952       17.3169885781       -1.8247456708  MEMB      24              0.0000000000
     41826      1284  PPPE      C215          -14.3825105209       16.0112940717       -0.8140307260  MEMB      24              0.0000000000
     41827      1284  PPPE      H15R          -15.2539880410       15.3409232737       -0.9735641867  MEMB      24              0.0000000000
     41828      1284  PPPE      H15S          -14.6395795589       16.6105237509        0.0855026536  MEMB      24              0.0000000000
     41829      1284  PPPE      C216          -13.1303740664       15.1608109360       -0.5900226430  MEMB      24              0.0000000000
     41830      1284  PPPE      H16R          -13.2021120306       14.3916184113        0.2084243023  MEMB      24              0.0000000000
     41831      1284  PPPE      H16S          -12.8881372041       14.5804494206       -1.5058953493  MEMB      24              0.0000000000
     41832      1284  PPPE      H16T          -12.3497700237       15.9221632849       -0.3771355148  MEMB      24              0.0000000000
     41833      1284  PPPE      C33           -19.0430491267       16.2358258015      -12.9831184927  MEMB      24              0.0000000000
     41834      1284  PPPE      H3X           -19.1564800804       16.7826061958      -12.0226573435  MEMB      24              0.0000000000
     41835      1284  PPPE      H3Y           -18.2006298431       16.7391153938      -13.5040314766  MEMB      24              0.0000000000
     41836      1284  PPPE      C34           -18.6889153113       14.8381243250      -12.6763624044  MEMB      24              0.0000000000
     41837      1284  PPPE      H4X           -17.7119291641       14.8783532307      -12.1489150578  MEMB      24              0.0000000000
     41838      1284  PPPE      H4Y           -18.5506427575       14.3466118609      -13.6630828300  MEMB      24              0.0000000000
     41839      1284  PPPE      C35           -19.7160475103       14.1275752892      -11.7652040931  MEMB      24              0.0000000000
     41840      1284  PPPE      H5X           -19.6199938657       13.0208511844      -11.7812182412  MEMB      24              0.0000000000
     41841      1284  PPPE      H5Y           -20.7505485820       14.2966417815      -12.1333685314  MEMB      24              0.0000000000
     41842      1284  PPPE      C36           -19.7686304847       14.5336246602      -10.2719081650  MEMB      24              0.0000000000
     41843      1284  PPPE      H6X           -19.8344120617       15.6420299377      -10.2340726662  MEMB      24              0.0000000000
     41844      1284  PPPE      H6Y           -18.7245494529       14.4421512920       -9.9033319559  MEMB      24              0.0000000000
     41845      1284  PPPE      C37           -20.7821095372       13.6857009411       -9.4825985870  MEMB      24              0.0000000000
     41846      1284  PPPE      H7X           -20.3645412362       12.6573571855       -9.5322658236  MEMB      24              0.0000000000
     41847      1284  PPPE      H7Y           -21.7367020572       13.6039736289      -10.0450883800  MEMB      24              0.0000000000
     41848      1284  PPPE      C38           -21.0566381971       14.1857344217       -8.0329656770  MEMB      24              0.0000000000
     41849      1284  PPPE      H8X           -21.8695447359       13.5231050609       -7.6663237681  MEMB      24              0.0000000000
     41850      1284  PPPE      H8Y           -21.5136980087       15.1978068237       -8.0665332453  MEMB      24              0.0000000000
     41851      1284  PPPE      C39           -19.8641790298       14.2108369834       -7.1248234072  MEMB      24              0.0000000000
     41852      1284  PPPE      H9X           -18.9521150783       14.6446329112       -7.5877288418  MEMB      24              0.0000000000
     41853      1284  PPPE      H9Y           -19.4621508530       13.1845055110       -6.9857620759  MEMB      24              0.0000000000
     41854      1284  PPPE      C310          -20.0833765831       14.9719330703       -5.8203791618  MEMB      24              0.0000000000
     41855      1284  PPPE      H10X          -19.5973432626       14.5093201580       -4.9348951672  MEMB      24              0.0000000000
     41856      1284  PPPE      H10Y          -21.1756018209       15.1325168915       -5.6955678396  MEMB      24              0.0000000000
     41857      1284  PPPE      C311          -19.5596491174       16.4121805997       -5.9567499387  MEMB      24              0.0000000000
     41858      1284  PPPE      H11X          -19.9993017739       16.8858067814       -6.8604671409  MEMB      24              0.0000000000
     41859      1284  PPPE      H11Y          -18.4648487528       16.3300707317       -6.1270177610  MEMB      24              0.0000000000
     41860      1284  PPPE      C312          -19.8574621855       17.2063811040       -4.6767350256  MEMB      24              0.0000000000
     41861      1284  PPPE      H12X          -20.9327300361       17.1897327443       -4.3977316539  MEMB      24              0.0000000000
     41862      1284  PPPE      H12Y          -19.6965021671       18.2976191787       -4.8094465052  MEMB      24              0.0000000000
     41863      1284  PPPE      C313          -19.0877679139       16.7472244387       -3.4393963899  MEMB      24              0.0000000000
     41864      1284  PPPE      H13X          -18.2241098069       16.0743178622       -3.6281089054  MEMB      24              0.0000000000
     41865      1284  PPPE      H13Y          -19.6555963813       16.1516821696       -2.6929238604  MEMB      24              0.0000000000
     41866      1284  PPPE      C314          -18.5970997008       17.9031590548       -2.5738872629  MEMB      24              0.0000000000
     41867      1284  PPPE      H14X          -19.3790564072       18.6887088514       -2.4978857724  MEMB      24              0.0000000000
     41868      1284  PPPE      H14Y          -17.7502030862       18.2817447292       -3.1852464137  MEMB      24              0.0000000000
     41869      1284  PPPE      C315          -18.1671410800       17.4436000104       -1.1627095613  MEMB      24              0.0000000000
     41870      1284  PPPE      H15X          -17.3078168412       16.7740779712       -1.3809367173  MEMB      24              0.0000000000
     41871      1284  PPPE      H15Y          -19.0005332822       16.8730619510       -0.6998221454  MEMB      24              0.0000000000
     41872      1284  PPPE      C316          -17.8155661787       18.5753892039       -0.2445018781  MEMB      24              0.0000000000
     41873      1284  PPPE      H16X          -17.7397396311       18.3889856770        0.8481211401  MEMB      24              0.0000000000
     41874      1284  PPPE      H16Y          -16.8114720008       18.9824807376       -0.4902504592  MEMB      24              0.0000000000
     41875      1284  PPPE      H16Z          -18.4826965427       19.4568258264       -0.3555314149  MEMB      24              0.0000000000
     41876      1285  PPPE      N             -14.3238569871      -16.5473755739      -22.0836579696  MEMB      25              0.0000000000
     41877      1285  PPPE      HN1           -15.3545101570      -16.5272676352      -21.9460000095  MEMB      25              0.0000000000
     41878      1285  PPPE      HN2           -13.9425865676      -15.5853003898      -21.9804872021  MEMB      25              0.0000000000
     41879      1285  PPPE      HN3           -14.1808774366      -16.8470284663      -23.0692364760  MEMB      25              0.0000000000
     41880      1285  PPPE      C12           -13.6748796386      -17.4084634268      -21.0416924194  MEMB      25              0.0000000000
     41881      1285  PPPE      H12A          -12.5969903150      -17.2797220272      -21.2781268881  MEMB      25              0.0000000000
     41882      1285  PPPE      H12B          -13.9955422077      -18.4585695179      -21.2113205840  MEMB      25              0.0000000000
     41883      1285  PPPE      C11           -13.8630576446      -16.9689370854      -19.5898559392  MEMB      25              0.0000000000
     41884      1285  PPPE      H11A          -13.6253890908      -15.8862729686      -19.5145361616  MEMB      25              0.0000000000
     41885      1285  PPPE      H11B          -13.1072726475      -17.5725373834      -19.0432512205  MEMB      25              0.0000000000
     41886      1285  PPPE      P             -15.7324307072      -16.3973131944      -17.8407422985  MEMB      25              0.0000000000
     41887      1285  PPPE      O13           -16.0627212857      -15.0374912618      -18.2330830570  MEMB      25              0.0000000000
     41888      1285  PPPE      O14           -16.8742906351      -17.1103199117      -17.2231848978  MEMB      25              0.0000000000
     41889      1285  PPPE      O11           -14.5005664111      -16.2271019201      -16.8399898210  MEMB      25              0.0000000000
     41890      1285  PPPE      O12           -15.1834966894      -17.2210368605      -19.1477939406  MEMB      25              0.0000000000
     41891      1285  PPPE      C1            -13.9862538358      -17.2775504995      -16.0439694073  MEMB      25              0.0000000000
     41892      1285  PPPE      HA            -12.8839928629      -17.3927301247      -16.1219142689  MEMB      25              0.0000000000
     41893      1285  PPPE      HB            -14.4904200872      -18.2329671386      -16.3034235202  MEMB      25              0.0000000000
     41894      1285  PPPE      C2            -14.3256698305      -17.0156890688      -14.6010364721  MEMB      25              0.0000000000
     41895      1285  PPPE      HS            -15.3903462399      -16.7244448250      -14.4746959255  MEMB      25              0.0000000000
     41896      1285  PPPE      O21           -13.5109769818      -15.9154119401      -14.0810272699  MEMB      25              0.0000000000
     41897      1285  PPPE      C21           -14.0420012351      -14.7714435021      -13.7559072979  MEMB      25              0.0000000000
     41898      1285  PPPE      O22           -15.2449233088      -14.4407183795      -13.8482339622  MEMB      25              0.0000000000
     41899      1285  PPPE      C22           -12.9447278248      -13.9224436053      -13.2681819546  MEMB      25              0.0000000000
     41900      1285  PPPE      H2R           -13.1240659581      -12.8638715837      -13.5538112757  MEMB      25              0.0000000000
     41901      1285  PPPE      H2S           -12.0503721953      -14.2781571419      -13.8230845477  MEMB      25              0.0000000000
     41902      1285  PPPE      C3            -14.0061185152      -18.2249096571      -13.7165286051  MEMB      25              0.0000000000
     41903      1285  PPPE      HX            -14.6382037965      -19.1253118075      -13.8716581156  MEMB      25              0.0000000000
     41904      1285  PPPE      HY            -12.9666273824      -18.4688513101      -14.0235654999  MEMB      25              0.0000000000
     41905      1285  PPPE      O31           -14.0547494318      -17.8921035627      -12.3681679122  MEMB      25              0.0000000000
     41906      1285  PPPE      C31           -15.2996832410      -17.7091170083      -11.7827657850  MEMB      25              0.0000000000
     41907      1285  PPPE      O32           -16.3561290398      -17.9385261039      -12.3111274119  MEMB      25              0.0000000000
     41908      1285  PPPE      C32           -15.1276038766      -17.2465463239      -10.3976892895  MEMB      25              0.0000000000
     41909      1285  PPPE      H2X           -14.0488946026      -16.9863310367      -10.3429598965  MEMB      25              0.0000000000
     41910      1285  PPPE      H2Y           -15.4678799342      -17.9488048139       -9.6068882919  MEMB      25              0.0000000000
     41911      1285  PPPE      C23           -12.8480463938      -14.1023070982      -11.7669257339  MEMB      25              0.0000000000
     41912      1285  PPPE      H3R           -12.9437157117      -15.1563070971      -11.4289133316  MEMB      25              0.0000000000
     41913      1285  PPPE      H3S           -13.6788243855      -13.4913572167      -11.3535624907  MEMB      25              0.0000000000
     41914      1285  PPPE      C24           -11.5303133801      -13.5594791443      -11.2540874540  MEMB      25              0.0000000000
     41915      1285  PPPE      H4R           -11.4043668508      -12.4760935611      -11.4655919454  MEMB      25              0.0000000000
     41916      1285  PPPE      H4S           -10.7305019644      -14.0912282130      -11.8125367600  MEMB      25              0.0000000000
     41917      1285  PPPE      C25           -11.2554062414      -13.6770955145       -9.7418639994  MEMB      25              0.0000000000
     41918      1285  PPPE      H5R           -12.1873797747      -13.2913937432       -9.2760523669  MEMB      25              0.0000000000
     41919      1285  PPPE      H5S           -10.4150353564      -13.0456286839       -9.3822149794  MEMB      25              0.0000000000
     41920      1285  PPPE      C26           -11.1842380092      -15.1959505289       -9.2660324577  MEMB      25              0.0000000000
     41921      1285  PPPE      H6R           -10.4424134217      -15.8001153562       -9.8308352046  MEMB      25              0.0000000000
     41922      1285  PPPE      H6S           -12.1959242311      -15.5818716345       -9.5147831132  MEMB      25              0.0000000000
     41923      1285  PPPE      C27           -10.9444128321      -15.4095939610       -7.7596431015  MEMB      25              0.0000000000
     41924      1285  PPPE      H7R           -11.8616209358      -15.0551673414       -7.2425047586  MEMB      25              0.0000000000
     41925      1285  PPPE      H7S           -10.1217600660      -14.7761502181       -7.3642794068  MEMB      25              0.0000000000
     41926      1285  PPPE      C28           -10.5995764112      -16.7253191221       -7.4176393013  MEMB      25              0.0000000000
     41927      1285  PPPE      H8R           -10.5312895164      -16.6883831634       -6.3093552064  MEMB      25              0.0000000000
     41928      1285  PPPE      H8S            -9.5916661895      -17.1098838812       -7.6832479066  MEMB      25              0.0000000000
     41929      1285  PPPE      C29           -11.5333437006      -17.8551774187       -7.6499372871  MEMB      25              0.0000000000
     41930      1285  PPPE      H91           -11.1343812542      -18.6161131300       -8.3368185064  MEMB      25              0.0000000000
     41931      1285  PPPE      C210          -12.8291463542      -18.0110101721       -7.1213607720  MEMB      25              0.0000000000
     41932      1285  PPPE      H101          -13.2996862367      -18.9686950971       -7.3886280604  MEMB      25              0.0000000000
     41933      1285  PPPE      C211          -13.7270742306      -17.2540441213       -6.1919192583  MEMB      25              0.0000000000
     41934      1285  PPPE      H11R          -14.7189075338      -17.0911675416       -6.6652678807  MEMB      25              0.0000000000
     41935      1285  PPPE      H11S          -13.1511909736      -16.3757609748       -5.8295683388  MEMB      25              0.0000000000
     41936      1285  PPPE      C212          -14.0596426160      -18.1155369488       -4.9578424988  MEMB      25              0.0000000000
     41937      1285  PPPE      H12R          -13.1158926321      -18.3401995553       -4.4163781128  MEMB      25              0.0000000000
     41938      1285  PPPE      H12S          -14.6006227592      -19.0510764353       -5.2155775443  MEMB      25              0.0000000000
     41939      1285  PPPE      C213          -15.0814605770      -17.3404936639       -4.0181558977  MEMB      25              0.0000000000
     41940      1285  PPPE      H13R          -15.9420633240      -16.9888127013       -4.6264357778  MEMB      25              0.0000000000
     41941      1285  PPPE      H13S          -14.5436246440      -16.4445996079       -3.6407604160  MEMB      25              0.0000000000
     41942      1285  PPPE      C214          -15.5170246377      -18.1230291587       -2.7867754660  MEMB      25              0.0000000000
     41943      1285  PPPE      H14R          -14.5555677399      -18.5081999247       -2.3848238338  MEMB      25              0.0000000000
     41944      1285  PPPE      H14S          -16.1138885341      -19.0361177393       -2.9973549840  MEMB      25              0.0000000000
     41945      1285  PPPE      C215          -16.3282679086      -17.2921598935       -1.7436937020  MEMB      25              0.0000000000
     41946      1285  PPPE      H15R          -17.3858844650      -17.2339954620       -2.0789325997  MEMB      25              0.0000000000
     41947      1285  PPPE      H15S          -15.9636823460      -16.2547430611       -1.5850598987  MEMB      25              0.0000000000
     41948      1285  PPPE      C216          -16.2908219219      -17.8350310376       -0.2659684721  MEMB      25              0.0000000000
     41949      1285  PPPE      H16R          -15.2285474387      -17.9267715483        0.0462455587  MEMB      25              0.0000000000
     41950      1285  PPPE      H16S          -16.9456614064      -17.2415382249        0.4072867032  MEMB      25              0.0000000000
     41951      1285  PPPE      H16T          -16.5975597244      -18.9026333140       -0.2445605359  MEMB      25              0.0000000000
     41952      1285  PPPE      C33           -15.8581364268      -15.9184489387      -10.2496049383  MEMB      25              0.0000000000
     41953      1285  PPPE      H3X           -16.9314338332      -16.1556943979      -10.0881482268  MEMB      25              0.0000000000
     41954      1285  PPPE      H3Y           -15.6710333131      -15.2084273760      -11.0833811705  MEMB      25              0.0000000000
     41955      1285  PPPE      C34           -15.5227190147      -15.2130057558       -8.9298168923  MEMB      25              0.0000000000
     41956      1285  PPPE      H4X           -14.4231568810      -15.2126362015       -8.7708075293  MEMB      25              0.0000000000
     41957      1285  PPPE      H4Y           -15.8222587565      -15.9293978660       -8.1352231045  MEMB      25              0.0000000000
     41958      1285  PPPE      C35           -16.0708255189      -13.7596848773       -8.7051697280  MEMB      25              0.0000000000
     41959      1285  PPPE      H5X           -17.1711418310      -13.6646843960       -8.8259998643  MEMB      25              0.0000000000
     41960      1285  PPPE      H5Y           -15.6679228998      -13.1703948151       -9.5564791325  MEMB      25              0.0000000000
     41961      1285  PPPE      C36           -15.8141600383      -13.2846850945       -7.2428393403  MEMB      25              0.0000000000
     41962      1285  PPPE      H6X           -16.2456326337      -14.0928617550       -6.6143467907  MEMB      25              0.0000000000
     41963      1285  PPPE      H6Y           -16.3894557106      -12.3469657984       -7.0877960853  MEMB      25              0.0000000000
     41964      1285  PPPE      C37           -14.3245665994      -12.9411708833       -7.0407322991  MEMB      25              0.0000000000
     41965      1285  PPPE      H7X           -14.0883124621      -12.0875966456       -7.7114900820  MEMB      25              0.0000000000
     41966      1285  PPPE      H7Y           -13.6926117251      -13.8097329015       -7.3245527660  MEMB      25              0.0000000000
     41967      1285  PPPE      C38           -14.0021533603      -12.5809637526       -5.5143852470  MEMB      25              0.0000000000
     41968      1285  PPPE      H8X           -14.6483182570      -11.6893667931       -5.3665786575  MEMB      25              0.0000000000
     41969      1285  PPPE      H8Y           -12.9107005265      -12.3813628061       -5.4577180272  MEMB      25              0.0000000000
     41970      1285  PPPE      C39           -14.5313668278      -13.5476211876       -4.4527083134  MEMB      25              0.0000000000
     41971      1285  PPPE      H9X           -13.9025354098      -14.4635268561       -4.4497327288  MEMB      25              0.0000000000
     41972      1285  PPPE      H9Y           -15.5954061626      -13.8065563841       -4.6400418607  MEMB      25              0.0000000000
     41973      1285  PPPE      C310          -14.5914365205      -13.0448938158       -2.9831597417  MEMB      25              0.0000000000
     41974      1285  PPPE      H10X          -15.2107250616      -13.7594304077       -2.3998586516  MEMB      25              0.0000000000
     41975      1285  PPPE      H10Y          -15.0754202678      -12.0573998788       -2.8252469273  MEMB      25              0.0000000000
     41976      1285  PPPE      C311          -13.1853250161      -12.9876810558       -2.2433716455  MEMB      25              0.0000000000
     41977      1285  PPPE      H11X          -13.3948868356      -12.5304282910       -1.2527532766  MEMB      25              0.0000000000
     41978      1285  PPPE      H11Y          -12.5123467708      -12.2605724733       -2.7460985999  MEMB      25              0.0000000000
     41979      1285  PPPE      C312          -12.5886758209      -14.3723542829       -1.9422227328  MEMB      25              0.0000000000
     41980      1285  PPPE      H12X          -12.6510675760      -14.9575740494       -2.8845316492  MEMB      25              0.0000000000
     41981      1285  PPPE      H12Y          -13.3010630886      -14.7651026326       -1.1855364605  MEMB      25              0.0000000000
     41982      1285  PPPE      C313          -11.1434032785      -14.4142273042       -1.3053580616  MEMB      25              0.0000000000
     41983      1285  PPPE      H13X          -11.0902580928      -14.1298777694       -0.2326782719  MEMB      25              0.0000000000
     41984      1285  PPPE      H13Y          -10.4178618519      -13.8505181436       -1.9299720389  MEMB      25              0.0000000000
     41985      1285  PPPE      C314          -10.5630147350      -15.8228665421       -1.2314082849  MEMB      25              0.0000000000
     41986      1285  PPPE      H14X           -9.5747155307      -15.6214369135       -0.7655630451  MEMB      25              0.0000000000
     41987      1285  PPPE      H14Y          -10.3845018408      -16.0674110210       -2.3003573690  MEMB      25              0.0000000000
     41988      1285  PPPE      C315          -11.4510321133      -16.8528276515       -0.5723456863  MEMB      25              0.0000000000
     41989      1285  PPPE      H15X          -11.1899979057      -17.9215386990       -0.7273903234  MEMB      25              0.0000000000
     41990      1285  PPPE      H15Y          -12.4738934030      -16.8190007309       -1.0047014673  MEMB      25              0.0000000000
     41991      1285  PPPE      C316          -11.6006117430      -16.6823904379        0.9943570035  MEMB      25              0.0000000000
     41992      1285  PPPE      H16X          -10.6858572977      -16.5725251827        1.6152232778  MEMB      25              0.0000000000
     41993      1285  PPPE      H16Y          -12.2634990236      -15.8400045467        1.2863971779  MEMB      25              0.0000000000
     41994      1285  PPPE      H16Z          -12.0811464833      -17.6010331034        1.3937352907  MEMB      25              0.0000000000
     41995      1286  PPPE      N              -7.3924916512      -22.0774207387      -22.0034008995  MEMB      26              0.0000000000
     41996      1286  PPPE      HN1            -7.6877993352      -22.0263750344      -22.9992862884  MEMB      26              0.0000000000
     41997      1286  PPPE      HN2            -6.8333397172      -21.2141675648      -21.8493130269  MEMB      26              0.0000000000
     41998      1286  PPPE      HN3            -6.9014813246      -22.9680701676      -21.7860246039  MEMB      26              0.0000000000
     41999      1286  PPPE      C12            -8.6458126247      -21.8734883902      -21.2204531939  MEMB      26              0.0000000000
     42000      1286  PPPE      H12A           -9.4966961752      -22.1733715286      -21.8688267643  MEMB      26              0.0000000000
     42001      1286  PPPE      H12B           -8.7606550002      -20.7689526391      -21.1867930769  MEMB      26              0.0000000000
     42002      1286  PPPE      C11            -8.7981108372      -22.4739274577      -19.8512410339  MEMB      26              0.0000000000
     42003      1286  PPPE      H11A           -8.7949946717      -23.5382796740      -20.1697777652  MEMB      26              0.0000000000
     42004      1286  PPPE      H11B           -9.7283117088      -22.5259496757      -19.2459799106  MEMB      26              0.0000000000
     42005      1286  PPPE      P              -7.7746693998      -21.3935839515      -17.7302215782  MEMB      26              0.0000000000
     42006      1286  PPPE      O13            -7.6168531724      -22.2547552112      -16.5086111758  MEMB      26              0.0000000000
     42007      1286  PPPE      O14            -6.7939450558      -20.3083912479      -17.8941355831  MEMB      26              0.0000000000
     42008      1286  PPPE      O11            -9.2076114614      -20.7577714541      -17.7250496910  MEMB      26              0.0000000000
     42009      1286  PPPE      O12            -7.5948968353      -22.3365775549      -19.0668865920  MEMB      26              0.0000000000
     42010      1286  PPPE      C1             -9.8914253805      -20.4196351943      -16.6267170281  MEMB      26              0.0000000000
     42011      1286  PPPE      HA             -9.8041577392      -21.1833372573      -15.8245546269  MEMB      26              0.0000000000
     42012      1286  PPPE      HB            -10.9548032447      -20.3528554438      -16.9415010541  MEMB      26              0.0000000000
     42013      1286  PPPE      C2             -9.4700467734      -19.0052354017      -16.0143068825  MEMB      26              0.0000000000
     42014      1286  PPPE      HS             -9.5466781323      -18.3481887025      -16.9069088486  MEMB      26              0.0000000000
     42015      1286  PPPE      O21            -8.1952288548      -19.0748343283      -15.4802665796  MEMB      26              0.0000000000
     42016      1286  PPPE      C21            -7.4099538512      -18.0568382057      -15.3123520038  MEMB      26              0.0000000000
     42017      1286  PPPE      O22            -7.7798882255      -16.8838705636      -15.5594955116  MEMB      26              0.0000000000
     42018      1286  PPPE      C22            -6.0171892604      -18.5668974799      -14.8561537408  MEMB      26              0.0000000000
     42019      1286  PPPE      H2R            -5.3574165286      -18.7721140715      -15.7261578172  MEMB      26              0.0000000000
     42020      1286  PPPE      H2S            -6.1008566646      -19.5180133680      -14.2880874304  MEMB      26              0.0000000000
     42021      1286  PPPE      C3            -10.4410211222      -18.4935751779      -14.9375385915  MEMB      26              0.0000000000
     42022      1286  PPPE      HX            -10.1501792145      -17.4394429237      -14.7412297143  MEMB      26              0.0000000000
     42023      1286  PPPE      HY            -11.4251781602      -18.3506504935      -15.4328450209  MEMB      26              0.0000000000
     42024      1286  PPPE      O31           -10.5759282595      -19.4198596157      -13.8602934148  MEMB      26              0.0000000000
     42025      1286  PPPE      C31           -10.6091830024      -18.8185286564      -12.7473760838  MEMB      26              0.0000000000
     42026      1286  PPPE      O32           -10.6173607273      -17.6361412571      -12.5786316658  MEMB      26              0.0000000000
     42027      1286  PPPE      C32           -10.5550890816      -19.7547287189      -11.5545396605  MEMB      26              0.0000000000
     42028      1286  PPPE      H2X           -11.0870563913      -20.6748630981      -11.8780895110  MEMB      26              0.0000000000
     42029      1286  PPPE      H2Y           -11.2292137230      -19.4142426529      -10.7397107172  MEMB      26              0.0000000000
     42030      1286  PPPE      C23            -5.3563462893      -17.5698715249      -13.8615902905  MEMB      26              0.0000000000
     42031      1286  PPPE      H3R            -5.3767839624      -16.5332637488      -14.2607739830  MEMB      26              0.0000000000
     42032      1286  PPPE      H3S            -4.2980273046      -17.8982120923      -13.7811266441  MEMB      26              0.0000000000
     42033      1286  PPPE      C24            -6.0486645930      -17.6942325279      -12.4966241631  MEMB      26              0.0000000000
     42034      1286  PPPE      H4R            -6.2168043630      -18.7621823137      -12.2406294896  MEMB      26              0.0000000000
     42035      1286  PPPE      H4S            -7.0705908327      -17.2610479512      -12.5449861639  MEMB      26              0.0000000000
     42036      1286  PPPE      C25            -5.2253290127      -17.0232537358      -11.3709603667  MEMB      26              0.0000000000
     42037      1286  PPPE      H5R            -4.8524289120      -16.0498897654      -11.7554458620  MEMB      26              0.0000000000
     42038      1286  PPPE      H5S            -4.2641551136      -17.5785379334      -11.3248605250  MEMB      26              0.0000000000
     42039      1286  PPPE      C26            -5.7811042801      -17.0014376383      -10.0726820810  MEMB      26              0.0000000000
     42040      1286  PPPE      H6R            -6.8726511262      -16.8046435035      -10.1368580215  MEMB      26              0.0000000000
     42041      1286  PPPE      H6S            -5.2592488061      -16.2712296577       -9.4178659469  MEMB      26              0.0000000000
     42042      1286  PPPE      C27            -5.7551476729      -18.3720014991       -9.3198606058  MEMB      26              0.0000000000
     42043      1286  PPPE      H7R            -4.7663338659      -18.8617721405       -9.1906593137  MEMB      26              0.0000000000
     42044      1286  PPPE      H7S            -6.4472317644      -19.0792414127       -9.8249866445  MEMB      26              0.0000000000
     42045      1286  PPPE      C28            -6.3325995950      -18.3449711710       -7.9625082913  MEMB      26              0.0000000000
     42046      1286  PPPE      H8R            -6.5969049753      -19.3177521506       -7.4954313899  MEMB      26              0.0000000000
     42047      1286  PPPE      H8S            -7.2683296012      -17.7460325302       -7.9608171101  MEMB      26              0.0000000000
     42048      1286  PPPE      C29            -5.3024965775      -17.6607065164       -7.0549026248  MEMB      26              0.0000000000
     42049      1286  PPPE      H91            -5.4756573862      -16.5747178569       -7.0295261408  MEMB      26              0.0000000000
     42050      1286  PPPE      C210           -4.3448869205      -18.1996654521       -6.2587197659  MEMB      26              0.0000000000
     42051      1286  PPPE      H101           -3.5510789161      -17.5681405361       -5.8332257792  MEMB      26              0.0000000000
     42052      1286  PPPE      C211           -3.9894292557      -19.6800229764       -6.1702644719  MEMB      26              0.0000000000
     42053      1286  PPPE      H11R           -2.8798774443      -19.7353693404       -6.1826158985  MEMB      26              0.0000000000
     42054      1286  PPPE      H11S           -4.3848679844      -20.2452469678       -7.0411669069  MEMB      26              0.0000000000
     42055      1286  PPPE      C212           -4.4833159938      -20.2944430261       -4.8365972871  MEMB      26              0.0000000000
     42056      1286  PPPE      H12R           -4.4346022151      -21.4043713442       -4.8392612370  MEMB      26              0.0000000000
     42057      1286  PPPE      H12S           -5.4920589875      -19.8382590647       -4.7435662917  MEMB      26              0.0000000000
     42058      1286  PPPE      C213           -3.5174140923      -20.0919595604       -3.6400315138  MEMB      26              0.0000000000
     42059      1286  PPPE      H13R           -3.5530594553      -19.0471815242       -3.2638809279  MEMB      26              0.0000000000
     42060      1286  PPPE      H13S           -2.4864717763      -20.4453383888       -3.8559072762  MEMB      26              0.0000000000
     42061      1286  PPPE      C214           -4.0107174266      -20.8653698760       -2.3818083192  MEMB      26              0.0000000000
     42062      1286  PPPE      H14R           -4.0717597808      -21.9565091114       -2.5818333175  MEMB      26              0.0000000000
     42063      1286  PPPE      H14S           -5.0108923354      -20.3918875378       -2.2828859899  MEMB      26              0.0000000000
     42064      1286  PPPE      C215           -3.2438219301      -20.5635103396       -1.0849549859  MEMB      26              0.0000000000
     42065      1286  PPPE      H15R           -3.3216878748      -19.4759529245       -0.8717021700  MEMB      26              0.0000000000
     42066      1286  PPPE      H15S           -2.1704078174      -20.8273426701       -1.1967389029  MEMB      26              0.0000000000
     42067      1286  PPPE      C216           -3.6769875048      -21.3725785409        0.1110978764  MEMB      26              0.0000000000
     42068      1286  PPPE      H16R           -3.2137199736      -20.9628789928        1.0340553373  MEMB      26              0.0000000000
     42069      1286  PPPE      H16S           -4.7785972413      -21.3915871399        0.2539812604  MEMB      26              0.0000000000
     42070      1286  PPPE      H16T           -3.3987972458      -22.4465678338        0.0521217920  MEMB      26              0.0000000000
     42071      1286  PPPE      C33            -9.0972283268      -20.0314761862      -11.1574933262  MEMB      26              0.0000000000
     42072      1286  PPPE      H3X            -8.8428692741      -19.0770899897      -10.6487994493  MEMB      26              0.0000000000
     42073      1286  PPPE      H3Y            -8.4484107361      -19.9956102597      -12.0586427973  MEMB      26              0.0000000000
     42074      1286  PPPE      C34            -8.9562725033      -21.1908145256      -10.1377426526  MEMB      26              0.0000000000
     42075      1286  PPPE      H4X            -7.8705976658      -21.4186946914      -10.0769004191  MEMB      26              0.0000000000
     42076      1286  PPPE      H4Y            -9.4648536970      -22.0278925997      -10.6621151036  MEMB      26              0.0000000000
     42077      1286  PPPE      C35            -9.5262728064      -20.8871540454       -8.7410553613  MEMB      26              0.0000000000
     42078      1286  PPPE      H5X           -10.4855880366      -20.3357357151       -8.8409208421  MEMB      26              0.0000000000
     42079      1286  PPPE      H5Y            -8.8253184564      -20.1904117263       -8.2335771453  MEMB      26              0.0000000000
     42080      1286  PPPE      C36            -9.7763043070      -22.1087415447       -7.8125932751  MEMB      26              0.0000000000
     42081      1286  PPPE      H6X           -10.3805644838      -22.8960589066       -8.3119148253  MEMB      26              0.0000000000
     42082      1286  PPPE      H6Y           -10.3790557610      -21.6719039167       -6.9878602446  MEMB      26              0.0000000000
     42083      1286  PPPE      C37            -8.5229075516      -22.7379601638       -7.2113811305  MEMB      26              0.0000000000
     42084      1286  PPPE      H7X            -7.6414716620      -22.1098915160       -7.4622228057  MEMB      26              0.0000000000
     42085      1286  PPPE      H7Y            -8.3651538748      -23.6992583254       -7.7455539696  MEMB      26              0.0000000000
     42086      1286  PPPE      C38            -8.7466763564      -22.9483057062       -5.7003462439  MEMB      26              0.0000000000
     42087      1286  PPPE      H8X            -8.2867607258      -23.9163544537       -5.4076343801  MEMB      26              0.0000000000
     42088      1286  PPPE      H8Y            -9.8244638395      -23.0727053879       -5.4611395120  MEMB      26              0.0000000000
     42089      1286  PPPE      C39            -8.1969807995      -21.7601100953       -4.8194217771  MEMB      26              0.0000000000
     42090      1286  PPPE      H9X            -8.6653557044      -20.8394756167       -5.2285404707  MEMB      26              0.0000000000
     42091      1286  PPPE      H9Y            -7.1157278411      -21.5724367786       -4.9926030871  MEMB      26              0.0000000000
     42092      1286  PPPE      C310           -8.6058686593      -21.9879013871       -3.3411635948  MEMB      26              0.0000000000
     42093      1286  PPPE      H10X           -8.3739952244      -23.0229537712       -3.0106756643  MEMB      26              0.0000000000
     42094      1286  PPPE      H10Y           -9.7002527930      -21.9615512783       -3.1515586377  MEMB      26              0.0000000000
     42095      1286  PPPE      C311           -7.9503421615      -21.1315440678       -2.2404121644  MEMB      26              0.0000000000
     42096      1286  PPPE      H11X           -6.8750192493      -21.4070747925       -2.1947563393  MEMB      26              0.0000000000
     42097      1286  PPPE      H11Y           -8.3149774903      -21.4059579985       -1.2274664247  MEMB      26              0.0000000000
     42098      1286  PPPE      C312           -8.1111795239      -19.6421391688       -2.5544712705  MEMB      26              0.0000000000
     42099      1286  PPPE      H12X           -9.1519911285      -19.3116067243       -2.3500684648  MEMB      26              0.0000000000
     42100      1286  PPPE      H12Y           -7.8716230966      -19.4580319941       -3.6236009476  MEMB      26              0.0000000000
     42101      1286  PPPE      C313           -7.2866532327      -18.6720112249       -1.6441948273  MEMB      26              0.0000000000
     42102      1286  PPPE      H13X           -6.3612541289      -18.5597490047       -2.2486406005  MEMB      26              0.0000000000
     42103      1286  PPPE      H13Y           -7.1293388706      -19.1793180758       -0.6683808335  MEMB      26              0.0000000000
     42104      1286  PPPE      C314           -7.8583790954      -17.2216499333       -1.4954553281  MEMB      26              0.0000000000
     42105      1286  PPPE      H14X           -8.8949641614      -17.3922904838       -1.1339387952  MEMB      26              0.0000000000
     42106      1286  PPPE      H14Y           -7.9757346492      -16.7169630677       -2.4782268384  MEMB      26              0.0000000000
     42107      1286  PPPE      C315           -7.1688330371      -16.3959028864       -0.4428726534  MEMB      26              0.0000000000
     42108      1286  PPPE      H15X           -6.0848889260      -16.6137617203       -0.3336769928  MEMB      26              0.0000000000
     42109      1286  PPPE      H15Y           -7.5461019942      -16.7388784735        0.5442225197  MEMB      26              0.0000000000
     42110      1286  PPPE      C316           -7.2431276073      -14.9271589591       -0.7701067127  MEMB      26              0.0000000000
     42111      1286  PPPE      H16X           -6.5005795956      -14.3968108802       -0.1363288608  MEMB      26              0.0000000000
     42112      1286  PPPE      H16Y           -7.1193067178      -14.8049695096       -1.8674029925  MEMB      26              0.0000000000
     42113      1286  PPPE      H16Z           -8.2789437033      -14.6294886019       -0.5002949752  MEMB      26              0.0000000000
     42114      1287  PPPE      N              14.4786079808       18.6944390361      -21.2309313469  MEMB      27              0.0000000000
     42115      1287  PPPE      HN1            14.7444380203       19.6944005426      -21.3358664495  MEMB      27              0.0000000000
     42116      1287  PPPE      HN2            14.7986145487       18.1374812987      -22.0488518046  MEMB      27              0.0000000000
     42117      1287  PPPE      HN3            13.4394949211       18.7356443364      -21.2430215255  MEMB      27              0.0000000000
     42118      1287  PPPE      C12            15.0169839072       18.3303827221      -19.9306767736  MEMB      27              0.0000000000
     42119      1287  PPPE      H12A           16.0897880261       18.0755155565      -20.0665261395  MEMB      27              0.0000000000
     42120      1287  PPPE      H12B           14.4858432176       17.4044711540      -19.6226210386  MEMB      27              0.0000000000
     42121      1287  PPPE      C11            14.9300975397       19.4959804693      -18.8866856995  MEMB      27              0.0000000000
     42122      1287  PPPE      H11A           15.8515797824       20.1165896955      -18.8807137078  MEMB      27              0.0000000000
     42123      1287  PPPE      H11B           14.8920844642       19.0049710719      -17.8908012796  MEMB      27              0.0000000000
     42124      1287  PPPE      P              12.3848333521       19.7963195628      -18.3959519108  MEMB      27              0.0000000000
     42125      1287  PPPE      O13            11.3358956568       20.6798105160      -18.9437673955  MEMB      27              0.0000000000
     42126      1287  PPPE      O14            12.2126239630       18.2989537260      -18.7165444181  MEMB      27              0.0000000000
     42127      1287  PPPE      O11            12.5519330540       20.1234502354      -16.8490004410  MEMB      27              0.0000000000
     42128      1287  PPPE      O12            13.7777645498       20.3455205376      -19.0464418160  MEMB      27              0.0000000000
     42129      1287  PPPE      C1             12.6500130183       21.4659721464      -16.4230167402  MEMB      27              0.0000000000
     42130      1287  PPPE      HA             11.5959694067       21.8169053215      -16.4356251272  MEMB      27              0.0000000000
     42131      1287  PPPE      HB             13.2304515902       22.0454739152      -17.1724096707  MEMB      27              0.0000000000
     42132      1287  PPPE      C2             13.2803248727       21.4564264769      -15.0684987312  MEMB      27              0.0000000000
     42133      1287  PPPE      HS             14.1950327000       20.8424098635      -15.2120751538  MEMB      27              0.0000000000
     42134      1287  PPPE      O21            12.3310203033       20.9321603917      -14.1034938963  MEMB      27              0.0000000000
     42135      1287  PPPE      C21            12.8136676323       19.9336340397      -13.3494975410  MEMB      27              0.0000000000
     42136      1287  PPPE      O22            13.8510559047       19.3424140930      -13.5254030656  MEMB      27              0.0000000000
     42137      1287  PPPE      C22            11.6311878148       19.5997206779      -12.3635199253  MEMB      27              0.0000000000
     42138      1287  PPPE      H2R            10.8652250225       19.0555188877      -12.9563659526  MEMB      27              0.0000000000
     42139      1287  PPPE      H2S            11.1690027970       20.5227959267      -11.9528642367  MEMB      27              0.0000000000
     42140      1287  PPPE      C3             13.6206723751       22.9185238719      -14.6394554601  MEMB      27              0.0000000000
     42141      1287  PPPE      HX             14.1295959396       23.4630333810      -15.4633651638  MEMB      27              0.0000000000
     42142      1287  PPPE      HY             12.6714335054       23.4950737874      -14.6687259758  MEMB      27              0.0000000000
     42143      1287  PPPE      O31            14.2457004863       23.0612912867      -13.3834763012  MEMB      27              0.0000000000
     42144      1287  PPPE      C31            15.4198450560       22.4948939340      -13.1084678416  MEMB      27              0.0000000000
     42145      1287  PPPE      O32            16.0832433798       21.7643786988      -13.8277542877  MEMB      27              0.0000000000
     42146      1287  PPPE      C32            15.7569887328       23.0264372345      -11.6820717601  MEMB      27              0.0000000000
     42147      1287  PPPE      H2X            14.9281531252       22.6839500508      -11.0262859227  MEMB      27              0.0000000000
     42148      1287  PPPE      H2Y            15.7160180879       24.1297144811      -11.8062559920  MEMB      27              0.0000000000
     42149      1287  PPPE      C23            12.2119171383       18.6548924769      -11.2368736733  MEMB      27              0.0000000000
     42150      1287  PPPE      H3R            13.0023840127       18.0547944859      -11.7362387919  MEMB      27              0.0000000000
     42151      1287  PPPE      H3S            11.3751424110       17.9898983978      -10.9337038685  MEMB      27              0.0000000000
     42152      1287  PPPE      C24            12.7920369493       19.4555203534      -10.0219514225  MEMB      27              0.0000000000
     42153      1287  PPPE      H4R            11.9397943940       20.0259748360       -9.5946513987  MEMB      27              0.0000000000
     42154      1287  PPPE      H4S            13.6346188268       20.1065287745      -10.3390709826  MEMB      27              0.0000000000
     42155      1287  PPPE      C25            13.3575692880       18.4406047501       -9.0224519493  MEMB      27              0.0000000000
     42156      1287  PPPE      H5R            14.2271013606       17.8378426718       -9.3614399310  MEMB      27              0.0000000000
     42157      1287  PPPE      H5S            12.5094079198       17.7710450185       -8.7643181479  MEMB      27              0.0000000000
     42158      1287  PPPE      C26            13.8939769910       19.1419220319       -7.7470318548  MEMB      27              0.0000000000
     42159      1287  PPPE      H6R            14.6113388968       19.8020873151       -8.2798495488  MEMB      27              0.0000000000
     42160      1287  PPPE      H6S            14.4993955510       18.3873927125       -7.2007033152  MEMB      27              0.0000000000
     42161      1287  PPPE      C27            12.8527418212       19.7809304166       -6.8940996131  MEMB      27              0.0000000000
     42162      1287  PPPE      H7R            12.6321578996       19.1690179668       -5.9934182669  MEMB      27              0.0000000000
     42163      1287  PPPE      H7S            11.8761297371       19.8271683813       -7.4217471165  MEMB      27              0.0000000000
     42164      1287  PPPE      C28            13.2710812700       21.2705518393       -6.5125400139  MEMB      27              0.0000000000
     42165      1287  PPPE      H8R            13.3989096922       21.7790025267       -7.4920596884  MEMB      27              0.0000000000
     42166      1287  PPPE      H8S            14.3003125329       21.3333126627       -6.0989398609  MEMB      27              0.0000000000
     42167      1287  PPPE      C29            12.1890735587       21.8700886310       -5.6507563522  MEMB      27              0.0000000000
     42168      1287  PPPE      H91            11.2326832339       21.4599473882       -6.0072696163  MEMB      27              0.0000000000
     42169      1287  PPPE      C210           12.3228691169       22.7286955440       -4.6385671217  MEMB      27              0.0000000000
     42170      1287  PPPE      H101           11.4383516690       23.0677274553       -4.0793835674  MEMB      27              0.0000000000
     42171      1287  PPPE      C211           13.5712103509       23.3461175637       -4.0805581667  MEMB      27              0.0000000000
     42172      1287  PPPE      H11R           13.3727072043       24.4125058466       -3.8402801385  MEMB      27              0.0000000000
     42173      1287  PPPE      H11S           14.3111276737       23.3890195974       -4.9082071085  MEMB      27              0.0000000000
     42174      1287  PPPE      C212           14.1598699598       22.6367749208       -2.8854404641  MEMB      27              0.0000000000
     42175      1287  PPPE      H12R           14.9669413856       23.3010678827       -2.5090476185  MEMB      27              0.0000000000
     42176      1287  PPPE      H12S           14.5797636456       21.7170547368       -3.3460108451  MEMB      27              0.0000000000
     42177      1287  PPPE      C213           13.2781652070       22.4612061482       -1.6782381690  MEMB      27              0.0000000000
     42178      1287  PPPE      H13R           13.9571319134       21.9448325854       -0.9664210890  MEMB      27              0.0000000000
     42179      1287  PPPE      H13S           12.4623361088       21.7567362486       -1.9474333456  MEMB      27              0.0000000000
     42180      1287  PPPE      C214           12.7596847186       23.7835884136       -1.0731303346  MEMB      27              0.0000000000
     42181      1287  PPPE      H14R           11.8835229578       24.0210066079       -1.7136724254  MEMB      27              0.0000000000
     42182      1287  PPPE      H14S           13.5472490760       24.5670969991       -1.0864599761  MEMB      27              0.0000000000
     42183      1287  PPPE      C215           12.2173389133       23.5951431712        0.3830974938  MEMB      27              0.0000000000
     42184      1287  PPPE      H15R           11.8521813913       22.5476316886        0.3222642948  MEMB      27              0.0000000000
     42185      1287  PPPE      H15S           11.4961999519       24.4198868254        0.5676984229  MEMB      27              0.0000000000
     42186      1287  PPPE      C216           13.3450141355       23.6480657183        1.4999328055  MEMB      27              0.0000000000
     42187      1287  PPPE      H16R           13.8173536274       22.6447192162        1.4327598858  MEMB      27              0.0000000000
     42188      1287  PPPE      H16S           14.1485559958       24.3093260129        1.1108617304  MEMB      27              0.0000000000
     42189      1287  PPPE      H16T           13.0530332779       23.9187269230        2.5371457494  MEMB      27              0.0000000000
     42190      1287  PPPE      C33            17.0665236870       22.4968871155      -11.1701167508  MEMB      27              0.0000000000
     42191      1287  PPPE      H3X            17.8635146244       22.9420184067      -11.8033501828  MEMB      27              0.0000000000
     42192      1287  PPPE      H3Y            16.9366651714       21.4022842976      -11.3090499605  MEMB      27              0.0000000000
     42193      1287  PPPE      C34            17.3328656433       22.8271079508       -9.6768150012  MEMB      27              0.0000000000
     42194      1287  PPPE      H4X            16.8938856963       23.8140142768       -9.4167505671  MEMB      27              0.0000000000
     42195      1287  PPPE      H4Y            18.4133921060       23.0332605676       -9.5209796329  MEMB      27              0.0000000000
     42196      1287  PPPE      C35            16.9934001510       21.6651325621       -8.7147364267  MEMB      27              0.0000000000
     42197      1287  PPPE      H5X            17.6145125999       20.7544791377       -8.8534831978  MEMB      27              0.0000000000
     42198      1287  PPPE      H5Y            15.9696116169       21.3098925168       -8.9596497739  MEMB      27              0.0000000000
     42199      1287  PPPE      C36            16.9471747888       22.0217192125       -7.1900185069  MEMB      27              0.0000000000
     42200      1287  PPPE      H6X            16.4026040107       21.2075971199       -6.6656437497  MEMB      27              0.0000000000
     42201      1287  PPPE      H6Y            16.2634330864       22.8644826373       -6.9521780263  MEMB      27              0.0000000000
     42202      1287  PPPE      C37            18.3698333948       22.1737485852       -6.6464599550  MEMB      27              0.0000000000
     42203      1287  PPPE      H7X            18.8976796123       23.0736389009       -7.0284243386  MEMB      27              0.0000000000
     42204      1287  PPPE      H7Y            18.9109888744       21.3398007809       -7.1424466552  MEMB      27              0.0000000000
     42205      1287  PPPE      C38            18.3763312918       21.9431251821       -5.1294649527  MEMB      27              0.0000000000
     42206      1287  PPPE      H8X            17.9476422531       22.8303477931       -4.6162566650  MEMB      27              0.0000000000
     42207      1287  PPPE      H8Y            19.4614737823       22.0547654157       -4.9189341145  MEMB      27              0.0000000000
     42208      1287  PPPE      C39            17.7354789912       20.6633190483       -4.6808048787  MEMB      27              0.0000000000
     42209      1287  PPPE      H9X            17.7675751228       19.8641170985       -5.4518866393  MEMB      27              0.0000000000
     42210      1287  PPPE      H9Y            16.6297982900       20.7197997522       -4.5880626716  MEMB      27              0.0000000000
     42211      1287  PPPE      C310           18.4258106640       20.1830735166       -3.3360742353  MEMB      27              0.0000000000
     42212      1287  PPPE      H10X           18.7842839803       21.0833522823       -2.7926443635  MEMB      27              0.0000000000
     42213      1287  PPPE      H10Y           19.2469153498       19.4884696152       -3.6147021507  MEMB      27              0.0000000000
     42214      1287  PPPE      C311           17.2688634303       19.5451597284       -2.4305421161  MEMB      27              0.0000000000
     42215      1287  PPPE      H11X           16.4610149107       20.2862683401       -2.2503760952  MEMB      27              0.0000000000
     42216      1287  PPPE      H11Y           17.7881389650       19.3290571435       -1.4724327320  MEMB      27              0.0000000000
     42217      1287  PPPE      C312           16.5124319045       18.3363487159       -2.9173666227  MEMB      27              0.0000000000
     42218      1287  PPPE      H12X           17.1879400525       17.8112569103       -3.6260896557  MEMB      27              0.0000000000
     42219      1287  PPPE      H12Y           15.7516222534       18.7894153997       -3.5883511640  MEMB      27              0.0000000000
     42220      1287  PPPE      C313           15.9616626726       17.2916994075       -1.8768548574  MEMB      27              0.0000000000
     42221      1287  PPPE      H13X           16.8298502185       16.8830575856       -1.3168698160  MEMB      27              0.0000000000
     42222      1287  PPPE      H13Y           15.4380677294       16.4913315868       -2.4421695370  MEMB      27              0.0000000000
     42223      1287  PPPE      C314           14.9605844361       17.9755484476       -0.9181701621  MEMB      27              0.0000000000
     42224      1287  PPPE      H14X           14.2394515550       18.5652871121       -1.5235598509  MEMB      27              0.0000000000
     42225      1287  PPPE      H14Y           15.4510637349       18.7498300289       -0.2902855466  MEMB      27              0.0000000000
     42226      1287  PPPE      C315           14.2229368582       17.0789839314        0.0844249542  MEMB      27              0.0000000000
     42227      1287  PPPE      H15X           14.9240425695       16.6116294744        0.8085462100  MEMB      27              0.0000000000
     42228      1287  PPPE      H15Y           13.8366888434       16.2014089135       -0.4768196973  MEMB      27              0.0000000000
     42229      1287  PPPE      C316           13.1854074225       17.7592240055        0.9098667356  MEMB      27              0.0000000000
     42230      1287  PPPE      H16X           13.6192110115       18.6904786298        1.3328327756  MEMB      27              0.0000000000
     42231      1287  PPPE      H16Y           12.3270323583       18.0126266898        0.2516112162  MEMB      27              0.0000000000
     42232      1287  PPPE      H16Z           12.8023857650       17.1214485109        1.7350078316  MEMB      27              0.0000000000
     42233      1288  PPPE      N             -21.9807494366      -12.6568370285      -21.6618661682  MEMB      28              0.0000000000
     42234      1288  PPPE      HN1           -22.4939089541      -12.3209504348      -22.5017753930  MEMB      28              0.0000000000
     42235      1288  PPPE      HN2           -21.2496081694      -13.3627256270      -21.8826686453  MEMB      28              0.0000000000
     42236      1288  PPPE      HN3           -22.4888757502      -13.0758638341      -20.8569909073  MEMB      28              0.0000000000
     42237      1288  PPPE      C12           -21.2406646539      -11.3860808840      -21.1923871858  MEMB      28              0.0000000000
     42238      1288  PPPE      H12A          -21.0896460005      -10.8318213031      -22.1433396995  MEMB      28              0.0000000000
     42239      1288  PPPE      H12B          -20.2474640123      -11.6333480131      -20.7602616806  MEMB      28              0.0000000000
     42240      1288  PPPE      C11           -21.9908089434      -10.5156266068      -20.2182702485  MEMB      28              0.0000000000
     42241      1288  PPPE      H11A          -22.9940471402      -10.2990412223      -20.6436229160  MEMB      28              0.0000000000
     42242      1288  PPPE      H11B          -21.3840028262       -9.5980699852      -20.0627158139  MEMB      28              0.0000000000
     42243      1288  PPPE      P             -21.0924652909      -11.0841728656      -17.8000438207  MEMB      28              0.0000000000
     42244      1288  PPPE      O13           -20.1224467179      -12.1677442767      -17.8046322389  MEMB      28              0.0000000000
     42245      1288  PPPE      O14           -20.5544386701       -9.7181328784      -17.8218161706  MEMB      28              0.0000000000
     42246      1288  PPPE      O11           -21.9572256940      -11.4258627116      -16.5160014256  MEMB      28              0.0000000000
     42247      1288  PPPE      O12           -22.1593189893      -11.1820011483      -18.9849825775  MEMB      28              0.0000000000
     42248      1288  PPPE      C1            -23.1094267075      -10.5732619127      -16.3554648203  MEMB      28              0.0000000000
     42249      1288  PPPE      HA            -23.9253289195      -11.2431976667      -16.0093280468  MEMB      28              0.0000000000
     42250      1288  PPPE      HB            -23.5084092279      -10.0115899297      -17.2270487417  MEMB      28              0.0000000000
     42251      1288  PPPE      C2            -22.8598177008       -9.4949398617      -15.2386509955  MEMB      28              0.0000000000
     42252      1288  PPPE      HS            -22.1957351443       -8.7616403436      -15.7442072980  MEMB      28              0.0000000000
     42253      1288  PPPE      O21           -22.3345784050      -10.1844017368      -14.1463215495  MEMB      28              0.0000000000
     42254      1288  PPPE      C21           -21.0193434000      -10.3563608582      -13.9300262094  MEMB      28              0.0000000000
     42255      1288  PPPE      O22           -20.1398066599      -10.0028020033      -14.6922520824  MEMB      28              0.0000000000
     42256      1288  PPPE      C22           -20.9451808208      -11.1571489436      -12.5884555535  MEMB      28              0.0000000000
     42257      1288  PPPE      H2R           -21.6685809930      -11.9856121363      -12.7454967248  MEMB      28              0.0000000000
     42258      1288  PPPE      H2S           -21.2485818588      -10.5234945626      -11.7277866650  MEMB      28              0.0000000000
     42259      1288  PPPE      C3            -24.1219623044       -8.8342164209      -14.7611884161  MEMB      28              0.0000000000
     42260      1288  PPPE      HX            -23.8417768918       -8.1450207287      -13.9360663449  MEMB      28              0.0000000000
     42261      1288  PPPE      HY            -24.6589790001       -8.3013343063      -15.5748042472  MEMB      28              0.0000000000
     42262      1288  PPPE      O31           -25.1084003908       -9.7941694435      -14.2948256168  MEMB      28              0.0000000000
     42263      1288  PPPE      C31           -25.9055085091       -9.4666023446      -13.3327232013  MEMB      28              0.0000000000
     42264      1288  PPPE      O32           -25.9900804267       -8.4364584630      -12.7328326025  MEMB      28              0.0000000000
     42265      1288  PPPE      C32           -26.7028623847      -10.6764307534      -12.8217088710  MEMB      28              0.0000000000
     42266      1288  PPPE      H2X           -27.7014321203      -10.7756341451      -13.2985087977  MEMB      28              0.0000000000
     42267      1288  PPPE      H2Y           -26.9466600213      -10.5633966717      -11.7436981991  MEMB      28              0.0000000000
     42268      1288  PPPE      C23           -19.4839647679      -11.6394396937      -12.2616954508  MEMB      28              0.0000000000
     42269      1288  PPPE      H3R           -18.7750573819      -10.8015015637      -12.4338320488  MEMB      28              0.0000000000
     42270      1288  PPPE      H3S           -19.3027417731      -12.3677247662      -13.0808902259  MEMB      28              0.0000000000
     42271      1288  PPPE      C24           -19.2826572496      -12.1684376168      -10.8032143220  MEMB      28              0.0000000000
     42272      1288  PPPE      H4R           -19.4185839111      -11.2115133845      -10.2553631046  MEMB      28              0.0000000000
     42273      1288  PPPE      H4S           -18.1924067523      -12.3735745429      -10.7432668873  MEMB      28              0.0000000000
     42274      1288  PPPE      C25           -20.1496711278      -13.3314833318      -10.3412733175  MEMB      28              0.0000000000
     42275      1288  PPPE      H5R           -19.9543899055      -14.3562266436      -10.7234871179  MEMB      28              0.0000000000
     42276      1288  PPPE      H5S           -21.1966916993      -13.1396754473      -10.6595163981  MEMB      28              0.0000000000
     42277      1288  PPPE      C26           -20.2003024702      -13.3945227303       -8.7977433862  MEMB      28              0.0000000000
     42278      1288  PPPE      H6R           -20.3513466925      -12.3625246613       -8.4150076698  MEMB      28              0.0000000000
     42279      1288  PPPE      H6S           -19.2755134554      -13.7918775726       -8.3274292280  MEMB      28              0.0000000000
     42280      1288  PPPE      C27           -21.4473730996      -14.0130542972       -8.2135596155  MEMB      28              0.0000000000
     42281      1288  PPPE      H7R           -21.7151082995      -15.0150570103       -8.6118427127  MEMB      28              0.0000000000
     42282      1288  PPPE      H7S           -22.2868591728      -13.3314173103       -8.4684226204  MEMB      28              0.0000000000
     42283      1288  PPPE      C28           -21.2903397799      -14.2074752251       -6.6268719775  MEMB      28              0.0000000000
     42284      1288  PPPE      H8R           -21.1692378113      -13.2146808029       -6.1431214752  MEMB      28              0.0000000000
     42285      1288  PPPE      H8S           -20.3245607814      -14.7561777245       -6.6496204582  MEMB      28              0.0000000000
     42286      1288  PPPE      C29           -22.3237216365      -15.0506812305       -5.9350760108  MEMB      28              0.0000000000
     42287      1288  PPPE      H91           -22.9920942081      -15.5923069538       -6.6205828899  MEMB      28              0.0000000000
     42288      1288  PPPE      C210          -22.5971908937      -15.0139850417       -4.5991552252  MEMB      28              0.0000000000
     42289      1288  PPPE      H101          -23.3932532812      -15.6543164998       -4.1914049353  MEMB      28              0.0000000000
     42290      1288  PPPE      C211          -21.8744076534      -14.1549374789       -3.5794205793  MEMB      28              0.0000000000
     42291      1288  PPPE      H11R          -21.0016795600      -13.6333932434       -4.0273695555  MEMB      28              0.0000000000
     42292      1288  PPPE      H11S          -21.4670831039      -14.6806324320       -2.6894472495  MEMB      28              0.0000000000
     42293      1288  PPPE      C212          -22.9400707540      -13.1173057974       -3.0498099929  MEMB      28              0.0000000000
     42294      1288  PPPE      H12R          -23.3611426900      -12.5468240311       -3.9051286348  MEMB      28              0.0000000000
     42295      1288  PPPE      H12S          -22.4725545928      -12.3173209727       -2.4368059805  MEMB      28              0.0000000000
     42296      1288  PPPE      C213          -23.9878998457      -13.7576881633       -2.2180596773  MEMB      28              0.0000000000
     42297      1288  PPPE      H13R          -24.6487748654      -14.4365218583       -2.7983613426  MEMB      28              0.0000000000
     42298      1288  PPPE      H13S          -24.6912780077      -12.9235308224       -2.0088667237  MEMB      28              0.0000000000
     42299      1288  PPPE      C214          -23.5311815198      -14.4408531526       -0.9672915554  MEMB      28              0.0000000000
     42300      1288  PPPE      H14R          -22.8528705703      -13.8149809079       -0.3488263671  MEMB      28              0.0000000000
     42301      1288  PPPE      H14S          -23.0245419359      -15.3725069352       -1.2984388964  MEMB      28              0.0000000000
     42302      1288  PPPE      C215          -24.6883691012      -14.7095120447        0.0310931024  MEMB      28              0.0000000000
     42303      1288  PPPE      H15R          -25.0671944160      -13.6893087803        0.2546947120  MEMB      28              0.0000000000
     42304      1288  PPPE      H15S          -24.2451203881      -15.1841364422        0.9325271043  MEMB      28              0.0000000000
     42305      1288  PPPE      C216          -25.7456111870      -15.5418255537       -0.6306655618  MEMB      28              0.0000000000
     42306      1288  PPPE      H16R          -26.2622682019      -15.0350443506       -1.4736123816  MEMB      28              0.0000000000
     42307      1288  PPPE      H16S          -25.3401992982      -16.5380495183       -0.9090538032  MEMB      28              0.0000000000
     42308      1288  PPPE      H16T          -26.5397490779      -15.6460072899        0.1392774076  MEMB      28              0.0000000000
     42309      1288  PPPE      C33           -25.8779551278      -12.0424406909      -12.9557842665  MEMB      28              0.0000000000
     42310      1288  PPPE      H3X           -24.8392270609      -11.9142952924      -12.5830326603  MEMB      28              0.0000000000
     42311      1288  PPPE      H3Y           -25.8867127308      -12.4131634610      -14.0030707278  MEMB      28              0.0000000000
     42312      1288  PPPE      C34           -26.5415740796      -13.1608583750      -12.1024683787  MEMB      28              0.0000000000
     42313      1288  PPPE      H4X           -25.7730802738      -13.9512917785      -12.2401393816  MEMB      28              0.0000000000
     42314      1288  PPPE      H4Y           -27.5197360940      -13.3461127114      -12.5956224160  MEMB      28              0.0000000000
     42315      1288  PPPE      C35           -26.7705512870      -12.8509476577      -10.5872587786  MEMB      28              0.0000000000
     42316      1288  PPPE      H5X           -27.2426732338      -13.6631670373       -9.9941976125  MEMB      28              0.0000000000
     42317      1288  PPPE      H5Y           -27.5916419911      -12.1025543380      -10.5934631806  MEMB      28              0.0000000000
     42318      1288  PPPE      C36           -25.5744911895      -12.3391857725       -9.8433729523  MEMB      28              0.0000000000
     42319      1288  PPPE      H6X           -25.1291003818      -11.4164320727      -10.2728768963  MEMB      28              0.0000000000
     42320      1288  PPPE      H6Y           -24.8283424780      -13.1580992520       -9.9268224190  MEMB      28              0.0000000000
     42321      1288  PPPE      C37           -25.8196345241      -12.1509723538       -8.3809786307  MEMB      28              0.0000000000
     42322      1288  PPPE      H7X           -24.8865225040      -11.9663828907       -7.8069144460  MEMB      28              0.0000000000
     42323      1288  PPPE      H7Y           -26.3185361185      -12.9716905707       -7.8225524424  MEMB      28              0.0000000000
     42324      1288  PPPE      C38           -26.8485002317      -10.9185695400       -8.1636924148  MEMB      28              0.0000000000
     42325      1288  PPPE      H8X           -27.7509979755      -11.0252796488       -8.8027790876  MEMB      28              0.0000000000
     42326      1288  PPPE      H8Y           -26.3193563055       -9.9612124584       -8.3581020944  MEMB      28              0.0000000000
     42327      1288  PPPE      C39           -27.2813658509      -10.8370044589       -6.7161273178  MEMB      28              0.0000000000
     42328      1288  PPPE      H9X           -27.6956157347      -11.8374724174       -6.4675676715  MEMB      28              0.0000000000
     42329      1288  PPPE      H9Y           -28.0055698879      -10.0268753856       -6.4847393373  MEMB      28              0.0000000000
     42330      1288  PPPE      C310          -26.0493691891      -10.6028687745       -5.7746653359  MEMB      28              0.0000000000
     42331      1288  PPPE      H10X          -25.2622657314      -11.3664207821       -5.9529277226  MEMB      28              0.0000000000
     42332      1288  PPPE      H10Y          -26.3229257264      -10.6173115627       -4.6979670370  MEMB      28              0.0000000000
     42333      1288  PPPE      C311          -25.3259149959       -9.2002943205       -5.8400938261  MEMB      28              0.0000000000
     42334      1288  PPPE      H11X          -25.9838823418       -8.3604899432       -5.5300477335  MEMB      28              0.0000000000
     42335      1288  PPPE      H11Y          -24.9376936203       -9.0858944397       -6.8747521421  MEMB      28              0.0000000000
     42336      1288  PPPE      C312          -24.1033509544       -8.9850264192       -4.8921112184  MEMB      28              0.0000000000
     42337      1288  PPPE      H12X          -23.5476062793       -8.0285270697       -4.9949598963  MEMB      28              0.0000000000
     42338      1288  PPPE      H12Y          -23.4578665905       -9.8524124163       -5.1476742596  MEMB      28              0.0000000000
     42339      1288  PPPE      C313          -24.2849677679       -9.1408102825       -3.3942409863  MEMB      28              0.0000000000
     42340      1288  PPPE      H13X          -24.8039028063      -10.0553504451       -3.0355716164  MEMB      28              0.0000000000
     42341      1288  PPPE      H13Y          -24.9083877959       -8.2795058355       -3.0720250367  MEMB      28              0.0000000000
     42342      1288  PPPE      C314          -22.9305925844       -9.0703956676       -2.5913093559  MEMB      28              0.0000000000
     42343      1288  PPPE      H14X          -22.3768282095       -8.1586758598       -2.9018460028  MEMB      28              0.0000000000
     42344      1288  PPPE      H14Y          -22.2939312392       -9.9363365573       -2.8726093863  MEMB      28              0.0000000000
     42345      1288  PPPE      C315          -23.0707890289       -9.0510537356       -1.0499854889  MEMB      28              0.0000000000
     42346      1288  PPPE      H15X          -23.9648455815       -9.6100761984       -0.7000172520  MEMB      28              0.0000000000
     42347      1288  PPPE      H15Y          -23.3634799884       -8.0323520051       -0.7169692932  MEMB      28              0.0000000000
     42348      1288  PPPE      C316          -21.8516157219       -9.4579226801       -0.2488312878  MEMB      28              0.0000000000
     42349      1288  PPPE      H16X          -21.4993047985      -10.4412983465       -0.6272098179  MEMB      28              0.0000000000
     42350      1288  PPPE      H16Y          -20.9300099717       -8.8441812022       -0.3398545782  MEMB      28              0.0000000000
     42351      1288  PPPE      H16Z          -22.1633139266       -9.5663763016        0.8120188624  MEMB      28              0.0000000000
     42352      1289  PPPE      N              19.8702890576       16.5972416480      -19.8888772365  MEMB      29              0.0000000000
     42353      1289  PPPE      HN1            20.8251846943       16.9761269360      -19.7269505194  MEMB      29              0.0000000000
     42354      1289  PPPE      HN2            19.8917521893       15.7507879102      -20.4927442780  MEMB      29              0.0000000000
     42355      1289  PPPE      HN3            19.1848904839       17.3261485261      -20.1726439682  MEMB      29              0.0000000000
     42356      1289  PPPE      C12            19.2697209724       16.0420853525      -18.6765504858  MEMB      29              0.0000000000
     42357      1289  PPPE      H12A           18.3614338910       15.5209440701      -19.0476937755  MEMB      29              0.0000000000
     42358      1289  PPPE      H12B           19.0202272942       16.8595778236      -17.9667758989  MEMB      29              0.0000000000
     42359      1289  PPPE      C11            20.2739114964       15.0300966698      -17.9447521494  MEMB      29              0.0000000000
     42360      1289  PPPE      H11A           19.7388744064       14.6048668428      -17.0688321151  MEMB      29              0.0000000000
     42361      1289  PPPE      H11B           21.0963912206       15.5964727214      -17.4578576316  MEMB      29              0.0000000000
     42362      1289  PPPE      P              20.0525565585       12.7254976337      -19.1730779755  MEMB      29              0.0000000000
     42363      1289  PPPE      O13            18.6436614585       13.0731708919      -19.3146748427  MEMB      29              0.0000000000
     42364      1289  PPPE      O14            20.7481895491       12.1494207174      -20.3462809666  MEMB      29              0.0000000000
     42365      1289  PPPE      O11            20.2283233822       11.8474454819      -17.8877821044  MEMB      29              0.0000000000
     42366      1289  PPPE      O12            20.7953019421       14.0382496200      -18.7680042358  MEMB      29              0.0000000000
     42367      1289  PPPE      C1             21.5357928402       11.4527117154      -17.5183740709  MEMB      29              0.0000000000
     42368      1289  PPPE      HA             22.2795713038       12.2633297766      -17.6733352144  MEMB      29              0.0000000000
     42369      1289  PPPE      HB             21.7723613333       10.6355689840      -18.2329607378  MEMB      29              0.0000000000
     42370      1289  PPPE      C2             21.5423242818       11.0681631620      -16.0517353596  MEMB      29              0.0000000000
     42371      1289  PPPE      HS             20.9087975626       10.1592929314      -15.9685500233  MEMB      29              0.0000000000
     42372      1289  PPPE      O21            20.7628778999       12.0285042560      -15.2510255461  MEMB      29              0.0000000000
     42373      1289  PPPE      C21            20.2107249347       11.5286357469      -14.0860409896  MEMB      29              0.0000000000
     42374      1289  PPPE      O22            20.1806518952       10.4103518756      -13.7298447241  MEMB      29              0.0000000000
     42375      1289  PPPE      C22            19.6614880245       12.6462291896      -13.1495743790  MEMB      29              0.0000000000
     42376      1289  PPPE      H2R            18.5954166408       12.4432893097      -12.9116075534  MEMB      29              0.0000000000
     42377      1289  PPPE      H2S            19.8427263067       13.6552274826      -13.5778221227  MEMB      29              0.0000000000
     42378      1289  PPPE      C3             22.9882326930       10.9567859186      -15.4718660356  MEMB      29              0.0000000000
     42379      1289  PPPE      HX             22.9576128732       10.3361347779      -14.5509015476  MEMB      29              0.0000000000
     42380      1289  PPPE      HY             23.5514619937       10.4172730116      -16.2630800256  MEMB      29              0.0000000000
     42381      1289  PPPE      O31            23.4069137784       12.2960953333      -15.2939990537  MEMB      29              0.0000000000
     42382      1289  PPPE      C31            24.6070330082       12.4190299790      -14.7790507688  MEMB      29              0.0000000000
     42383      1289  PPPE      O32            25.3904301406       11.5063901432      -14.4738029386  MEMB      29              0.0000000000
     42384      1289  PPPE      C32            24.9676178780       13.8970816432      -14.7071038785  MEMB      29              0.0000000000
     42385      1289  PPPE      H2X            24.1260074209       14.4946359165      -15.1181290955  MEMB      29              0.0000000000
     42386      1289  PPPE      H2Y            25.8745374534       14.2566020056      -15.2386704245  MEMB      29              0.0000000000
     42387      1289  PPPE      C23            20.5998502695       12.6041295742      -11.8784368246  MEMB      29              0.0000000000
     42388      1289  PPPE      H3R            20.8256126429       13.5641405592      -11.3668400504  MEMB      29              0.0000000000
     42389      1289  PPPE      H3S            21.5808819946       12.1625207360      -12.1557081507  MEMB      29              0.0000000000
     42390      1289  PPPE      C24            20.0167061376       11.6950886039      -10.7775037988  MEMB      29              0.0000000000
     42391      1289  PPPE      H4R            19.9002928630       10.6648393956      -11.1766973836  MEMB      29              0.0000000000
     42392      1289  PPPE      H4S            19.0318055142       12.1809165486      -10.6093878557  MEMB      29              0.0000000000
     42393      1289  PPPE      C25            20.8010344390       11.7623562209       -9.4635129678  MEMB      29              0.0000000000
     42394      1289  PPPE      H5R            20.6660337691       12.7508421291       -8.9746454720  MEMB      29              0.0000000000
     42395      1289  PPPE      H5S            21.8646749605       11.6599380374       -9.7676516808  MEMB      29              0.0000000000
     42396      1289  PPPE      C26            20.4235256190       10.6278713443       -8.5569034831  MEMB      29              0.0000000000
     42397      1289  PPPE      H6R            20.5631861679        9.7229192170       -9.1860915141  MEMB      29              0.0000000000
     42398      1289  PPPE      H6S            19.3426082716       10.6814277929       -8.3057652844  MEMB      29              0.0000000000
     42399      1289  PPPE      C27            21.4063736630       10.4403876961       -7.3631398705  MEMB      29              0.0000000000
     42400      1289  PPPE      H7R            22.4763972826       10.5299119517       -7.6483693593  MEMB      29              0.0000000000
     42401      1289  PPPE      H7S            21.4286175169        9.4138027790       -6.9389351805  MEMB      29              0.0000000000
     42402      1289  PPPE      C28            21.2239750117       11.3823024588       -6.1617264217  MEMB      29              0.0000000000
     42403      1289  PPPE      H8R            21.5781111547       12.3920329572       -6.4606459979  MEMB      29              0.0000000000
     42404      1289  PPPE      H8S            22.0423590169       11.0889021159       -5.4700004220  MEMB      29              0.0000000000
     42405      1289  PPPE      C29            19.9910261407       11.2737314884       -5.4134100553  MEMB      29              0.0000000000
     42406      1289  PPPE      H91            19.7182475090       10.2497329851       -5.1184204229  MEMB      29              0.0000000000
     42407      1289  PPPE      C210           19.1935310622       12.3021758690       -5.0282207823  MEMB      29              0.0000000000
     42408      1289  PPPE      H101           18.1375495504       12.2539350420       -4.7239579529  MEMB      29              0.0000000000
     42409      1289  PPPE      C211           19.5845392080       13.7055199070       -5.3751174952  MEMB      29              0.0000000000
     42410      1289  PPPE      H11R           18.6786889564       14.3146535494       -5.1684474021  MEMB      29              0.0000000000
     42411      1289  PPPE      H11S           19.8656997021       13.9361412412       -6.4249191796  MEMB      29              0.0000000000
     42412      1289  PPPE      C212           20.7148439078       14.3356475376       -4.4984514847  MEMB      29              0.0000000000
     42413      1289  PPPE      H12R           20.9959080837       15.2984161816       -4.9763640993  MEMB      29              0.0000000000
     42414      1289  PPPE      H12S           21.5624039140       13.6186140622       -4.5411835697  MEMB      29              0.0000000000
     42415      1289  PPPE      C213           20.3787785430       14.5615597893       -3.0429350160  MEMB      29              0.0000000000
     42416      1289  PPPE      H13R           20.2137032659       13.5995377040       -2.5122895031  MEMB      29              0.0000000000
     42417      1289  PPPE      H13S           19.4862077460       15.2123894613       -2.9243638962  MEMB      29              0.0000000000
     42418      1289  PPPE      C214           21.4795920096       15.3055341199       -2.1309948862  MEMB      29              0.0000000000
     42419      1289  PPPE      H14R           21.8601062312       16.1245346302       -2.7781178198  MEMB      29              0.0000000000
     42420      1289  PPPE      H14S           22.2714061279       14.5879791210       -1.8269122893  MEMB      29              0.0000000000
     42421      1289  PPPE      C215           20.8617305453       15.8982179503       -0.9167778192  MEMB      29              0.0000000000
     42422      1289  PPPE      H15R           20.6777762436       15.1395773565       -0.1262423904  MEMB      29              0.0000000000
     42423      1289  PPPE      H15S           19.9255973784       16.4619062315       -1.1173550258  MEMB      29              0.0000000000
     42424      1289  PPPE      C216           21.7044249424       17.0129898993       -0.2252273622  MEMB      29              0.0000000000
     42425      1289  PPPE      H16R           22.1250196498       17.6414929795       -1.0391100136  MEMB      29              0.0000000000
     42426      1289  PPPE      H16S           21.0616805959       17.6277209456        0.4405852583  MEMB      29              0.0000000000
     42427      1289  PPPE      H16T           22.6118451782       16.5797309730        0.2472091080  MEMB      29              0.0000000000
     42428      1289  PPPE      C33            25.1218505974       14.2029753119      -13.2092239645  MEMB      29              0.0000000000
     42429      1289  PPPE      H3X            25.7061801771       15.1459442848      -13.1484830525  MEMB      29              0.0000000000
     42430      1289  PPPE      H3Y            25.6906110557       13.3818665489      -12.7227952026  MEMB      29              0.0000000000
     42431      1289  PPPE      C34            23.7208073423       14.4828238834      -12.5028688550  MEMB      29              0.0000000000
     42432      1289  PPPE      H4X            23.2556857249       13.4780593948      -12.5946904397  MEMB      29              0.0000000000
     42433      1289  PPPE      H4Y            23.0953299641       15.2209767859      -13.0489726381  MEMB      29              0.0000000000
     42434      1289  PPPE      C35            23.7538987191       14.9449120023      -11.0359577075  MEMB      29              0.0000000000
     42435      1289  PPPE      H5X            22.7506897475       15.0780883524      -10.5775290665  MEMB      29              0.0000000000
     42436      1289  PPPE      H5Y            24.3639246919       15.8734528702      -11.0348763756  MEMB      29              0.0000000000
     42437      1289  PPPE      C36            24.4383621010       13.9473781240      -10.0971501611  MEMB      29              0.0000000000
     42438      1289  PPPE      H6X            25.5339892544       13.9700038951      -10.2799347751  MEMB      29              0.0000000000
     42439      1289  PPPE      H6Y            24.1967373662       12.8759744688      -10.2645798330  MEMB      29              0.0000000000
     42440      1289  PPPE      C37            24.2306653554       14.3559074341       -8.6276847836  MEMB      29              0.0000000000
     42441      1289  PPPE      H7X            23.1465992320       14.3332468426       -8.3855936067  MEMB      29              0.0000000000
     42442      1289  PPPE      H7Y            24.5756923719       15.3814607410       -8.3756574589  MEMB      29              0.0000000000
     42443      1289  PPPE      C38            24.9268138711       13.4468260493       -7.5654604278  MEMB      29              0.0000000000
     42444      1289  PPPE      H8X            26.0229435586       13.5951094126       -7.4613799194  MEMB      29              0.0000000000
     42445      1289  PPPE      H8Y            24.6998380744       12.3801856658       -7.7777839543  MEMB      29              0.0000000000
     42446      1289  PPPE      C39            24.5265977548       13.8341121253       -6.1803106593  MEMB      29              0.0000000000
     42447      1289  PPPE      H9X            23.4938559302       13.5336601423       -5.9019333437  MEMB      29              0.0000000000
     42448      1289  PPPE      H9Y            24.6382098726       14.9389962480       -6.1472227391  MEMB      29              0.0000000000
     42449      1289  PPPE      C310           25.5092445897       13.3349267463       -5.1010020846  MEMB      29              0.0000000000
     42450      1289  PPPE      H10X           25.3563712455       13.9153421920       -4.1660856974  MEMB      29              0.0000000000
     42451      1289  PPPE      H10Y           26.5728968909       13.3911039955       -5.4169275485  MEMB      29              0.0000000000
     42452      1289  PPPE      C311           25.3854940103       11.8250639398       -4.7682076778  MEMB      29              0.0000000000
     42453      1289  PPPE      H11X           26.3746769402       11.4105128628       -4.4784050969  MEMB      29              0.0000000000
     42454      1289  PPPE      H11Y           25.2356464173       11.3014742324       -5.7365673823  MEMB      29              0.0000000000
     42455      1289  PPPE      C312           24.3762560321       11.5046042149       -3.7319563475  MEMB      29              0.0000000000
     42456      1289  PPPE      H12X           24.1825741603       10.4106341567       -3.7258045717  MEMB      29              0.0000000000
     42457      1289  PPPE      H12Y           23.4370553856       11.9950700388       -4.0661216079  MEMB      29              0.0000000000
     42458      1289  PPPE      C313           24.8019431931       11.8202470371       -2.2849786500  MEMB      29              0.0000000000
     42459      1289  PPPE      H13X           24.9536949678       12.9189739924       -2.2210139980  MEMB      29              0.0000000000
     42460      1289  PPPE      H13Y           25.6519947913       11.2478638220       -1.8558973812  MEMB      29              0.0000000000
     42461      1289  PPPE      C314           23.6943127465       11.4773559244       -1.2760153856  MEMB      29              0.0000000000
     42462      1289  PPPE      H14X           23.2310261622       10.4936018640       -1.5038628990  MEMB      29              0.0000000000
     42463      1289  PPPE      H14Y           22.9191195656       12.2409200825       -1.5004397799  MEMB      29              0.0000000000
     42464      1289  PPPE      C315           23.9933370900       11.4934057349        0.2320254603  MEMB      29              0.0000000000
     42465      1289  PPPE      H15X           24.8009948740       10.7933374662        0.5351992111  MEMB      29              0.0000000000
     42466      1289  PPPE      H15Y           23.0237280323       11.1331131352        0.6374493347  MEMB      29              0.0000000000
     42467      1289  PPPE      C316           24.4841788649       12.9072200438        0.6413560617  MEMB      29              0.0000000000
     42468      1289  PPPE      H16X           24.1672937858       13.0670750656        1.6941386692  MEMB      29              0.0000000000
     42469      1289  PPPE      H16Y           25.5732450041       13.0329837911        0.4612465828  MEMB      29              0.0000000000
     42470      1289  PPPE      H16Z           24.0359482947       13.6428510134       -0.0602545372  MEMB      29              0.0000000000
     42471      1290  PVPG      C13             8.8155644329      -23.7870304565      -21.0320441463  MEMB      30              0.0000000000
     42472      1290  PVPG      H13A            8.9238760261      -22.9823375663      -21.7903705961  MEMB      30              0.0000000000
     42473      1290  PVPG      H13B            9.5342250271      -23.5680765550      -20.2135658305  MEMB      30              0.0000000000
     42474      1290  PVPG      OC3             9.2115012393      -25.0889970785      -21.5066838139  MEMB      30              0.0000000000
     42475      1290  PVPG      HO3             8.5907511809      -25.6519100975      -21.0382841266  MEMB      30              0.0000000000
     42476      1290  PVPG      C12             7.3969666153      -23.7394745544      -20.4799611040  MEMB      30              0.0000000000
     42477      1290  PVPG      H12A            6.7116616878      -24.0565830405      -21.3000698799  MEMB      30              0.0000000000
     42478      1290  PVPG      OC2             7.0562243415      -22.4017122706      -20.1134537169  MEMB      30              0.0000000000
     42479      1290  PVPG      HO2             6.1949534686      -22.5110282971      -19.6541288536  MEMB      30              0.0000000000
     42480      1290  PVPG      C11             7.1641143024      -24.6981946700      -19.2731631199  MEMB      30              0.0000000000
     42481      1290  PVPG      H11A            7.8580542505      -24.4208257702      -18.4510714121  MEMB      30              0.0000000000
     42482      1290  PVPG      H11B            7.4493101587      -25.7335905986      -19.5576619508  MEMB      30              0.0000000000
     42483      1290  PVPG      P               5.4039624309      -24.7766890990      -17.4008493579  MEMB      30              0.0000000000
     42484      1290  PVPG      O13             3.9280765715      -24.5714040021      -17.3610119420  MEMB      30              0.0000000000
     42485      1290  PVPG      O14             6.2536063981      -23.7828978193      -16.7168519190  MEMB      30              0.0000000000
     42486      1290  PVPG      O12             5.7707972546      -24.6653113014      -18.9359627808  MEMB      30              0.0000000000
     42487      1290  PVPG      O11             5.7406698313      -26.2675907363      -17.1800180995  MEMB      30              0.0000000000
     42488      1290  PVPG      C1              4.8907052489      -27.3614842592      -17.0721542078  MEMB      30              0.0000000000
     42489      1290  PVPG      HA              5.4182193167      -28.1804058648      -17.6063988384  MEMB      30              0.0000000000
     42490      1290  PVPG      HB              3.9277886691      -27.2386835128      -17.6125547182  MEMB      30              0.0000000000
     42491      1290  PVPG      C2              4.7404694394      -27.7161934002      -15.6068885139  MEMB      30              0.0000000000
     42492      1290  PVPG      HS              4.0818317597      -28.6106772494      -15.5864867071  MEMB      30              0.0000000000
     42493      1290  PVPG      O21             4.1137349194      -26.6386153891      -14.8997374256  MEMB      30              0.0000000000
     42494      1290  PVPG      C21             3.5861005332      -26.8744589726      -13.7822558693  MEMB      30              0.0000000000
     42495      1290  PVPG      O22             3.4586734127      -27.9057747271      -13.1717107538  MEMB      30              0.0000000000
     42496      1290  PVPG      C22             3.0344595644      -25.5326233900      -13.1983247976  MEMB      30              0.0000000000
     42497      1290  PVPG      H2R             2.0843739099      -25.2928834934      -13.7219497053  MEMB      30              0.0000000000
     42498      1290  PVPG      H2S             3.8048986215      -24.7450351997      -13.3413274214  MEMB      30              0.0000000000
     42499      1290  PVPG      C3              6.0030350500      -28.1608038934      -14.8728796835  MEMB      30              0.0000000000
     42500      1290  PVPG      HX              5.8171186559      -28.7214007541      -13.9318762659  MEMB      30              0.0000000000
     42501      1290  PVPG      HY              6.5987185934      -28.7296321808      -15.6184777326  MEMB      30              0.0000000000
     42502      1290  PVPG      O31             6.7574695746      -26.9802023597      -14.5158323453  MEMB      30              0.0000000000
     42503      1290  PVPG      C31             8.0057836923      -27.1312796449      -14.0142450552  MEMB      30              0.0000000000
     42504      1290  PVPG      O32             8.5649945866      -28.2307305743      -13.9088587813  MEMB      30              0.0000000000
     42505      1290  PVPG      C32             8.6001082272      -25.7986020167      -13.6481177808  MEMB      30              0.0000000000
     42506      1290  PVPG      H2X             8.1161953111      -24.9849563912      -14.2296075646  MEMB      30              0.0000000000
     42507      1290  PVPG      H2Y             9.6462822174      -25.7176713029      -14.0132086717  MEMB      30              0.0000000000
     42508      1290  PVPG      C23             2.6722519336      -25.7875868764      -11.7628406498  MEMB      30              0.0000000000
     42509      1290  PVPG      H3R             3.5403821002      -26.1139627950      -11.1511628517  MEMB      30              0.0000000000
     42510      1290  PVPG      H3S             1.9490440490      -26.6302942015      -11.7291369156  MEMB      30              0.0000000000
     42511      1290  PVPG      C24             2.0520994619      -24.6124835497      -10.9410598187  MEMB      30              0.0000000000
     42512      1290  PVPG      H4R             1.3400564762      -25.0871583549      -10.2325404286  MEMB      30              0.0000000000
     42513      1290  PVPG      H4S             1.5940183865      -23.8575905344      -11.6153142925  MEMB      30              0.0000000000
     42514      1290  PVPG      C25             3.0946417303      -23.8875647902      -10.0544525478  MEMB      30              0.0000000000
     42515      1290  PVPG      H5R             3.8489673266      -23.5217184271      -10.7834728902  MEMB      30              0.0000000000
     42516      1290  PVPG      H5S             3.6362441117      -24.6249531572       -9.4241776714  MEMB      30              0.0000000000
     42517      1290  PVPG      C26             2.6238351175      -22.7376999609       -9.1017143795  MEMB      30              0.0000000000
     42518      1290  PVPG      H6R             1.9195973095      -23.2182996066       -8.3893984018  MEMB      30              0.0000000000
     42519      1290  PVPG      H6S             1.9465845403      -22.1062318258       -9.7156366020  MEMB      30              0.0000000000
     42520      1290  PVPG      C27             3.7248528296      -21.8187043661       -8.5110352611  MEMB      30              0.0000000000
     42521      1290  PVPG      H7R             3.3173145892      -20.7865400565       -8.4574587502  MEMB      30              0.0000000000
     42522      1290  PVPG      H7S             4.6084404665      -21.8151849371       -9.1845200731  MEMB      30              0.0000000000
     42523      1290  PVPG      C28             4.3541159945      -22.3138582381       -7.1867668509  MEMB      30              0.0000000000
     42524      1290  PVPG      H8R             4.7124060884      -23.3534516867       -7.3454946572  MEMB      30              0.0000000000
     42525      1290  PVPG      H8S             3.4307553345      -22.3998454026       -6.5749396665  MEMB      30              0.0000000000
     42526      1290  PVPG      C29             5.3730638180      -21.3709764141       -6.5171258115  MEMB      30              0.0000000000
     42527      1290  PVPG      H9R             6.3048997257      -21.4064056360       -7.1210684260  MEMB      30              0.0000000000
     42528      1290  PVPG      H9S             5.6939812517      -21.7826556237       -5.5363846029  MEMB      30              0.0000000000
     42529      1290  PVPG      C210            5.0022642655      -19.9075326352       -6.3158148539  MEMB      30              0.0000000000
     42530      1290  PVPG      H10R            4.7745173676      -19.4465688425       -7.3006824150  MEMB      30              0.0000000000
     42531      1290  PVPG      H10S            5.8320279891      -19.2742340090       -5.9353605550  MEMB      30              0.0000000000
     42532      1290  PVPG      C211            3.7808095378      -19.7812929965       -5.5278102386  MEMB      30              0.0000000000
     42533      1290  PVPG      H111            2.8650981376      -20.0601003696       -6.0697874785  MEMB      30              0.0000000000
     42534      1290  PVPG      C212            3.7618014337      -19.4064254581       -4.1870365156  MEMB      30              0.0000000000
     42535      1290  PVPG      H121            2.8050111811      -19.4081495056       -3.6443117761  MEMB      30              0.0000000000
     42536      1290  PVPG      C213            4.9633911626      -19.1250240711       -3.3715270640  MEMB      30              0.0000000000
     42537      1290  PVPG      H13R            5.1332180051      -18.0296884987       -3.4471561942  MEMB      30              0.0000000000
     42538      1290  PVPG      H13S            5.9353836634      -19.5567431029       -3.6927292972  MEMB      30              0.0000000000
     42539      1290  PVPG      C214            4.8374672102      -19.4774959188       -1.8345046685  MEMB      30              0.0000000000
     42540      1290  PVPG      H14R            3.8302711716      -19.3084600180       -1.3971207747  MEMB      30              0.0000000000
     42541      1290  PVPG      H14S            5.5465023588      -18.7713846842       -1.3518077058  MEMB      30              0.0000000000
     42542      1290  PVPG      C215            5.3571331152      -20.8442914740       -1.4642392841  MEMB      30              0.0000000000
     42543      1290  PVPG      H15R            5.6630645522      -20.7376458587       -0.4015279812  MEMB      30              0.0000000000
     42544      1290  PVPG      H15S            6.2853925882      -21.0622720907       -2.0344487429  MEMB      30              0.0000000000
     42545      1290  PVPG      C216            4.3638463040      -21.9803994441       -1.7218249235  MEMB      30              0.0000000000
     42546      1290  PVPG      H16R            4.9304219018      -22.8790210259       -1.3965674128  MEMB      30              0.0000000000
     42547      1290  PVPG      H16S            4.1324564161      -22.2747872899       -2.7678245809  MEMB      30              0.0000000000
     42548      1290  PVPG      C217            3.1573875245      -21.8571468015       -0.8025596888  MEMB      30              0.0000000000
     42549      1290  PVPG      H17R            2.5232674274      -20.9483709311       -0.8821779765  MEMB      30              0.0000000000
     42550      1290  PVPG      H17S            3.5209353588      -21.7558782721        0.2423797975  MEMB      30              0.0000000000
     42551      1290  PVPG      C218            2.1519836565      -23.0197926569       -1.0716358482  MEMB      30              0.0000000000
     42552      1290  PVPG      H18R            2.5016970584      -24.0581286618       -1.2557037003  MEMB      30              0.0000000000
     42553      1290  PVPG      H18S            1.4862336772      -23.1259044197       -0.1885521598  MEMB      30              0.0000000000
     42554      1290  PVPG      H18T            1.4871282419      -22.7689468901       -1.9256649577  MEMB      30              0.0000000000
     42555      1290  PVPG      C33             8.3471877626      -25.6327622244      -12.1410177306  MEMB      30              0.0000000000
     42556      1290  PVPG      H3X             8.8379579600      -24.6935760579      -11.8072588359  MEMB      30              0.0000000000
     42557      1290  PVPG      H3Y             8.8456593788      -26.4494608203      -11.5763492328  MEMB      30              0.0000000000
     42558      1290  PVPG      C34             6.8643298783      -25.3622850729      -11.6328517993  MEMB      30              0.0000000000
     42559      1290  PVPG      H4X             6.2191812205      -26.2352370379      -11.8696196093  MEMB      30              0.0000000000
     42560      1290  PVPG      H4Y             6.3292160138      -24.5517979214      -12.1723748121  MEMB      30              0.0000000000
     42561      1290  PVPG      C35             6.7744065276      -25.0894172095      -10.1128374998  MEMB      30              0.0000000000
     42562      1290  PVPG      H5X             5.7741022604      -24.7563723547       -9.7624186531  MEMB      30              0.0000000000
     42563      1290  PVPG      H5Y             7.3973925234      -24.2299803954       -9.7848465241  MEMB      30              0.0000000000
     42564      1290  PVPG      C36             7.4304712852      -26.2423507255       -9.2868950556  MEMB      30              0.0000000000
     42565      1290  PVPG      H6X             8.4109454077      -26.6162759234       -9.6518227787  MEMB      30              0.0000000000
     42566      1290  PVPG      H6Y             6.7808817396      -27.1419240198       -9.3427723950  MEMB      30              0.0000000000
     42567      1290  PVPG      C37             7.3557399292      -25.9732064304       -7.7663816997  MEMB      30              0.0000000000
     42568      1290  PVPG      H7X             6.2877167805      -25.9567640831       -7.4608065408  MEMB      30              0.0000000000
     42569      1290  PVPG      H7Y             7.8020002531      -24.9692165620       -7.6015281984  MEMB      30              0.0000000000
     42570      1290  PVPG      C38             8.1180890619      -26.9627922779       -6.8773333603  MEMB      30              0.0000000000
     42571      1290  PVPG      H8X             9.2011457442      -27.0991676449       -7.0840002570  MEMB      30              0.0000000000
     42572      1290  PVPG      H8Y             7.6594341059      -27.9635536066       -7.0271112331  MEMB      30              0.0000000000
     42573      1290  PVPG      C39             8.0859594940      -26.4994078793       -5.4051353133  MEMB      30              0.0000000000
     42574      1290  PVPG      H9X             8.7093920579      -25.5824484502       -5.4746918558  MEMB      30              0.0000000000
     42575      1290  PVPG      H9Y             8.5684194970      -27.3192031583       -4.8311230892  MEMB      30              0.0000000000
     42576      1290  PVPG      C310            6.6332245747      -26.4078580030       -4.9222782733  MEMB      30              0.0000000000
     42577      1290  PVPG      H10X            6.0795334744      -27.2638594559       -5.3638766885  MEMB      30              0.0000000000
     42578      1290  PVPG      H10Y            6.1614696596      -25.4452460483       -5.2140772463  MEMB      30              0.0000000000
     42579      1290  PVPG      C311            6.4612436103      -26.5719832627       -3.4067575714  MEMB      30              0.0000000000
     42580      1290  PVPG      H11X            6.7794664293      -27.5453172699       -2.9758551527  MEMB      30              0.0000000000
     42581      1290  PVPG      H11Y            5.3862471056      -26.5157724156       -3.1319043331  MEMB      30              0.0000000000
     42582      1290  PVPG      C312            7.3043667190      -25.4683306615       -2.6316090811  MEMB      30              0.0000000000
     42583      1290  PVPG      H12X            7.1535145459      -24.4704248098       -3.0960960463  MEMB      30              0.0000000000
     42584      1290  PVPG      H12Y            8.2804877891      -25.9612252043       -2.8279865418  MEMB      30              0.0000000000
     42585      1290  PVPG      C313            6.7745717250      -25.5256515469       -1.1717646211  MEMB      30              0.0000000000
     42586      1290  PVPG      H13X            6.6714210925      -26.6059825050       -0.9339293262  MEMB      30              0.0000000000
     42587      1290  PVPG      H13Y            5.7849834662      -25.0351689281       -1.0515054564  MEMB      30              0.0000000000
     42588      1290  PVPG      C314            7.7246219961      -25.0066123129       -0.1177592555  MEMB      30              0.0000000000
     42589      1290  PVPG      H14X            8.0332852695      -24.0152100599       -0.5129427133  MEMB      30              0.0000000000
     42590      1290  PVPG      H14Y            8.5689304654      -25.7280368117       -0.0859731036  MEMB      30              0.0000000000
     42591      1290  PVPG      C315            7.0656769975      -24.9208533969        1.2723462079  MEMB      30              0.0000000000
     42592      1290  PVPG      H15X            7.8423896268      -24.7712110791        2.0525026554  MEMB      30              0.0000000000
     42593      1290  PVPG      H15Y            6.5689023114      -25.8970147185        1.4584783008  MEMB      30              0.0000000000
     42594      1290  PVPG      C316            5.8960131709      -23.8793033109        1.4942653404  MEMB      30              0.0000000000
     42595      1290  PVPG      H16X            5.8067984411      -23.8946855519        2.6015698236  MEMB      30              0.0000000000
     42596      1290  PVPG      H16Y            6.0625685492      -22.8457939162        1.1221918321  MEMB      30              0.0000000000
     42597      1290  PVPG      H16Z            4.9113770597      -24.2238558833        1.1120397153  MEMB      30              0.0000000000
     42598      1291  PPPE      N              25.2746331563        2.6855254677      -20.8966993407  MEMB      31              0.0000000000
     42599      1291  PPPE      HN1            25.0300262348        2.9373129109      -19.9177353284  MEMB      31              0.0000000000
     42600      1291  PPPE      HN2            25.5073013418        3.4542199531      -21.5574370372  MEMB      31              0.0000000000
     42601      1291  PPPE      HN3            24.4515431605        2.1623467167      -21.2578182313  MEMB      31              0.0000000000
     42602      1291  PPPE      C12            26.3722405665        1.6102455573      -20.8459429374  MEMB      31              0.0000000000
     42603      1291  PPPE      H12A           27.2736512188        2.0025067975      -20.3283417826  MEMB      31              0.0000000000
     42604      1291  PPPE      H12B           26.7258399677        1.3335645964      -21.8621791842  MEMB      31              0.0000000000
     42605      1291  PPPE      C11            25.9246130404        0.3134467429      -20.1957381310  MEMB      31              0.0000000000
     42606      1291  PPPE      H11A           26.7628929780       -0.4133601763      -20.2536988805  MEMB      31              0.0000000000
     42607      1291  PPPE      H11B           25.0770529592       -0.0320087231      -20.8255185926  MEMB      31              0.0000000000
     42608      1291  PPPE      P              25.0042130627       -0.6282578277      -18.0165300186  MEMB      31              0.0000000000
     42609      1291  PPPE      O13            23.6513050514       -0.2131274207      -17.5471699262  MEMB      31              0.0000000000
     42610      1291  PPPE      O14            25.0089412152       -1.8695838150      -18.8753429421  MEMB      31              0.0000000000
     42611      1291  PPPE      O11            26.0754784312       -0.6556480662      -16.7696589355  MEMB      31              0.0000000000
     42612      1291  PPPE      O12            25.5923290807        0.5550714190      -18.8529178688  MEMB      31              0.0000000000
     42613      1291  PPPE      C1             27.4716756980       -0.5577214930      -17.0634429151  MEMB      31              0.0000000000
     42614      1291  PPPE      HA             27.7179914797       -0.0028950231      -17.9939358620  MEMB      31              0.0000000000
     42615      1291  PPPE      HB             27.8821438918       -1.5643763043      -17.2925344967  MEMB      31              0.0000000000
     42616      1291  PPPE      C2             28.2225988755        0.1466918924      -15.8509106586  MEMB      31              0.0000000000
     42617      1291  PPPE      HS             29.3044271191       -0.0344956855      -16.0273751389  MEMB      31              0.0000000000
     42618      1291  PPPE      O21            27.8517551714       -0.5463062886      -14.6187763100  MEMB      31              0.0000000000
     42619      1291  PPPE      C21            28.3745676223       -0.1467796997      -13.4733557431  MEMB      31              0.0000000000
     42620      1291  PPPE      O22            29.2671356709        0.6719405679      -13.2939895153  MEMB      31              0.0000000000
     42621      1291  PPPE      C22            27.7140998456       -0.9938497200      -12.3554426033  MEMB      31              0.0000000000
     42622      1291  PPPE      H2R            28.2850674576       -0.7150061919      -11.4440901617  MEMB      31              0.0000000000
     42623      1291  PPPE      H2S            27.9282836679       -2.0683404838      -12.5396052727  MEMB      31              0.0000000000
     42624      1291  PPPE      C3             27.8816066600        1.6541194354      -15.7264397793  MEMB      31              0.0000000000
     42625      1291  PPPE      HX             28.5726892130        2.3156363903      -15.1615316246  MEMB      31              0.0000000000
     42626      1291  PPPE      HY             27.8905982664        2.0648773180      -16.7586791472  MEMB      31              0.0000000000
     42627      1291  PPPE      O31            26.5759822135        1.7850889976      -15.1132378973  MEMB      31              0.0000000000
     42628      1291  PPPE      C31            26.1460890905        3.0157850869      -15.2520944801  MEMB      31              0.0000000000
     42629      1291  PPPE      O32            26.8280490685        4.0021412590      -15.5759768317  MEMB      31              0.0000000000
     42630      1291  PPPE      C32            24.6525471666        3.2215689026      -15.0352591534  MEMB      31              0.0000000000
     42631      1291  PPPE      H2X            24.0939862333        2.2612267857      -15.0266741567  MEMB      31              0.0000000000
     42632      1291  PPPE      H2Y            24.2004624193        3.6298337209      -15.9643771326  MEMB      31              0.0000000000
     42633      1291  PPPE      C23            26.2255850128       -0.6842944871      -12.4161488677  MEMB      31              0.0000000000
     42634      1291  PPPE      H3R            25.9651072877       -0.7723201808      -13.4925892199  MEMB      31              0.0000000000
     42635      1291  PPPE      H3S            25.8914053990        0.2861906647      -11.9909388537  MEMB      31              0.0000000000
     42636      1291  PPPE      C24            25.3019101993       -1.8469144000      -11.8122577785  MEMB      31              0.0000000000
     42637      1291  PPPE      H4R            25.5724477565       -2.8186815197      -12.2778746761  MEMB      31              0.0000000000
     42638      1291  PPPE      H4S            24.2760306326       -1.5472839916      -12.1157602212  MEMB      31              0.0000000000
     42639      1291  PPPE      C25            25.2229687404       -2.0649990757      -10.2591841871  MEMB      31              0.0000000000
     42640      1291  PPPE      H5R            26.1085386289       -2.6893116718      -10.0135813473  MEMB      31              0.0000000000
     42641      1291  PPPE      H5S            24.2681035508       -2.5677436140       -9.9949846433  MEMB      31              0.0000000000
     42642      1291  PPPE      C26            25.3235092148       -0.7151192675       -9.4751505806  MEMB      31              0.0000000000
     42643      1291  PPPE      H6R            24.6659793541        0.0404376549       -9.9558887832  MEMB      31              0.0000000000
     42644      1291  PPPE      H6S            26.3986826715       -0.4411463584       -9.5322634760  MEMB      31              0.0000000000
     42645      1291  PPPE      C27            25.0307915013       -0.9231164476       -7.8823000639  MEMB      31              0.0000000000
     42646      1291  PPPE      H7R            25.6489999078       -1.8362458701       -7.7468968740  MEMB      31              0.0000000000
     42647      1291  PPPE      H7S            23.9501148471       -1.1807637958       -7.8735357583  MEMB      31              0.0000000000
     42648      1291  PPPE      C28            25.3504944812        0.2697853603       -7.0261968778  MEMB      31              0.0000000000
     42649      1291  PPPE      H8R            24.7581409275        0.0197596126       -6.1201475453  MEMB      31              0.0000000000
     42650      1291  PPPE      H8S            24.9387191103        1.1889044402       -7.4952194367  MEMB      31              0.0000000000
     42651      1291  PPPE      C29            26.8599815251        0.5344814536       -6.7980763530  MEMB      31              0.0000000000
     42652      1291  PPPE      H91            27.3616851774        1.2923366862       -7.4177124490  MEMB      31              0.0000000000
     42653      1291  PPPE      C210           27.6035557919       -0.0580533371       -5.9417510966  MEMB      31              0.0000000000
     42654      1291  PPPE      H101           28.6771101894        0.1779015976       -5.9842507982  MEMB      31              0.0000000000
     42655      1291  PPPE      C211           27.2940682957       -1.1835665649       -4.8913843434  MEMB      31              0.0000000000
     42656      1291  PPPE      H11R           27.9865342320       -2.0422606750       -5.0235068331  MEMB      31              0.0000000000
     42657      1291  PPPE      H11S           26.3245344446       -1.6731474925       -5.1251269944  MEMB      31              0.0000000000
     42658      1291  PPPE      C212           27.2467815052       -0.6326135562       -3.4092620410  MEMB      31              0.0000000000
     42659      1291  PPPE      H12R           26.3682656579        0.0273195543       -3.2448868730  MEMB      31              0.0000000000
     42660      1291  PPPE      H12S           28.2198190238       -0.1958466925       -3.0982094822  MEMB      31              0.0000000000
     42661      1291  PPPE      C213           27.0066884104       -1.9463319167       -2.5286829790  MEMB      31              0.0000000000
     42662      1291  PPPE      H13R           27.8042441246       -2.7034371874       -2.6868521664  MEMB      31              0.0000000000
     42663      1291  PPPE      H13S           26.1146127547       -2.4331836003       -2.9775676667  MEMB      31              0.0000000000
     42664      1291  PPPE      C214           26.8818468699       -1.6658731365       -1.0389907520  MEMB      31              0.0000000000
     42665      1291  PPPE      H14R           27.9116509309       -1.7082651547       -0.6242287565  MEMB      31              0.0000000000
     42666      1291  PPPE      H14S           26.3707228527       -2.5476657203       -0.5968198823  MEMB      31              0.0000000000
     42667      1291  PPPE      C215           26.1865337087       -0.3634336325       -0.5472434523  MEMB      31              0.0000000000
     42668      1291  PPPE      H15R           25.4161032246       -0.0723568327       -1.2929190962  MEMB      31              0.0000000000
     42669      1291  PPPE      H15S           26.9733344586        0.4154416485       -0.6400813576  MEMB      31              0.0000000000
     42670      1291  PPPE      C216           25.6681659615       -0.4509203457        0.9117747888  MEMB      31              0.0000000000
     42671      1291  PPPE      H16R           25.4324968651        0.5712612045        1.2777337418  MEMB      31              0.0000000000
     42672      1291  PPPE      H16S           24.8330767298       -1.1525562715        1.1230897265  MEMB      31              0.0000000000
     42673      1291  PPPE      H16T           26.4968337374       -0.8061113706        1.5609820384  MEMB      31              0.0000000000
     42674      1291  PPPE      C33            24.4487825831        3.9687989415      -13.6810822872  MEMB      31              0.0000000000
     42675      1291  PPPE      H3X            23.3575003358        4.1254254698      -13.5436334334  MEMB      31              0.0000000000
     42676      1291  PPPE      H3Y            24.9282184678        4.9653570449      -13.7875443878  MEMB      31              0.0000000000
     42677      1291  PPPE      C34            24.9401714545        3.3165790003      -12.4266302275  MEMB      31              0.0000000000
     42678      1291  PPPE      H4X            24.3728241037        2.3716287575      -12.2869626862  MEMB      31              0.0000000000
     42679      1291  PPPE      H4Y            24.5239751039        3.9652440512      -11.6264207241  MEMB      31              0.0000000000
     42680      1291  PPPE      C35            26.4386919918        3.2201955666      -12.1612146496  MEMB      31              0.0000000000
     42681      1291  PPPE      H5X            26.6928132626        4.2012786158      -12.6164282593  MEMB      31              0.0000000000
     42682      1291  PPPE      H5Y            26.9092666623        2.3556617680      -12.6764444920  MEMB      31              0.0000000000
     42683      1291  PPPE      C36            26.9174380705        3.2382607516      -10.6965999992  MEMB      31              0.0000000000
     42684      1291  PPPE      H6X            28.0120695333        3.0596066849      -10.7612968721  MEMB      31              0.0000000000
     42685      1291  PPPE      H6Y            26.5596456494        2.3040981250      -10.2132308128  MEMB      31              0.0000000000
     42686      1291  PPPE      C37            26.5109554154        4.5240498623       -9.8908516321  MEMB      31              0.0000000000
     42687      1291  PPPE      H7X            25.4037753606        4.5740562307       -9.8135684552  MEMB      31              0.0000000000
     42688      1291  PPPE      H7Y            26.8547964504        5.3867364913      -10.5006598992  MEMB      31              0.0000000000
     42689      1291  PPPE      C38            27.0422729402        4.5835794570       -8.4514575420  MEMB      31              0.0000000000
     42690      1291  PPPE      H8X            28.1504796682        4.5960555894       -8.3737195592  MEMB      31              0.0000000000
     42691      1291  PPPE      H8Y            26.6387808752        3.6816201127       -7.9435358014  MEMB      31              0.0000000000
     42692      1291  PPPE      C39            26.5855593631        5.6909840608       -7.5337480712  MEMB      31              0.0000000000
     42693      1291  PPPE      H9X            25.5086474906        5.4901780566       -7.3486568294  MEMB      31              0.0000000000
     42694      1291  PPPE      H9Y            26.6475182223        6.6718265431       -8.0518504980  MEMB      31              0.0000000000
     42695      1291  PPPE      C310           27.3329420964        5.7424401245       -6.1423976364  MEMB      31              0.0000000000
     42696      1291  PPPE      H10X           27.1335885783        6.7136908154       -5.6411479279  MEMB      31              0.0000000000
     42697      1291  PPPE      H10Y           28.4406155718        5.7497245548       -6.2279979228  MEMB      31              0.0000000000
     42698      1291  PPPE      C311           27.0279795058        4.5218783466       -5.2759769688  MEMB      31              0.0000000000
     42699      1291  PPPE      H11X           27.6586371604        3.6622484090       -5.5884322343  MEMB      31              0.0000000000
     42700      1291  PPPE      H11Y           25.9957168270        4.1478533781       -5.4458595309  MEMB      31              0.0000000000
     42701      1291  PPPE      C312           27.1027887159        4.7880815381       -3.7927294720  MEMB      31              0.0000000000
     42702      1291  PPPE      H12X           26.3816418307        5.6030403086       -3.5688760102  MEMB      31              0.0000000000
     42703      1291  PPPE      H12Y           28.1455943682        5.0862340220       -3.5519339825  MEMB      31              0.0000000000
     42704      1291  PPPE      C313           26.7530202323        3.5727135232       -2.9690892658  MEMB      31              0.0000000000
     42705      1291  PPPE      H13X           27.3925180309        2.7999674074       -3.4468203681  MEMB      31              0.0000000000
     42706      1291  PPPE      H13Y           25.6672333613        3.4434263914       -3.1657430438  MEMB      31              0.0000000000
     42707      1291  PPPE      C314           27.0463834283        3.6274259786       -1.5045210447  MEMB      31              0.0000000000
     42708      1291  PPPE      H14X           28.1252553250        3.8396024882       -1.3453432840  MEMB      31              0.0000000000
     42709      1291  PPPE      H14Y           26.8421134877        2.6104434686       -1.1065997389  MEMB      31              0.0000000000
     42710      1291  PPPE      C315           26.1433059123        4.4967737282       -0.6702723862  MEMB      31              0.0000000000
     42711      1291  PPPE      H15X           25.2175461343        4.5030302167       -1.2844797533  MEMB      31              0.0000000000
     42712      1291  PPPE      H15Y           26.5360450850        5.5360343427       -0.6740562227  MEMB      31              0.0000000000
     42713      1291  PPPE      C316           25.7038069266        4.0156066735        0.7500369187  MEMB      31              0.0000000000
     42714      1291  PPPE      H16X           24.7999322864        4.5456682147        1.1193151298  MEMB      31              0.0000000000
     42715      1291  PPPE      H16Y           25.5323414497        2.9180033829        0.7363399637  MEMB      31              0.0000000000
     42716      1291  PPPE      H16Z           26.5419031005        4.2046776630        1.4544288297  MEMB      31              0.0000000000
     42717      1292  PPPE      N              25.8441627191       -8.9587797250      -20.8130421339  MEMB      32              0.0000000000
     42718      1292  PPPE      HN1            26.8826099682       -8.9656877447      -20.8694299875  MEMB      32              0.0000000000
     42719      1292  PPPE      HN2            25.3797670508       -8.9347121741      -21.7432880241  MEMB      32              0.0000000000
     42720      1292  PPPE      HN3            25.5888620350       -8.0798777743      -20.3191262285  MEMB      32              0.0000000000
     42721      1292  PPPE      C12            25.4874104151      -10.0563174931      -19.8854030252  MEMB      32              0.0000000000
     42722      1292  PPPE      H12A           26.0013727648       -9.7889164994      -18.9374260151  MEMB      32              0.0000000000
     42723      1292  PPPE      H12B           25.9907334910      -10.9419056787      -20.3289348130  MEMB      32              0.0000000000
     42724      1292  PPPE      C11            23.9761481435      -10.1963189987      -19.5269583050  MEMB      32              0.0000000000
     42725      1292  PPPE      H11A           23.9570431732      -10.6791715335      -18.5265536719  MEMB      32              0.0000000000
     42726      1292  PPPE      H11B           23.5830004529      -10.8947934507      -20.2963017480  MEMB      32              0.0000000000
     42727      1292  PPPE      P              23.3932048317       -8.0335769951      -18.3710079910  MEMB      32              0.0000000000
     42728      1292  PPPE      O13            24.8485787212       -7.7966474872      -18.0586510434  MEMB      32              0.0000000000
     42729      1292  PPPE      O14            22.5147279441       -6.8431873498      -18.5686547526  MEMB      32              0.0000000000
     42730      1292  PPPE      O11            22.7751109760       -8.8339049091      -17.1730836102  MEMB      32              0.0000000000
     42731      1292  PPPE      O12            23.2457957232       -8.9736180784      -19.6031991850  MEMB      32              0.0000000000
     42732      1292  PPPE      C1             21.3716030428       -9.0041698919      -17.0806010311  MEMB      32              0.0000000000
     42733      1292  PPPE      HA             21.1365667625      -10.0706146208      -17.2849893554  MEMB      32              0.0000000000
     42734      1292  PPPE      HB             20.7120902848       -8.2320828129      -17.5314285640  MEMB      32              0.0000000000
     42735      1292  PPPE      C2             20.9286939844       -9.0319501842      -15.5156748722  MEMB      32              0.0000000000
     42736      1292  PPPE      HS             19.9286237197       -9.5158104711      -15.5234006932  MEMB      32              0.0000000000
     42737      1292  PPPE      O21            20.9307015169       -7.7054025820      -14.9204628715  MEMB      32              0.0000000000
     42738      1292  PPPE      C21            20.3460775204       -7.5823476436      -13.7116089771  MEMB      32              0.0000000000
     42739      1292  PPPE      O22            19.7618684751       -8.5002409362      -13.1312890230  MEMB      32              0.0000000000
     42740      1292  PPPE      C22            20.5471194133       -6.1373485588      -13.2628558082  MEMB      32              0.0000000000
     42741      1292  PPPE      H2R            19.7901663073       -5.8459862663      -12.5036120991  MEMB      32              0.0000000000
     42742      1292  PPPE      H2S            20.4701567988       -5.4257959283      -14.1126149565  MEMB      32              0.0000000000
     42743      1292  PPPE      C3             21.8940271253       -9.9852894364      -14.6402648462  MEMB      32              0.0000000000
     42744      1292  PPPE      HX             21.3486959048      -10.3978061652      -13.7646137694  MEMB      32              0.0000000000
     42745      1292  PPPE      HY             22.1722512045      -10.8977454891      -15.2097701699  MEMB      32              0.0000000000
     42746      1292  PPPE      O31            23.0899386887       -9.3566406294      -14.1871046677  MEMB      32              0.0000000000
     42747      1292  PPPE      C31            24.0556922461      -10.0738555148      -13.5869380616  MEMB      32              0.0000000000
     42748      1292  PPPE      O32            24.1591872186      -11.2336516816      -13.4244072837  MEMB      32              0.0000000000
     42749      1292  PPPE      C32            25.1238421811       -9.0578656991      -13.1960692236  MEMB      32              0.0000000000
     42750      1292  PPPE      H2X            24.7508839627       -8.2990566745      -12.4753528914  MEMB      32              0.0000000000
     42751      1292  PPPE      H2Y            25.3782080272       -8.5280875441      -14.1389128600  MEMB      32              0.0000000000
     42752      1292  PPPE      C23            22.0163058357       -6.0919696366      -12.7326849016  MEMB      32              0.0000000000
     42753      1292  PPPE      H3R            22.6244242760       -6.4763391989      -13.5793093769  MEMB      32              0.0000000000
     42754      1292  PPPE      H3S            22.0497582758       -6.7864705139      -11.8661570800  MEMB      32              0.0000000000
     42755      1292  PPPE      C24            22.4013811740       -4.6415833920      -12.2217429059  MEMB      32              0.0000000000
     42756      1292  PPPE      H4R            22.1132589276       -3.9436955101      -13.0367638107  MEMB      32              0.0000000000
     42757      1292  PPPE      H4S            23.5012339947       -4.7541297092      -12.1122984025  MEMB      32              0.0000000000
     42758      1292  PPPE      C25            21.6629237660       -4.1018976145      -10.9321090414  MEMB      32              0.0000000000
     42759      1292  PPPE      H5R            20.5715228025       -4.1136978453      -11.1395353935  MEMB      32              0.0000000000
     42760      1292  PPPE      H5S            22.0498817660       -3.1165321986      -10.5950044531  MEMB      32              0.0000000000
     42761      1292  PPPE      C26            21.9114104645       -5.0095958287       -9.6578299511  MEMB      32              0.0000000000
     42762      1292  PPPE      H6R            21.4436609832       -5.9728189313       -9.9540269759  MEMB      32              0.0000000000
     42763      1292  PPPE      H6S            21.2136625926       -4.6652993768       -8.8647795994  MEMB      32              0.0000000000
     42764      1292  PPPE      C27            23.3448425360       -5.2142145500       -9.1245716780  MEMB      32              0.0000000000
     42765      1292  PPPE      H7R            23.7357296121       -4.2985728810       -8.6314909262  MEMB      32              0.0000000000
     42766      1292  PPPE      H7S            24.0379093119       -5.3077776542       -9.9878360579  MEMB      32              0.0000000000
     42767      1292  PPPE      C28            23.3312163326       -6.4188615078       -8.1999501575  MEMB      32              0.0000000000
     42768      1292  PPPE      H8R            24.2702678518       -6.8595684800       -7.8021052015  MEMB      32              0.0000000000
     42769      1292  PPPE      H8S            22.8578833089       -7.2009330104       -8.8313304022  MEMB      32              0.0000000000
     42770      1292  PPPE      C29            22.4333940914       -6.2151615455       -6.9901109448  MEMB      32              0.0000000000
     42771      1292  PPPE      H91            21.4305740559       -6.6432233944       -7.1354210616  MEMB      32              0.0000000000
     42772      1292  PPPE      C210           22.7354417395       -5.4795545846       -5.9024809796  MEMB      32              0.0000000000
     42773      1292  PPPE      H101           21.8861612794       -5.5174735313       -5.2044230640  MEMB      32              0.0000000000
     42774      1292  PPPE      C211           23.9959177472       -4.6380355590       -5.6052150105  MEMB      32              0.0000000000
     42775      1292  PPPE      H11R           23.6141008332       -3.6128715173       -5.4113709193  MEMB      32              0.0000000000
     42776      1292  PPPE      H11S           24.7967750578       -4.6555008025       -6.3750484556  MEMB      32              0.0000000000
     42777      1292  PPPE      C212           24.6162247073       -5.0181618533       -4.2369333574  MEMB      32              0.0000000000
     42778      1292  PPPE      H12R           25.3461377372       -5.8311317215       -4.4384971490  MEMB      32              0.0000000000
     42779      1292  PPPE      H12S           23.7822043166       -5.1634258139       -3.5174687165  MEMB      32              0.0000000000
     42780      1292  PPPE      C213           25.3912884933       -3.8344717797       -3.6273033130  MEMB      32              0.0000000000
     42781      1292  PPPE      H13R           24.7236936758       -2.9482975646       -3.6850390927  MEMB      32              0.0000000000
     42782      1292  PPPE      H13S           26.2677825119       -3.7243730638       -4.3010670015  MEMB      32              0.0000000000
     42783      1292  PPPE      C214           25.8776515265       -4.0941712540       -2.1594506873  MEMB      32              0.0000000000
     42784      1292  PPPE      H14R           24.9423049052       -4.2420226700       -1.5784277472  MEMB      32              0.0000000000
     42785      1292  PPPE      H14S           26.4437678470       -3.2231885871       -1.7654678127  MEMB      32              0.0000000000
     42786      1292  PPPE      C215           26.9371870549       -5.2450901252       -2.0313040546  MEMB      32              0.0000000000
     42787      1292  PPPE      H15R           27.8702431558       -5.1132746271       -2.6198208234  MEMB      32              0.0000000000
     42788      1292  PPPE      H15S           26.3849962800       -6.1616291168       -2.3302398754  MEMB      32              0.0000000000
     42789      1292  PPPE      C216           27.3793025993       -5.4668054399       -0.5198020616  MEMB      32              0.0000000000
     42790      1292  PPPE      H16R           28.2158486230       -6.1688618164       -0.3157711955  MEMB      32              0.0000000000
     42791      1292  PPPE      H16S           27.5732854576       -4.5230640535        0.0334102360  MEMB      32              0.0000000000
     42792      1292  PPPE      H16T           26.4988340581       -5.8456874989        0.0419314457  MEMB      32              0.0000000000
     42793      1292  PPPE      C33            26.2968242165       -9.8481232549      -12.5144293694  MEMB      32              0.0000000000
     42794      1292  PPPE      H3X            27.1185555194       -9.1444765165      -12.2615263576  MEMB      32              0.0000000000
     42795      1292  PPPE      H3Y            26.7387075170      -10.5558368069      -13.2480516680  MEMB      32              0.0000000000
     42796      1292  PPPE      C34            25.8796854300      -10.4138982290      -11.1253787689  MEMB      32              0.0000000000
     42797      1292  PPPE      H4X            25.1181813208      -11.2167009633      -11.2250796289  MEMB      32              0.0000000000
     42798      1292  PPPE      H4Y            25.3537578023       -9.5622853986      -10.6432203742  MEMB      32              0.0000000000
     42799      1292  PPPE      C35            26.9874919105      -10.9587410235      -10.2288119849  MEMB      32              0.0000000000
     42800      1292  PPPE      H5X            27.8947323580      -10.3266987430      -10.3372477998  MEMB      32              0.0000000000
     42801      1292  PPPE      H5Y            27.3233962984      -11.9139313933      -10.6860871752  MEMB      32              0.0000000000
     42802      1292  PPPE      C36            26.5799007858      -11.2548371677       -8.7701029411  MEMB      32              0.0000000000
     42803      1292  PPPE      H6X            27.5251368177      -11.6228921003       -8.3169082694  MEMB      32              0.0000000000
     42804      1292  PPPE      H6Y            25.8664742111      -12.1064891523       -8.7757967767  MEMB      32              0.0000000000
     42805      1292  PPPE      C37            25.9826857470      -10.0716744174       -7.9584859694  MEMB      32              0.0000000000
     42806      1292  PPPE      H7X            24.9082607349       -9.9951932425       -8.2306670182  MEMB      32              0.0000000000
     42807      1292  PPPE      H7Y            26.5715052415       -9.1748862002       -8.2472479761  MEMB      32              0.0000000000
     42808      1292  PPPE      C38            25.9586862779      -10.2458399714       -6.4193803496  MEMB      32              0.0000000000
     42809      1292  PPPE      H8X            26.9427288424      -10.3349700453       -5.9114068646  MEMB      32              0.0000000000
     42810      1292  PPPE      H8Y            25.3411705616      -11.1520758714       -6.2412460354  MEMB      32              0.0000000000
     42811      1292  PPPE      C39            25.0102090704       -9.2389753103       -5.7076072550  MEMB      32              0.0000000000
     42812      1292  PPPE      H9X            23.9554351641       -9.1516939194       -6.0454755214  MEMB      32              0.0000000000
     42813      1292  PPPE      H9Y            25.3167890613       -8.1716018968       -5.6753008229  MEMB      32              0.0000000000
     42814      1292  PPPE      C310           24.6639016382       -9.6951780415       -4.2664183399  MEMB      32              0.0000000000
     42815      1292  PPPE      H10X           25.5410324581       -9.3960803572       -3.6536352624  MEMB      32              0.0000000000
     42816      1292  PPPE      H10Y           24.5460838508      -10.7998338947       -4.2531739032  MEMB      32              0.0000000000
     42817      1292  PPPE      C311           23.5410094295       -8.8464475452       -3.7627880219  MEMB      32              0.0000000000
     42818      1292  PPPE      H11X           22.6226658160       -9.0359003807       -4.3586685729  MEMB      32              0.0000000000
     42819      1292  PPPE      H11Y           23.7415681275       -7.7594828245       -3.8750595874  MEMB      32              0.0000000000
     42820      1292  PPPE      C312           23.1017699658       -9.2143063752       -2.3185345549  MEMB      32              0.0000000000
     42821      1292  PPPE      H12X           24.0592292243       -9.0451743371       -1.7809593303  MEMB      32              0.0000000000
     42822      1292  PPPE      H12Y           22.8707060213      -10.2817439175       -2.1148005449  MEMB      32              0.0000000000
     42823      1292  PPPE      C313           21.9855187547       -8.3801997609       -1.6979561733  MEMB      32              0.0000000000
     42824      1292  PPPE      H13X           20.9768166106       -8.6828372682       -2.0518650935  MEMB      32              0.0000000000
     42825      1292  PPPE      H13Y           22.1895216598       -7.3209179288       -1.9637113517  MEMB      32              0.0000000000
     42826      1292  PPPE      C314           21.9124028121       -8.3771703824       -0.0819347508  MEMB      32              0.0000000000
     42827      1292  PPPE      H14X           21.8831810054       -9.4461108809        0.2194508770  MEMB      32              0.0000000000
     42828      1292  PPPE      H14Y           20.9854287565       -7.8774223665        0.2720313787  MEMB      32              0.0000000000
     42829      1292  PPPE      C315           23.1072211241       -7.7429559374        0.7171644283  MEMB      32              0.0000000000
     42830      1292  PPPE      H15X           23.9556638466       -8.3804269033        0.3883837808  MEMB      32              0.0000000000
     42831      1292  PPPE      H15Y           22.9763112975       -7.9160039547        1.8067689442  MEMB      32              0.0000000000
     42832      1292  PPPE      C316           23.3817147965       -6.3187639383        0.3826958307  MEMB      32              0.0000000000
     42833      1292  PPPE      H16X           24.0035293276       -5.8925401568        1.1987846597  MEMB      32              0.0000000000
     42834      1292  PPPE      H16Y           23.9430144145       -6.1755996377       -0.5653377773  MEMB      32              0.0000000000
     42835      1292  PPPE      H16Z           22.4250526389       -5.7544359041        0.3571539817  MEMB      32              0.0000000000
     42836      1293  PPPE      N               4.5417452744       23.1174016632      -20.0297354885  MEMB      33              0.0000000000
     42837      1293  PPPE      HN1             3.8123111697       22.7348524274      -20.6647016052  MEMB      33              0.0000000000
     42838      1293  PPPE      HN2             5.3004650994       22.4156156992      -19.9138015078  MEMB      33              0.0000000000
     42839      1293  PPPE      HN3             4.1328003392       23.4309064465      -19.1263646948  MEMB      33              0.0000000000
     42840      1293  PPPE      C12             5.1166685343       24.2526792104      -20.8297191542  MEMB      33              0.0000000000
     42841      1293  PPPE      H12A            4.3882647102       25.0879126907      -20.7513999202  MEMB      33              0.0000000000
     42842      1293  PPPE      H12B            5.2929234973       23.9508224367      -21.8842985377  MEMB      33              0.0000000000
     42843      1293  PPPE      C11             6.4852316196       24.6654047183      -20.2690809163  MEMB      33              0.0000000000
     42844      1293  PPPE      H11A            6.8354348025       25.5649760916      -20.8190355281  MEMB      33              0.0000000000
     42845      1293  PPPE      H11B            7.2065376327       23.8641569189      -20.5374847155  MEMB      33              0.0000000000
     42846      1293  PPPE      P               7.7695329709       25.5290623200      -18.1965518404  MEMB      33              0.0000000000
     42847      1293  PPPE      O13             8.9237746771       25.2385825457      -19.0852861534  MEMB      33              0.0000000000
     42848      1293  PPPE      O14             7.4552011467       26.9427948987      -17.9579092497  MEMB      33              0.0000000000
     42849      1293  PPPE      O11             7.9697203809       24.7516441383      -16.7717132817  MEMB      33              0.0000000000
     42850      1293  PPPE      O12             6.4284010084       24.9003697087      -18.8600039375  MEMB      33              0.0000000000
     42851      1293  PPPE      C1              7.1668893176       23.6231483648      -16.3784349412  MEMB      33              0.0000000000
     42852      1293  PPPE      HA              7.8037803437       22.8327743203      -15.9267716921  MEMB      33              0.0000000000
     42853      1293  PPPE      HB              6.6449677036       23.2376583893      -17.2802754524  MEMB      33              0.0000000000
     42854      1293  PPPE      C2              6.1062971105       24.0157857024      -15.3417284421  MEMB      33              0.0000000000
     42855      1293  PPPE      HS              5.5499240579       24.8703586787      -15.7827217010  MEMB      33              0.0000000000
     42856      1293  PPPE      O21             6.7499428894       24.5172251232      -14.1461482311  MEMB      33              0.0000000000
     42857      1293  PPPE      C21             5.9935972198       25.0758289161      -13.1693381374  MEMB      33              0.0000000000
     42858      1293  PPPE      O22             4.7632452478       25.2028791563      -13.1789246287  MEMB      33              0.0000000000
     42859      1293  PPPE      C22             6.9438794396       25.5775261994      -12.0017726447  MEMB      33              0.0000000000
     42860      1293  PPPE      H2R             7.5417764114       26.4421427872      -12.3613256549  MEMB      33              0.0000000000
     42861      1293  PPPE      H2S             7.6966194639       24.8118132769      -11.7164882668  MEMB      33              0.0000000000
     42862      1293  PPPE      C3              5.1451041406       22.8445462893      -15.1136434277  MEMB      33              0.0000000000
     42863      1293  PPPE      HX              4.2237696289       23.1729896343      -14.5867765691  MEMB      33              0.0000000000
     42864      1293  PPPE      HY              4.9369947152       22.4542479080      -16.1327992747  MEMB      33              0.0000000000
     42865      1293  PPPE      O31             5.9341024768       21.9843545918      -14.3266733368  MEMB      33              0.0000000000
     42866      1293  PPPE      C31             5.3087980640       21.2334041714      -13.4932966267  MEMB      33              0.0000000000
     42867      1293  PPPE      O32             4.0785298634       21.2026376555      -13.4128129554  MEMB      33              0.0000000000
     42868      1293  PPPE      C32             6.2808775848       20.6163826152      -12.4602584238  MEMB      33              0.0000000000
     42869      1293  PPPE      H2X             7.2873757856       20.5377678348      -12.9240494200  MEMB      33              0.0000000000
     42870      1293  PPPE      H2Y             5.8166399166       19.6117398322      -12.3628045064  MEMB      33              0.0000000000
     42871      1293  PPPE      C23             6.1183693120       26.0016197818      -10.8578475471  MEMB      33              0.0000000000
     42872      1293  PPPE      H3R             5.7098507504       25.0646833161      -10.4224355077  MEMB      33              0.0000000000
     42873      1293  PPPE      H3S             5.2266442001       26.5422300359      -11.2411070909  MEMB      33              0.0000000000
     42874      1293  PPPE      C24             6.7863856727       26.8166644300       -9.7376499110  MEMB      33              0.0000000000
     42875      1293  PPPE      H4R             7.1169040688       27.7882337979      -10.1632454387  MEMB      33              0.0000000000
     42876      1293  PPPE      H4S             7.6172446683       26.2523995679       -9.2626767591  MEMB      33              0.0000000000
     42877      1293  PPPE      C25             5.8154930482       27.3356317754       -8.6635943536  MEMB      33              0.0000000000
     42878      1293  PPPE      H5R             4.8217291693       27.5638887080       -9.1047894642  MEMB      33              0.0000000000
     42879      1293  PPPE      H5S             6.2003516169       28.2695643396       -8.2010201999  MEMB      33              0.0000000000
     42880      1293  PPPE      C26             5.6597654053       26.3597607179       -7.4720949358  MEMB      33              0.0000000000
     42881      1293  PPPE      H6R             6.6151650067       26.3781178025       -6.9053537083  MEMB      33              0.0000000000
     42882      1293  PPPE      H6S             5.4738296553       25.2887110697       -7.7014452094  MEMB      33              0.0000000000
     42883      1293  PPPE      C27             4.6085335251       26.8744259801       -6.4613589547  MEMB      33              0.0000000000
     42884      1293  PPPE      H7R             3.6259708026       26.4452741575       -6.7524263172  MEMB      33              0.0000000000
     42885      1293  PPPE      H7S             4.4998676073       27.9792890892       -6.4190478616  MEMB      33              0.0000000000
     42886      1293  PPPE      C28             5.0055588168       26.4190689743       -4.9726243137  MEMB      33              0.0000000000
     42887      1293  PPPE      H8R             5.4436132405       25.4001288704       -5.0373575070  MEMB      33              0.0000000000
     42888      1293  PPPE      H8S             4.0708733034       26.3139617209       -4.3813236657  MEMB      33              0.0000000000
     42889      1293  PPPE      C29             5.9545971086       27.4209563960       -4.3262737526  MEMB      33              0.0000000000
     42890      1293  PPPE      H91             5.6812141278       28.4576527140       -4.0802605617  MEMB      33              0.0000000000
     42891      1293  PPPE      C210            7.1593443749       27.0790232099       -3.8030445697  MEMB      33              0.0000000000
     42892      1293  PPPE      H101            7.7915594361       27.9238682622       -3.4923341675  MEMB      33              0.0000000000
     42893      1293  PPPE      C211            7.7683134039       25.6467632559       -3.8047898918  MEMB      33              0.0000000000
     42894      1293  PPPE      H11R            8.7032056215       25.6061023030       -4.4036590162  MEMB      33              0.0000000000
     42895      1293  PPPE      H11S            6.9845534152       25.0210883082       -4.2828820795  MEMB      33              0.0000000000
     42896      1293  PPPE      C212            8.0254993116       25.0560310020       -2.3816486235  MEMB      33              0.0000000000
     42897      1293  PPPE      H12R            8.6563440402       25.8404049928       -1.9114216880  MEMB      33              0.0000000000
     42898      1293  PPPE      H12S            8.6967968103       24.1745358847       -2.4631779225  MEMB      33              0.0000000000
     42899      1293  PPPE      C213            6.7953805466       24.8101336649       -1.4743433953  MEMB      33              0.0000000000
     42900      1293  PPPE      H13R            6.1113308708       24.0743846874       -1.9487593343  MEMB      33              0.0000000000
     42901      1293  PPPE      H13S            6.2988167798       25.8030727120       -1.4317115500  MEMB      33              0.0000000000
     42902      1293  PPPE      C214            7.1184188005       24.5171451817       -0.0057015876  MEMB      33              0.0000000000
     42903      1293  PPPE      H14R            6.1725344966       24.7946380393        0.5067646041  MEMB      33              0.0000000000
     42904      1293  PPPE      H14S            7.8349388335       25.2933367895        0.3384591746  MEMB      33              0.0000000000
     42905      1293  PPPE      C215            7.5634564765       23.1770964715        0.4319027094  MEMB      33              0.0000000000
     42906      1293  PPPE      H15R            7.9593633219       23.2313891191        1.4685468519  MEMB      33              0.0000000000
     42907      1293  PPPE      H15S            8.3958934724       22.9239383431       -0.2589522753  MEMB      33              0.0000000000
     42908      1293  PPPE      C216            6.5789406683       22.0278962121        0.2987973356  MEMB      33              0.0000000000
     42909      1293  PPPE      H16R            5.6426240448       22.3930942930        0.7723609980  MEMB      33              0.0000000000
     42910      1293  PPPE      H16S            6.3450877648       21.7370150754       -0.7476356455  MEMB      33              0.0000000000
     42911      1293  PPPE      H16T            7.0724281500       21.1823222097        0.8239598933  MEMB      33              0.0000000000
     42912      1293  PPPE      C33             6.2297470253       21.2946446298      -11.1566901649  MEMB      33              0.0000000000
     42913      1293  PPPE      H3X             5.2077832621       21.5357769755      -10.7936939408  MEMB      33              0.0000000000
     42914      1293  PPPE      H3Y             6.6887299519       22.2938405671      -11.3156340293  MEMB      33              0.0000000000
     42915      1293  PPPE      C34             6.9131122843       20.6784627842       -9.9700008606  MEMB      33              0.0000000000
     42916      1293  PPPE      H4X             7.9243479757       20.3393777180      -10.2810389520  MEMB      33              0.0000000000
     42917      1293  PPPE      H4Y             6.3104979395       19.7729413431       -9.7437092986  MEMB      33              0.0000000000
     42918      1293  PPPE      C35             7.0642841778       21.4519534279       -8.6585798626  MEMB      33              0.0000000000
     42919      1293  PPPE      H5X             7.3844378235       22.4841723160       -8.9161586084  MEMB      33              0.0000000000
     42920      1293  PPPE      H5Y             7.8022777346       21.0061501943       -7.9579044834  MEMB      33              0.0000000000
     42921      1293  PPPE      C36             5.8384444696       21.3484735394       -7.7789020188  MEMB      33              0.0000000000
     42922      1293  PPPE      H6X             5.7043656178       20.2915403389       -7.4638844459  MEMB      33              0.0000000000
     42923      1293  PPPE      H6Y             4.9470879092       21.7092607141       -8.3353524631  MEMB      33              0.0000000000
     42924      1293  PPPE      C37             5.8874434745       22.2337149135       -6.4913969462  MEMB      33              0.0000000000
     42925      1293  PPPE      H7X             5.9905381642       23.2878592971       -6.8267655543  MEMB      33              0.0000000000
     42926      1293  PPPE      H7Y             6.8050377498       22.0181268997       -5.9032952931  MEMB      33              0.0000000000
     42927      1293  PPPE      C38             4.6428571583       22.2608498256       -5.5459969953  MEMB      33              0.0000000000
     42928      1293  PPPE      H8X             4.8383764397       22.9650328465       -4.7092058124  MEMB      33              0.0000000000
     42929      1293  PPPE      H8Y             4.5617446732       21.2110305645       -5.1915660657  MEMB      33              0.0000000000
     42930      1293  PPPE      C39             3.3129386258       22.7991693101       -6.2199931936  MEMB      33              0.0000000000
     42931      1293  PPPE      H9X             2.7307764214       21.9790628202       -6.6920456408  MEMB      33              0.0000000000
     42932      1293  PPPE      H9Y             3.6318805105       23.5928052235       -6.9290341735  MEMB      33              0.0000000000
     42933      1293  PPPE      C310            2.4543979226       23.6045669803       -5.2372946573  MEMB      33              0.0000000000
     42934      1293  PPPE      H10X            1.6204735816       24.0724782466       -5.8029360987  MEMB      33              0.0000000000
     42935      1293  PPPE      H10Y            3.1177871284       24.3937286170       -4.8232177648  MEMB      33              0.0000000000
     42936      1293  PPPE      C311            1.8943257281       22.7532524757       -4.0275599441  MEMB      33              0.0000000000
     42937      1293  PPPE      H11X            2.6944608640       22.0860487132       -3.6416274321  MEMB      33              0.0000000000
     42938      1293  PPPE      H11Y            1.1310803789       22.1157591531       -4.5229181989  MEMB      33              0.0000000000
     42939      1293  PPPE      C312            1.1165863665       23.6213399843       -2.9424666291  MEMB      33              0.0000000000
     42940      1293  PPPE      H12X            0.4171293029       22.9722982606       -2.3734098155  MEMB      33              0.0000000000
     42941      1293  PPPE      H12Y            0.5297569089       24.2856074295       -3.6123180670  MEMB      33              0.0000000000
     42942      1293  PPPE      C313            1.8727524690       24.5085554546       -1.9336850261  MEMB      33              0.0000000000
     42943      1293  PPPE      H13X            1.1421479394       25.0018611195       -1.2575285779  MEMB      33              0.0000000000
     42944      1293  PPPE      H13Y            2.4074098799       25.4061767768       -2.3114924040  MEMB      33              0.0000000000
     42945      1293  PPPE      C314            2.8910552323       23.7174587327       -1.1686508121  MEMB      33              0.0000000000
     42946      1293  PPPE      H14X            3.4834958806       24.4618763706       -0.5949109246  MEMB      33              0.0000000000
     42947      1293  PPPE      H14Y            3.5987439529       23.2615063163       -1.8936370663  MEMB      33              0.0000000000
     42948      1293  PPPE      C315            2.3996509337       22.4704919658       -0.3922866702  MEMB      33              0.0000000000
     42949      1293  PPPE      H15X            3.2322816164       22.0438174186        0.2068760598  MEMB      33              0.0000000000
     42950      1293  PPPE      H15Y            2.2347054082       21.7343251863       -1.2078677184  MEMB      33              0.0000000000
     42951      1293  PPPE      C316            1.1020638992       22.6221050572        0.3747775960  MEMB      33              0.0000000000
     42952      1293  PPPE      H16X            1.3963576277       23.1650678506        1.2983054009  MEMB      33              0.0000000000
     42953      1293  PPPE      H16Y            0.3893149370       23.3380980460       -0.0874603912  MEMB      33              0.0000000000
     42954      1293  PPPE      H16Z            0.6332495452       21.6366490806        0.5831297490  MEMB      33              0.0000000000
     42955      1294  PPPE      N              15.3727436188      -23.7565716465      -20.6041189697  MEMB      34              0.0000000000
     42956      1294  PPPE      HN1            14.4998458067      -24.1370895274      -20.1859616406  MEMB      34              0.0000000000
     42957      1294  PPPE      HN2            15.1849101978      -22.8755313993      -21.1238176217  MEMB      34              0.0000000000
     42958      1294  PPPE      HN3            15.8120823090      -24.4557769846      -21.2363320751  MEMB      34              0.0000000000
     42959      1294  PPPE      C12            16.3244038757      -23.3695499912      -19.5194263622  MEMB      34              0.0000000000
     42960      1294  PPPE      H12A           17.0189521066      -22.6283563382      -19.9694882733  MEMB      34              0.0000000000
     42961      1294  PPPE      H12B           16.8515442438      -24.2970482482      -19.2092795975  MEMB      34              0.0000000000
     42962      1294  PPPE      C11            15.6591521165      -22.7685817980      -18.2682956767  MEMB      34              0.0000000000
     42963      1294  PPPE      H11A           16.4146901066      -22.6453585183      -17.4631252793  MEMB      34              0.0000000000
     42964      1294  PPPE      H11B           14.9248636000      -23.5600745903      -18.0062259641  MEMB      34              0.0000000000
     42965      1294  PPPE      P              13.6516532816      -21.2157234943      -18.7722267695  MEMB      34              0.0000000000
     42966      1294  PPPE      O13            13.5665027741      -20.1386539830      -19.7672155282  MEMB      34              0.0000000000
     42967      1294  PPPE      O14            13.0037988401      -22.4809505117      -19.1015758975  MEMB      34              0.0000000000
     42968      1294  PPPE      O11            13.1597411449      -20.7564214637      -17.3761336763  MEMB      34              0.0000000000
     42969      1294  PPPE      O12            15.1665131479      -21.4800671149      -18.5910073726  MEMB      34              0.0000000000
     42970      1294  PPPE      C1             13.6625025997      -19.6627000875      -16.6086192787  MEMB      34              0.0000000000
     42971      1294  PPPE      HA             12.7962498050      -19.0222640283      -16.3370152477  MEMB      34              0.0000000000
     42972      1294  PPPE      HB             14.3669511749      -19.0370645392      -17.1973920409  MEMB      34              0.0000000000
     42973      1294  PPPE      C2             14.2797433435      -20.2609325901      -15.3243503859  MEMB      34              0.0000000000
     42974      1294  PPPE      HS             15.2230440151      -20.7333141349      -15.6727187532  MEMB      34              0.0000000000
     42975      1294  PPPE      O21            13.2854906639      -21.1001965838      -14.7176213097  MEMB      34              0.0000000000
     42976      1294  PPPE      C21            13.8380333400      -22.1280644186      -13.9329144268  MEMB      34              0.0000000000
     42977      1294  PPPE      O22            15.0037276845      -22.5309810350      -13.9649471428  MEMB      34              0.0000000000
     42978      1294  PPPE      C22            12.7648133589      -22.6849405796      -13.0302233234  MEMB      34              0.0000000000
     42979      1294  PPPE      H2R            13.2714120065      -23.2865451529      -12.2455254530  MEMB      34              0.0000000000
     42980      1294  PPPE      H2S            12.0590737354      -23.2960486256      -13.6325517553  MEMB      34              0.0000000000
     42981      1294  PPPE      C3             14.7344253485      -19.1318051237      -14.3489193109  MEMB      34              0.0000000000
     42982      1294  PPPE      HX             15.4196974686      -18.5164906568      -14.9702978011  MEMB      34              0.0000000000
     42983      1294  PPPE      HY             13.9998742427      -18.3821485136      -13.9845422535  MEMB      34              0.0000000000
     42984      1294  PPPE      O31            15.4069976633      -19.7637509389      -13.1865956228  MEMB      34              0.0000000000
     42985      1294  PPPE      C31            16.6869873711      -20.1656913498      -13.3667834199  MEMB      34              0.0000000000
     42986      1294  PPPE      O32            17.3144422619      -19.8766639180      -14.3796926112  MEMB      34              0.0000000000
     42987      1294  PPPE      C32            17.2107136180      -20.9201941121      -12.1295886914  MEMB      34              0.0000000000
     42988      1294  PPPE      H2X            18.2808439625      -21.1749028879      -12.2853625182  MEMB      34              0.0000000000
     42989      1294  PPPE      H2Y            16.6348891589      -21.8513392453      -11.9406020965  MEMB      34              0.0000000000
     42990      1294  PPPE      C23            12.0838109956      -21.5972493491      -12.1146458996  MEMB      34              0.0000000000
     42991      1294  PPPE      H3R            11.2022459967      -22.1834234757      -11.7776532498  MEMB      34              0.0000000000
     42992      1294  PPPE      H3S            11.6671987287      -20.7071552168      -12.6328038433  MEMB      34              0.0000000000
     42993      1294  PPPE      C24            13.0210813091      -20.9772874221      -11.0129258036  MEMB      34              0.0000000000
     42994      1294  PPPE      H4R            13.6240840427      -20.1968294663      -11.5243884928  MEMB      34              0.0000000000
     42995      1294  PPPE      H4S            13.7066272283      -21.7762843955      -10.6580291582  MEMB      34              0.0000000000
     42996      1294  PPPE      C25            12.1069589957      -20.3723008159       -9.9866760026  MEMB      34              0.0000000000
     42997      1294  PPPE      H5R            11.3226575427      -21.0539897908       -9.5936208254  MEMB      34              0.0000000000
     42998      1294  PPPE      H5S            11.5740943999      -19.6928844286      -10.6857966613  MEMB      34              0.0000000000
     42999      1294  PPPE      C26            12.6634043874      -19.5487199387       -8.8405819942  MEMB      34              0.0000000000
     43000      1294  PPPE      H6R            13.5259074815      -18.9493454816       -9.2027417281  MEMB      34              0.0000000000
     43001      1294  PPPE      H6S            12.9222436473      -20.2559439335       -8.0237849211  MEMB      34              0.0000000000
     43002      1294  PPPE      C27            11.6624620597      -18.4158862109       -8.3421688033  MEMB      34              0.0000000000
     43003      1294  PPPE      H7R            10.6531671509      -18.8794702050       -8.3150640561  MEMB      34              0.0000000000
     43004      1294  PPPE      H7S            11.6660725657      -17.6272959741       -9.1247500468  MEMB      34              0.0000000000
     43005      1294  PPPE      C28            12.2111392331      -17.8625673908       -7.0055774749  MEMB      34              0.0000000000
     43006      1294  PPPE      H8R            12.3664483944      -18.7632677021       -6.3739612832  MEMB      34              0.0000000000
     43007      1294  PPPE      H8S            11.4218129329      -17.2971472616       -6.4655912997  MEMB      34              0.0000000000
     43008      1294  PPPE      C29            13.3708934373      -16.9163945466       -7.2766907563  MEMB      34              0.0000000000
     43009      1294  PPPE      H91            12.9878469598      -15.9228551436       -7.5526524399  MEMB      34              0.0000000000
     43010      1294  PPPE      C210           14.6922569058      -17.0674532258       -6.9412654194  MEMB      34              0.0000000000
     43011      1294  PPPE      H101           15.3666628415      -16.2012849781       -7.0114736851  MEMB      34              0.0000000000
     43012      1294  PPPE      C211           15.2141680231      -18.2614767695       -6.2308882318  MEMB      34              0.0000000000
     43013      1294  PPPE      H11R           16.1624359328      -18.6108364138       -6.6924690051  MEMB      34              0.0000000000
     43014      1294  PPPE      H11S           14.4959651645      -19.0818367591       -6.0175454528  MEMB      34              0.0000000000
     43015      1294  PPPE      C212           15.6784265943      -17.7637206940       -4.8854309009  MEMB      34              0.0000000000
     43016      1294  PPPE      H12R           16.3318049331      -16.8652162774       -4.8750597912  MEMB      34              0.0000000000
     43017      1294  PPPE      H12S           16.1981951103      -18.6509724657       -4.4647814232  MEMB      34              0.0000000000
     43018      1294  PPPE      C213           14.6145267591      -17.5879311800       -3.7831840519  MEMB      34              0.0000000000
     43019      1294  PPPE      H13R           13.8057590300      -18.2900571727       -4.0785395170  MEMB      34              0.0000000000
     43020      1294  PPPE      H13S           14.1600401108      -16.5786607407       -3.8787668286  MEMB      34              0.0000000000
     43021      1294  PPPE      C214           15.2009306378      -17.8541194337       -2.4497313269  MEMB      34              0.0000000000
     43022      1294  PPPE      H14R           16.3001113205      -17.7588697455       -2.3191544389  MEMB      34              0.0000000000
     43023      1294  PPPE      H14S           14.9900974574      -18.8945658462       -2.1221009975  MEMB      34              0.0000000000
     43024      1294  PPPE      C215           14.4831983063      -17.0203573316       -1.3258663393  MEMB      34              0.0000000000
     43025      1294  PPPE      H15R           13.3860958548      -17.1677845308       -1.4204836296  MEMB      34              0.0000000000
     43026      1294  PPPE      H15S           14.7477010899      -15.9432246658       -1.3902441142  MEMB      34              0.0000000000
     43027      1294  PPPE      C216           14.8210350872      -17.5640408562        0.1288279158  MEMB      34              0.0000000000
     43028      1294  PPPE      H16R           14.1865798028      -17.0645618296        0.8919191253  MEMB      34              0.0000000000
     43029      1294  PPPE      H16S           14.7399365943      -18.6711069551        0.1751818492  MEMB      34              0.0000000000
     43030      1294  PPPE      H16T           15.8626012437      -17.2503318749        0.3547651120  MEMB      34              0.0000000000
     43031      1294  PPPE      C33            17.0483447088      -19.9808266321      -10.8894918421  MEMB      34              0.0000000000
     43032      1294  PPPE      H3X            16.0250222056      -19.5779214165      -10.7320134579  MEMB      34              0.0000000000
     43033      1294  PPPE      H3Y            17.5079059623      -18.9713794765      -10.9538416228  MEMB      34              0.0000000000
     43034      1294  PPPE      C34            17.5186226232      -20.5866593498       -9.5986185699  MEMB      34              0.0000000000
     43035      1294  PPPE      H4X            17.6724744692      -19.7670095695       -8.8645716728  MEMB      34              0.0000000000
     43036      1294  PPPE      H4Y            18.4402738167      -21.1344625278       -9.8898088096  MEMB      34              0.0000000000
     43037      1294  PPPE      C35            16.6175671191      -21.7141928468       -9.0491977478  MEMB      34              0.0000000000
     43038      1294  PPPE      H5X            16.6069017537      -22.4576882099       -9.8746805731  MEMB      34              0.0000000000
     43039      1294  PPPE      H5Y            15.6515924657      -21.1991087592       -8.8597185890  MEMB      34              0.0000000000
     43040      1294  PPPE      C36            16.9474692438      -22.3343199786       -7.7197073676  MEMB      34              0.0000000000
     43041      1294  PPPE      H6X            17.9103372386      -21.9017592607       -7.3731565777  MEMB      34              0.0000000000
     43042      1294  PPPE      H6Y            16.9172375853      -23.4417803523       -7.8030054323  MEMB      34              0.0000000000
     43043      1294  PPPE      C37            15.8371770936      -22.0680183986       -6.7518334109  MEMB      34              0.0000000000
     43044      1294  PPPE      H7X            14.8926514593      -22.5504133319       -7.0827222963  MEMB      34              0.0000000000
     43045      1294  PPPE      H7Y            15.6450151148      -20.9868611378       -6.5830324892  MEMB      34              0.0000000000
     43046      1294  PPPE      C38            16.1428085416      -22.5082792798       -5.2912103051  MEMB      34              0.0000000000
     43047      1294  PPPE      H8X            17.1756194856      -22.3156104080       -4.9299607241  MEMB      34              0.0000000000
     43048      1294  PPPE      H8Y            16.1332580511      -23.6191331726       -5.3064882984  MEMB      34              0.0000000000
     43049      1294  PPPE      C39            15.2618115522      -22.0085481200       -4.1670709187  MEMB      34              0.0000000000
     43050      1294  PPPE      H9X            15.4635449063      -20.9237037916       -4.0376976712  MEMB      34              0.0000000000
     43051      1294  PPPE      H9Y            15.5829405504      -22.5504246991       -3.2518840856  MEMB      34              0.0000000000
     43052      1294  PPPE      C310           13.7193117068      -22.0143001185       -4.3184796192  MEMB      34              0.0000000000
     43053      1294  PPPE      H10X           13.2502115019      -22.9931030277       -4.5555679205  MEMB      34              0.0000000000
     43054      1294  PPPE      H10Y           13.5085715212      -21.3284627180       -5.1667346719  MEMB      34              0.0000000000
     43055      1294  PPPE      C311           13.0391201971      -21.3943176219       -3.0597649544  MEMB      34              0.0000000000
     43056      1294  PPPE      H11X           13.5703791839      -20.5078824895       -2.6519443505  MEMB      34              0.0000000000
     43057      1294  PPPE      H11Y           12.8572510173      -22.2107354130       -2.3285286097  MEMB      34              0.0000000000
     43058      1294  PPPE      C312           11.6533625113      -20.8818068438       -3.3841991546  MEMB      34              0.0000000000
     43059      1294  PPPE      H12X           10.8844112818      -21.6508391343       -3.6114090639  MEMB      34              0.0000000000
     43060      1294  PPPE      H12Y           11.6881160074      -20.2892565914       -4.3233463171  MEMB      34              0.0000000000
     43061      1294  PPPE      C313           11.1396476026      -19.8772311981       -2.3001202646  MEMB      34              0.0000000000
     43062      1294  PPPE      H13X           10.1285739110      -19.5849383586       -2.6559515253  MEMB      34              0.0000000000
     43063      1294  PPPE      H13Y           11.8587033683      -19.0333362768       -2.2285579303  MEMB      34              0.0000000000
     43064      1294  PPPE      C314           10.9735730488      -20.5111230935       -0.8763271768  MEMB      34              0.0000000000
     43065      1294  PPPE      H14X           12.0052104758      -20.6950284453       -0.5072417655  MEMB      34              0.0000000000
     43066      1294  PPPE      H14Y           10.5358438724      -21.5254027348       -0.9944414327  MEMB      34              0.0000000000
     43067      1294  PPPE      C315           10.1161290749      -19.6732397264        0.0874829036  MEMB      34              0.0000000000
     43068      1294  PPPE      H15X            9.6307970990      -20.3507328786        0.8221780117  MEMB      34              0.0000000000
     43069      1294  PPPE      H15Y            9.2816393051      -19.4045266038       -0.5949693525  MEMB      34              0.0000000000
     43070      1294  PPPE      C316           10.7293507260      -18.5229353844        0.7768416034  MEMB      34              0.0000000000
     43071      1294  PPPE      H16X           11.3725648023      -18.7805308642        1.6453122252  MEMB      34              0.0000000000
     43072      1294  PPPE      H16Y           11.3135615058      -17.9653148982        0.0139011351  MEMB      34              0.0000000000
     43073      1294  PPPE      H16Z            9.9685170364      -17.8078749562        1.1565015575  MEMB      34              0.0000000000
     43074      1295  PPPE      N             -25.4281929529        2.4521908872      -22.2489030796  MEMB      35              0.0000000000
     43075      1295  PPPE      HN1           -24.5712629589        3.0407085230      -22.2792012266  MEMB      35              0.0000000000
     43076      1295  PPPE      HN2           -25.2612396100        1.6264852991      -22.8587693462  MEMB      35              0.0000000000
     43077      1295  PPPE      HN3           -26.2537676910        2.9543609133      -22.6334178605  MEMB      35              0.0000000000
     43078      1295  PPPE      C12           -25.8818626992        2.0388961226      -20.8841596495  MEMB      35              0.0000000000
     43079      1295  PPPE      H12A          -25.0081484449        1.9554505618      -20.2029979652  MEMB      35              0.0000000000
     43080      1295  PPPE      H12B          -26.3194852258        1.0236102609      -20.9937139428  MEMB      35              0.0000000000
     43081      1295  PPPE      C11           -26.8013507559        3.1585243192      -20.3071101806  MEMB      35              0.0000000000
     43082      1295  PPPE      H11A          -27.7420080098        3.3411993760      -20.8693510137  MEMB      35              0.0000000000
     43083      1295  PPPE      H11B          -26.3070981679        4.1489785744      -20.4021667298  MEMB      35              0.0000000000
     43084      1295  PPPE      P             -26.2491326409        3.4615085696      -17.6977189104  MEMB      35              0.0000000000
     43085      1295  PPPE      O13           -24.9225419307        3.8403835381      -18.2051136473  MEMB      35              0.0000000000
     43086      1295  PPPE      O14           -26.9972136341        4.4895419832      -16.9630107435  MEMB      35              0.0000000000
     43087      1295  PPPE      O11           -26.1730255073        2.1872290154      -16.7702044906  MEMB      35              0.0000000000
     43088      1295  PPPE      O12           -27.0936854496        2.9294664334      -18.9237791341  MEMB      35              0.0000000000
     43089      1295  PPPE      C1            -27.3046383672        1.8180976892      -15.9899359909  MEMB      35              0.0000000000
     43090      1295  PPPE      HA            -27.4154863553        0.7143353423      -15.9287607900  MEMB      35              0.0000000000
     43091      1295  PPPE      HB            -28.2176950294        2.1767707809      -16.5114742397  MEMB      35              0.0000000000
     43092      1295  PPPE      C2            -26.9727453211        2.1593468239      -14.5855526089  MEMB      35              0.0000000000
     43093      1295  PPPE      HS            -26.7447526472        3.2307622339      -14.4000550084  MEMB      35              0.0000000000
     43094      1295  PPPE      O21           -25.7912409633        1.3908241330      -14.1561365389  MEMB      35              0.0000000000
     43095      1295  PPPE      C21           -24.6911045708        2.1198491343      -13.6676011343  MEMB      35              0.0000000000
     43096      1295  PPPE      O22           -24.7535550960        3.3305680511      -13.4487584560  MEMB      35              0.0000000000
     43097      1295  PPPE      C22           -23.5588022759        1.2343087042      -13.3987145557  MEMB      35              0.0000000000
     43098      1295  PPPE      H2R           -22.7534877182        1.7928578041      -12.8754437213  MEMB      35              0.0000000000
     43099      1295  PPPE      H2S           -23.1996176382        0.7056240379      -14.3074498965  MEMB      35              0.0000000000
     43100      1295  PPPE      C3            -28.1960767950        1.8478421165      -13.6466813285  MEMB      35              0.0000000000
     43101      1295  PPPE      HX            -29.1048984047        2.3798501714      -14.0007035189  MEMB      35              0.0000000000
     43102      1295  PPPE      HY            -28.4431391849        0.7711562414      -13.7651241482  MEMB      35              0.0000000000
     43103      1295  PPPE      O31           -27.8799384770        2.0313480204      -12.2697822674  MEMB      35              0.0000000000
     43104      1295  PPPE      C31           -27.8843828467        3.3580749926      -11.9062950062  MEMB      35              0.0000000000
     43105      1295  PPPE      O32           -28.1541140525        4.2941575647      -12.6544672634  MEMB      35              0.0000000000
     43106      1295  PPPE      C32           -27.3039630703        3.5138835960      -10.4725086680  MEMB      35              0.0000000000
     43107      1295  PPPE      H2X           -27.2593306386        2.4957390449      -10.0301167387  MEMB      35              0.0000000000
     43108      1295  PPPE      H2Y           -28.0206686878        4.1859564732       -9.9538834609  MEMB      35              0.0000000000
     43109      1295  PPPE      C23           -23.9777298777        0.1271040343      -12.3247022023  MEMB      35              0.0000000000
     43110      1295  PPPE      H3R           -23.0005149783       -0.2118796332      -11.9191629150  MEMB      35              0.0000000000
     43111      1295  PPPE      H3S           -24.4674033324       -0.7707139460      -12.7588263574  MEMB      35              0.0000000000
     43112      1295  PPPE      C24           -24.8052740856        0.6469732964      -11.1831698246  MEMB      35              0.0000000000
     43113      1295  PPPE      H4R           -25.7498646893        1.1330913659      -11.5083756268  MEMB      35              0.0000000000
     43114      1295  PPPE      H4S           -24.1752984049        1.3792123715      -10.6342822418  MEMB      35              0.0000000000
     43115      1295  PPPE      C25           -25.2534075468       -0.4533549761      -10.1769565301  MEMB      35              0.0000000000
     43116      1295  PPPE      H5R           -24.2970760172       -0.8576785880       -9.7816421967  MEMB      35              0.0000000000
     43117      1295  PPPE      H5S           -25.7695963962       -1.1591202429      -10.8623509129  MEMB      35              0.0000000000
     43118      1295  PPPE      C26           -26.0844814774        0.1061513472       -8.9605080137  MEMB      35              0.0000000000
     43119      1295  PPPE      H6R           -27.1263331455        0.3688940047       -9.2430542889  MEMB      35              0.0000000000
     43120      1295  PPPE      H6S           -25.4499510947        0.9904575935       -8.7375850314  MEMB      35              0.0000000000
     43121      1295  PPPE      C27           -26.1005048819       -0.7304972477       -7.6512191868  MEMB      35              0.0000000000
     43122      1295  PPPE      H7R           -25.0586398110       -0.7966631416       -7.2711399206  MEMB      35              0.0000000000
     43123      1295  PPPE      H7S           -26.5349985119       -1.7381055610       -7.8251782979  MEMB      35              0.0000000000
     43124      1295  PPPE      C28           -26.9747174719       -0.0702619123       -6.5912735343  MEMB      35              0.0000000000
     43125      1295  PPPE      H8R           -28.0273463522       -0.2290040575       -6.9092269454  MEMB      35              0.0000000000
     43126      1295  PPPE      H8S           -26.7442354505        1.0162282339       -6.5641036980  MEMB      35              0.0000000000
     43127      1295  PPPE      C29           -26.8020447460       -0.6148487897       -5.2261570806  MEMB      35              0.0000000000
     43128      1295  PPPE      H91           -27.3760329381       -1.5072222907       -4.9359725012  MEMB      35              0.0000000000
     43129      1295  PPPE      C210          -26.1178620116        0.0054163989       -4.2565757236  MEMB      35              0.0000000000
     43130      1295  PPPE      H101          -25.9486105011       -0.4478365296       -3.2686912623  MEMB      35              0.0000000000
     43131      1295  PPPE      C211          -25.4105458740        1.3042662718       -4.3238069744  MEMB      35              0.0000000000
     43132      1295  PPPE      H11R          -24.8781066967        1.5624222993       -5.2641180868  MEMB      35              0.0000000000
     43133      1295  PPPE      H11S          -24.6386290950        1.2970677272       -3.5247990475  MEMB      35              0.0000000000
     43134      1295  PPPE      C212          -26.3693831486        2.4741303525       -4.1154488689  MEMB      35              0.0000000000
     43135      1295  PPPE      H12R          -27.0172470076        2.5079818972       -5.0173621093  MEMB      35              0.0000000000
     43136      1295  PPPE      H12S          -25.7711495276        3.4014231884       -3.9867417157  MEMB      35              0.0000000000
     43137      1295  PPPE      C213          -27.2487950170        2.3433806297       -2.8330912567  MEMB      35              0.0000000000
     43138      1295  PPPE      H13R          -27.7854829560        1.3706151303       -2.8368779743  MEMB      35              0.0000000000
     43139      1295  PPPE      H13S          -27.9288999402        3.2109145556       -2.6946601148  MEMB      35              0.0000000000
     43140      1295  PPPE      C214          -26.4849528881        2.3187587541       -1.5058415293  MEMB      35              0.0000000000
     43141      1295  PPPE      H14R          -25.6984142812        1.5474312333       -1.6498272069  MEMB      35              0.0000000000
     43142      1295  PPPE      H14S          -27.1944844970        2.0235890384       -0.7034945127  MEMB      35              0.0000000000
     43143      1295  PPPE      C215          -25.8840927020        3.6927491702       -1.0991151860  MEMB      35              0.0000000000
     43144      1295  PPPE      H15R          -25.1662616116        3.9877677220       -1.8941017141  MEMB      35              0.0000000000
     43145      1295  PPPE      H15S          -25.2223214398        3.3992702264       -0.2563519297  MEMB      35              0.0000000000
     43146      1295  PPPE      C216          -26.7691750703        4.8208522249       -0.5943412802  MEMB      35              0.0000000000
     43147      1295  PPPE      H16R          -27.0752126141        5.3687568031       -1.5111087508  MEMB      35              0.0000000000
     43148      1295  PPPE      H16S          -27.6139028743        4.5231581354        0.0630278445  MEMB      35              0.0000000000
     43149      1295  PPPE      H16T          -26.1675063504        5.5362817048        0.0060555974  MEMB      35              0.0000000000
     43150      1295  PPPE      C33           -25.9109418071        4.2376890927      -10.4893077705  MEMB      35              0.0000000000
     43151      1295  PPPE      H3X           -26.0691325497        5.2608397680      -10.8923702776  MEMB      35              0.0000000000
     43152      1295  PPPE      H3Y           -25.1903463432        3.6702180724      -11.1162366489  MEMB      35              0.0000000000
     43153      1295  PPPE      C34           -25.4356007819        4.4085168921       -9.0555062283  MEMB      35              0.0000000000
     43154      1295  PPPE      H4X           -25.2557449746        3.4415189100       -8.5388943903  MEMB      35              0.0000000000
     43155      1295  PPPE      H4Y           -26.1447538625        4.9558821437       -8.3983805253  MEMB      35              0.0000000000
     43156      1295  PPPE      C35           -24.0647246008        5.1701326207       -8.9806996857  MEMB      35              0.0000000000
     43157      1295  PPPE      H5X           -23.8535665455        5.3738592677       -7.9091453339  MEMB      35              0.0000000000
     43158      1295  PPPE      H5Y           -24.1882786502        6.1447765280       -9.4994719392  MEMB      35              0.0000000000
     43159      1295  PPPE      C36           -22.8573182584        4.4430857204       -9.6118031145  MEMB      35              0.0000000000
     43160      1295  PPPE      H6X           -21.9418662328        5.0674102422       -9.5312582190  MEMB      35              0.0000000000
     43161      1295  PPPE      H6Y           -23.0402780980        4.1428733199      -10.6657097572  MEMB      35              0.0000000000
     43162      1295  PPPE      C37           -22.4391418828        3.1522992885       -8.8176618621  MEMB      35              0.0000000000
     43163      1295  PPPE      H7X           -23.2444216002        2.3959276752       -8.9349118490  MEMB      35              0.0000000000
     43164      1295  PPPE      H7Y           -22.4732723116        3.5568186171       -7.7834857521  MEMB      35              0.0000000000
     43165      1295  PPPE      C38           -21.0024262249        2.6148009750       -8.9285103023  MEMB      35              0.0000000000
     43166      1295  PPPE      H8X           -20.2103969204        3.3708791054       -8.7404772167  MEMB      35              0.0000000000
     43167      1295  PPPE      H8Y           -20.7884095701        2.3633003130       -9.9892955249  MEMB      35              0.0000000000
     43168      1295  PPPE      C39           -20.6875339705        1.4504553410       -7.9695593700  MEMB      35              0.0000000000
     43169      1295  PPPE      H9X           -19.6317621788        1.1149460970       -8.0538236611  MEMB      35              0.0000000000
     43170      1295  PPPE      H9Y           -21.4270330248        0.6708789888       -8.2519117379  MEMB      35              0.0000000000
     43171      1295  PPPE      C310          -20.9707874903        1.8453410465       -6.4969171655  MEMB      35              0.0000000000
     43172      1295  PPPE      H10X          -22.0051652084        2.2065154826       -6.3126978311  MEMB      35              0.0000000000
     43173      1295  PPPE      H10Y          -20.4738040733        2.7885642309       -6.1844135535  MEMB      35              0.0000000000
     43174      1295  PPPE      C311          -20.7406607700        0.7053179259       -5.5516307153  MEMB      35              0.0000000000
     43175      1295  PPPE      H11X          -19.6438659671        0.5350832138       -5.5028218712  MEMB      35              0.0000000000
     43176      1295  PPPE      H11Y          -21.0738535947       -0.2191497971       -6.0699578039  MEMB      35              0.0000000000
     43177      1295  PPPE      C312          -21.5985355249        0.6538141937       -4.3222086963  MEMB      35              0.0000000000
     43178      1295  PPPE      H12X          -21.9898358665       -0.3584385885       -4.0844076289  MEMB      35              0.0000000000
     43179      1295  PPPE      H12Y          -22.5464513529        1.2172782712       -4.4574300580  MEMB      35              0.0000000000
     43180      1295  PPPE      C313          -20.9454290966        1.3133637156       -3.0546306181  MEMB      35              0.0000000000
     43181      1295  PPPE      H13X          -20.3296848331        2.1593903454       -3.4280190803  MEMB      35              0.0000000000
     43182      1295  PPPE      H13Y          -20.2819139751        0.4816021214       -2.7348786298  MEMB      35              0.0000000000
     43183      1295  PPPE      C314          -21.9583515718        1.8710412688       -2.0833214805  MEMB      35              0.0000000000
     43184      1295  PPPE      H14X          -22.4330859747        0.9384957547       -1.7100828025  MEMB      35              0.0000000000
     43185      1295  PPPE      H14Y          -22.6322193447        2.4799629580       -2.7231945937  MEMB      35              0.0000000000
     43186      1295  PPPE      C315          -21.2478911646        2.8196546521       -1.1243195760  MEMB      35              0.0000000000
     43187      1295  PPPE      H15X          -20.7711380407        3.5899502020       -1.7674931331  MEMB      35              0.0000000000
     43188      1295  PPPE      H15Y          -20.4573930880        2.3612987206       -0.4923831624  MEMB      35              0.0000000000
     43189      1295  PPPE      C316          -22.1361764703        3.5419568779       -0.1759211657  MEMB      35              0.0000000000
     43190      1295  PPPE      H16X          -21.5378226532        3.8738261784        0.6993824827  MEMB      35              0.0000000000
     43191      1295  PPPE      H16Y          -22.8330291258        4.2831316750       -0.6224380148  MEMB      35              0.0000000000
     43192      1295  PPPE      H16Z          -22.9215860789        2.9105883616        0.2918678287  MEMB      35              0.0000000000
     43193      1296  PVPG      C13           -26.4323757731        9.0749254713      -21.5592930822  MEMB      36              0.0000000000
     43194      1296  PVPG      H13A          -26.3875881830        8.1521379226      -22.1763654690  MEMB      36              0.0000000000
     43195      1296  PVPG      H13B          -27.4703772651        9.3179422740      -21.2465366215  MEMB      36              0.0000000000
     43196      1296  PVPG      OC3           -26.2551417956       10.0627316510      -22.5401142787  MEMB      36              0.0000000000
     43197      1296  PVPG      HO3           -26.9066417784       10.7501309890      -22.3831750259  MEMB      36              0.0000000000
     43198      1296  PVPG      C12           -25.5849766462        8.9827833300      -20.3000707076  MEMB      36              0.0000000000
     43199      1296  PVPG      H12A          -24.5203513665        8.9077465385      -20.6221289845  MEMB      36              0.0000000000
     43200      1296  PVPG      OC2           -25.9103165453        7.7967461270      -19.5737714628  MEMB      36              0.0000000000
     43201      1296  PVPG      HO2           -25.4149438746        7.9095422941      -18.7331765653  MEMB      36              0.0000000000
     43202      1296  PVPG      C11           -25.7478609026       10.2156786642      -19.4412785657  MEMB      36              0.0000000000
     43203      1296  PVPG      H11A          -26.8025060893       10.3908220984      -19.1390052248  MEMB      36              0.0000000000
     43204      1296  PVPG      H11B          -25.4650320063       11.1381853291      -19.9920147012  MEMB      36              0.0000000000
     43205      1296  PVPG      P             -25.0308276177       11.2288507310      -17.2741041138  MEMB      36              0.0000000000
     43206      1296  PVPG      O13           -24.7323647617       12.4994624728      -18.0876068552  MEMB      36              0.0000000000
     43207      1296  PVPG      O14           -24.1248630170       10.9118155755      -16.1660628522  MEMB      36              0.0000000000
     43208      1296  PVPG      O12           -24.9875271319       10.0300710562      -18.2635780692  MEMB      36              0.0000000000
     43209      1296  PVPG      O11           -26.5527498318       11.4088946289      -16.7941200158  MEMB      36              0.0000000000
     43210      1296  PVPG      C1            -27.2053767511       10.3875354826      -16.1444671324  MEMB      36              0.0000000000
     43211      1296  PVPG      HA            -26.6930966281        9.4029528445      -16.1943381188  MEMB      36              0.0000000000
     43212      1296  PVPG      HB            -28.1826492303       10.1365354773      -16.6095029723  MEMB      36              0.0000000000
     43213      1296  PVPG      C2            -27.5949586227       10.5790974654      -14.6128097149  MEMB      36              0.0000000000
     43214      1296  PVPG      HS            -28.3910040779       11.3536177806      -14.6402162489  MEMB      36              0.0000000000
     43215      1296  PVPG      O21           -26.4210762718       11.1558690438      -13.9261733862  MEMB      36              0.0000000000
     43216      1296  PVPG      C21           -26.8081833461       11.8133062939      -12.7592718142  MEMB      36              0.0000000000
     43217      1296  PVPG      O22           -27.9439471985       11.9213417784      -12.3978070205  MEMB      36              0.0000000000
     43218      1296  PVPG      C22           -25.5248993184       12.4412202506      -12.0871553461  MEMB      36              0.0000000000
     43219      1296  PVPG      H2R           -25.4023980742       13.4956507907      -12.4150128750  MEMB      36              0.0000000000
     43220      1296  PVPG      H2S           -24.6720814508       11.7624029839      -12.3021662466  MEMB      36              0.0000000000
     43221      1296  PVPG      C3            -28.0310064113        9.2540024155      -13.9895398738  MEMB      36              0.0000000000
     43222      1296  PVPG      HX            -28.1570271063        9.3862590753      -12.8936625329  MEMB      36              0.0000000000
     43223      1296  PVPG      HY            -29.0196377245        9.0186990209      -14.4384960048  MEMB      36              0.0000000000
     43224      1296  PVPG      O31           -27.0394558994        8.2425972018      -14.2488622171  MEMB      36              0.0000000000
     43225      1296  PVPG      C31           -26.0376195904        8.1144659270      -13.3987298509  MEMB      36              0.0000000000
     43226      1296  PVPG      O32           -25.9397949692        8.6630502710      -12.3097195046  MEMB      36              0.0000000000
     43227      1296  PVPG      C32           -25.0950386749        7.0919811929      -14.0196898192  MEMB      36              0.0000000000
     43228      1296  PVPG      H2X           -24.0508662627        7.4523764383      -13.9007773913  MEMB      36              0.0000000000
     43229      1296  PVPG      H2Y           -25.3574106568        6.9758316728      -15.0929984460  MEMB      36              0.0000000000
     43230      1296  PVPG      C23           -25.6525262909       12.4169568977      -10.5092389961  MEMB      36              0.0000000000
     43231      1296  PVPG      H3R           -26.6424206430       12.8654614280      -10.2784277687  MEMB      36              0.0000000000
     43232      1296  PVPG      H3S           -24.8263080339       13.1184583895      -10.2651495522  MEMB      36              0.0000000000
     43233      1296  PVPG      C24           -25.5379212121       11.0729368571       -9.9100552339  MEMB      36              0.0000000000
     43234      1296  PVPG      H4R           -24.6472887066       10.6080774310      -10.3843976049  MEMB      36              0.0000000000
     43235      1296  PVPG      H4S           -26.3842880851       10.3684234425      -10.0571773650  MEMB      36              0.0000000000
     43236      1296  PVPG      C25           -25.4109594576       10.9361846318       -8.3543122838  MEMB      36              0.0000000000
     43237      1296  PVPG      H5R           -25.3314910787        9.8639689073       -8.0743855234  MEMB      36              0.0000000000
     43238      1296  PVPG      H5S           -26.4363035974       11.1761603291       -8.0001906555  MEMB      36              0.0000000000
     43239      1296  PVPG      C26           -24.3695119928       11.7490266549       -7.6111176422  MEMB      36              0.0000000000
     43240      1296  PVPG      H6R           -24.5043929555       11.5578517063       -6.5250328755  MEMB      36              0.0000000000
     43241      1296  PVPG      H6S           -24.7971513200       12.7586819835       -7.7901198607  MEMB      36              0.0000000000
     43242      1296  PVPG      C27           -22.9695397699       11.5883487726       -8.0958681005  MEMB      36              0.0000000000
     43243      1296  PVPG      H7R           -22.8398884337       12.2417364768       -8.9850224863  MEMB      36              0.0000000000
     43244      1296  PVPG      H7S           -22.6304583289       10.5699639853       -8.3826386311  MEMB      36              0.0000000000
     43245      1296  PVPG      C28           -21.8954472353       11.9270886869       -7.0272120123  MEMB      36              0.0000000000
     43246      1296  PVPG      H8R           -21.8459410033       11.0078362311       -6.4052435013  MEMB      36              0.0000000000
     43247      1296  PVPG      H8S           -22.1379530868       12.8940678309       -6.5368421929  MEMB      36              0.0000000000
     43248      1296  PVPG      C29           -20.4746150286       11.9029104670       -7.4962155001  MEMB      36              0.0000000000
     43249      1296  PVPG      H9R           -20.4775882117       12.7219210422       -8.2469051057  MEMB      36              0.0000000000
     43250      1296  PVPG      H9S           -20.2612449975       10.9825534226       -8.0807993465  MEMB      36              0.0000000000
     43251      1296  PVPG      C210          -19.4905811229       12.0329538646       -6.3073171508  MEMB      36              0.0000000000
     43252      1296  PVPG      H10R          -19.6559088495       13.0467800171       -5.8840619472  MEMB      36              0.0000000000
     43253      1296  PVPG      H10S          -18.4946153449       12.0210796620       -6.7994878390  MEMB      36              0.0000000000
     43254      1296  PVPG      C211          -19.5720131292       11.0048891679       -5.2098603980  MEMB      36              0.0000000000
     43255      1296  PVPG      H111          -19.1427385327       10.0518649087       -5.5525962962  MEMB      36              0.0000000000
     43256      1296  PVPG      C212          -20.1002941203       11.1651655708       -3.9709879372  MEMB      36              0.0000000000
     43257      1296  PVPG      H121          -20.1483671637       10.3151601995       -3.2744392502  MEMB      36              0.0000000000
     43258      1296  PVPG      C213          -20.8492177484       12.3846328423       -3.4250396611  MEMB      36              0.0000000000
     43259      1296  PVPG      H13R          -21.4420912964       12.8559544706       -4.2378599371  MEMB      36              0.0000000000
     43260      1296  PVPG      H13S          -20.2028021110       13.1541292130       -2.9513912275  MEMB      36              0.0000000000
     43261      1296  PVPG      C214          -21.8832798625       11.8735962086       -2.4724546526  MEMB      36              0.0000000000
     43262      1296  PVPG      H14R          -21.2702656109       11.1914721867       -1.8453660052  MEMB      36              0.0000000000
     43263      1296  PVPG      H14S          -22.6802529500       11.2641795580       -2.9497033265  MEMB      36              0.0000000000
     43264      1296  PVPG      C215          -22.4158192552       12.9258775945       -1.5446382735  MEMB      36              0.0000000000
     43265      1296  PVPG      H15R          -21.5408701734       13.3816571971       -1.0337068285  MEMB      36              0.0000000000
     43266      1296  PVPG      H15S          -23.1628282730       12.5361239457       -0.8204891796  MEMB      36              0.0000000000
     43267      1296  PVPG      C216          -23.1889295117       14.0281919678       -2.3183019562  MEMB      36              0.0000000000
     43268      1296  PVPG      H16R          -24.1423179390       13.6526209927       -2.7476264132  MEMB      36              0.0000000000
     43269      1296  PVPG      H16S          -22.5886070037       14.4108585087       -3.1712387787  MEMB      36              0.0000000000
     43270      1296  PVPG      C217          -23.4821400939       15.3416713765       -1.5277195653  MEMB      36              0.0000000000
     43271      1296  PVPG      H17R          -23.6106135612       16.1355613915       -2.2942407160  MEMB      36              0.0000000000
     43272      1296  PVPG      H17S          -22.5887837715       15.6132297471       -0.9256480395  MEMB      36              0.0000000000
     43273      1296  PVPG      C218          -24.6651458338       15.2212490499       -0.5649530748  MEMB      36              0.0000000000
     43274      1296  PVPG      H18R          -25.5244188534       14.7938027939       -1.1246495683  MEMB      36              0.0000000000
     43275      1296  PVPG      H18S          -24.4666611530       14.5537532010        0.3007104788  MEMB      36              0.0000000000
     43276      1296  PVPG      H18T          -24.9210183336       16.1997095356       -0.1050987065  MEMB      36              0.0000000000
     43277      1296  PVPG      C33           -25.2802848226        5.7203693505      -13.2301180760  MEMB      36              0.0000000000
     43278      1296  PVPG      H3X           -24.5854373461        5.0215345215      -13.7430880364  MEMB      36              0.0000000000
     43279      1296  PVPG      H3Y           -26.2964651601        5.2928124932      -13.3675732995  MEMB      36              0.0000000000
     43280      1296  PVPG      C34           -24.8898935753        5.6062464448      -11.7484107870  MEMB      36              0.0000000000
     43281      1296  PVPG      H4X           -24.8611158879        4.5164306140      -11.5344157014  MEMB      36              0.0000000000
     43282      1296  PVPG      H4Y           -25.6507755329        6.1605489468      -11.1583864892  MEMB      36              0.0000000000
     43283      1296  PVPG      C35           -23.4559767160        6.0841504957      -11.3547177828  MEMB      36              0.0000000000
     43284      1296  PVPG      H5X           -23.2172866714        7.1315900430      -11.6379469457  MEMB      36              0.0000000000
     43285      1296  PVPG      H5Y           -22.7678815535        5.4438654659      -11.9470694035  MEMB      36              0.0000000000
     43286      1296  PVPG      C36           -23.0074996397        5.9814118982       -9.8755582741  MEMB      36              0.0000000000
     43287      1296  PVPG      H6X           -21.9226584537        6.2165647970       -9.9218562185  MEMB      36              0.0000000000
     43288      1296  PVPG      H6Y           -23.0667747257        4.9342922055       -9.5090230453  MEMB      36              0.0000000000
     43289      1296  PVPG      C37           -23.6793249318        7.0122117138       -8.8712445642  MEMB      36              0.0000000000
     43290      1296  PVPG      H7X           -24.6569214566        6.7247836889       -8.4285128228  MEMB      36              0.0000000000
     43291      1296  PVPG      H7Y           -23.6659776772        7.9752537445       -9.4250430646  MEMB      36              0.0000000000
     43292      1296  PVPG      C38           -22.8432227478        7.1673097124       -7.6094692441  MEMB      36              0.0000000000
     43293      1296  PVPG      H8X           -21.9839216482        7.8344737288       -7.8348906504  MEMB      36              0.0000000000
     43294      1296  PVPG      H8Y           -22.5950016575        6.1344960949       -7.2838868676  MEMB      36              0.0000000000
     43295      1296  PVPG      C39           -23.6176850181        7.8753190316       -6.5160617784  MEMB      36              0.0000000000
     43296      1296  PVPG      H9X           -24.4034616632        7.2690286418       -6.0167746820  MEMB      36              0.0000000000
     43297      1296  PVPG      H9Y           -24.0893519358        8.7820414112       -6.9516145724  MEMB      36              0.0000000000
     43298      1296  PVPG      C310          -22.8524420612        8.2745573026       -5.3016564936  MEMB      36              0.0000000000
     43299      1296  PVPG      H10X          -22.1200597239        9.0786055995       -5.5284671992  MEMB      36              0.0000000000
     43300      1296  PVPG      H10Y          -22.3141575953        7.4506381772       -4.7861680327  MEMB      36              0.0000000000
     43301      1296  PVPG      C311          -23.7962081003        8.8107312752       -4.1513496135  MEMB      36              0.0000000000
     43302      1296  PVPG      H11X          -23.1759012746        9.0489564841       -3.2609624913  MEMB      36              0.0000000000
     43303      1296  PVPG      H11Y          -24.5753838015        8.0188109995       -4.1430754734  MEMB      36              0.0000000000
     43304      1296  PVPG      C312          -24.6690232026        9.9790796621       -4.5191595318  MEMB      36              0.0000000000
     43305      1296  PVPG      H12X          -25.2254054829        9.8113694732       -5.4660661327  MEMB      36              0.0000000000
     43306      1296  PVPG      H12Y          -23.9690349518       10.8099899700       -4.7513779451  MEMB      36              0.0000000000
     43307      1296  PVPG      C313          -25.6244120135       10.4285633392       -3.4623273571  MEMB      36              0.0000000000
     43308      1296  PVPG      H13X          -25.1188575406       10.6341636428       -2.4946173005  MEMB      36              0.0000000000
     43309      1296  PVPG      H13Y          -26.3593925247        9.6262117329       -3.2379248156  MEMB      36              0.0000000000
     43310      1296  PVPG      C314          -26.4435356572       11.5910248990       -3.9627000646  MEMB      36              0.0000000000
     43311      1296  PVPG      H14X          -26.7168764124       11.2129810384       -4.9710099966  MEMB      36              0.0000000000
     43312      1296  PVPG      H14Y          -25.8832870247       12.4716769176       -4.3433504566  MEMB      36              0.0000000000
     43313      1296  PVPG      C315          -27.6402043426       11.9823630243       -3.1747696854  MEMB      36              0.0000000000
     43314      1296  PVPG      H15X          -28.4550820848       11.2411789542       -3.0300576960  MEMB      36              0.0000000000
     43315      1296  PVPG      H15Y          -28.0092192354       12.8934604616       -3.6925056551  MEMB      36              0.0000000000
     43316      1296  PVPG      C316          -27.3335582340       12.3608306724       -1.7229042466  MEMB      36              0.0000000000
     43317      1296  PVPG      H16X          -26.7903155725       11.5222012661       -1.2372003458  MEMB      36              0.0000000000
     43318      1296  PVPG      H16Y          -26.6064784715       13.2006752678       -1.7045475258  MEMB      36              0.0000000000
     43319      1296  PVPG      H16Z          -28.3203526754       12.5622142312       -1.2538603145  MEMB      36              0.0000000000
     43320      1297  PVPG      C13            -1.1932064945      -29.3085790130      -21.0951811352  MEMB      37              0.0000000000
     43321      1297  PVPG      H13A           -2.1647135076      -29.8020463054      -20.8784208667  MEMB      37              0.0000000000
     43322      1297  PVPG      H13B           -1.0508855096      -29.1773117188      -22.1891805231  MEMB      37              0.0000000000
     43323      1297  PVPG      OC3            -0.0702509299      -30.1271673732      -20.5994624456  MEMB      37              0.0000000000
     43324      1297  PVPG      HO3            -0.3104005514      -30.2312746766      -19.6758338955  MEMB      37              0.0000000000
     43325      1297  PVPG      C12            -1.2906846569      -27.8480951337      -20.4296753649  MEMB      37              0.0000000000
     43326      1297  PVPG      H12A           -2.0934906296      -27.2920845026      -20.9673869868  MEMB      37              0.0000000000
     43327      1297  PVPG      OC2            -0.0641678883      -27.1400556515      -20.6150873331  MEMB      37              0.0000000000
     43328      1297  PVPG      HO2            -0.1869710300      -26.3370443984      -20.0629920915  MEMB      37              0.0000000000
     43329      1297  PVPG      C11            -1.6499848396      -27.9138824566      -18.9928723176  MEMB      37              0.0000000000
     43330      1297  PVPG      H11A           -1.0936240311      -28.7247983383      -18.4759592483  MEMB      37              0.0000000000
     43331      1297  PVPG      H11B           -2.6817675531      -28.3188619535      -18.9171287471  MEMB      37              0.0000000000
     43332      1297  PVPG      P              -0.4882627602      -25.9869856962      -17.6152112773  MEMB      37              0.0000000000
     43333      1297  PVPG      O13            -0.7861706161      -24.7839575385      -16.8441461506  MEMB      37              0.0000000000
     43334      1297  PVPG      O14             0.5193221965      -25.8826945813      -18.6829898241  MEMB      37              0.0000000000
     43335      1297  PVPG      O12            -1.8302312363      -26.6344086350      -18.4413410166  MEMB      37              0.0000000000
     43336      1297  PVPG      O11             0.0494155263      -27.1625539249      -16.6840331350  MEMB      37              0.0000000000
     43337      1297  PVPG      C1             -0.8659822916      -27.5793460786      -15.6549464393  MEMB      37              0.0000000000
     43338      1297  PVPG      HA             -0.8513365308      -28.6901793089      -15.6424582902  MEMB      37              0.0000000000
     43339      1297  PVPG      HB             -1.9189535400      -27.2631784049      -15.8149795808  MEMB      37              0.0000000000
     43340      1297  PVPG      C2             -0.3855922848      -27.0830170593      -14.2609652867  MEMB      37              0.0000000000
     43341      1297  PVPG      HS             -0.1263414873      -26.0188287410      -14.4470116128  MEMB      37              0.0000000000
     43342      1297  PVPG      O21             0.8068875754      -27.8247711090      -13.9085182970  MEMB      37              0.0000000000
     43343      1297  PVPG      C21             2.0415803961      -27.3143008954      -13.9451549252  MEMB      37              0.0000000000
     43344      1297  PVPG      O22             2.3629152600      -26.2061653848      -14.3151863658  MEMB      37              0.0000000000
     43345      1297  PVPG      C22             2.9071147625      -28.5048074163      -13.4747357874  MEMB      37              0.0000000000
     43346      1297  PVPG      H2R             3.5912317736      -28.7703199503      -14.3088866776  MEMB      37              0.0000000000
     43347      1297  PVPG      H2S             2.3373986500      -29.3746078979      -13.0833384210  MEMB      37              0.0000000000
     43348      1297  PVPG      C3             -1.4367829722      -27.2644733702      -13.1239478553  MEMB      37              0.0000000000
     43349      1297  PVPG      HX             -0.9857330995      -27.0495006330      -12.1316467002  MEMB      37              0.0000000000
     43350      1297  PVPG      HY             -2.2856914916      -26.5662814168      -13.2858234185  MEMB      37              0.0000000000
     43351      1297  PVPG      O31            -2.0529206019      -28.5947977849      -13.1714313745  MEMB      37              0.0000000000
     43352      1297  PVPG      C31            -1.9520088987      -29.3997143580      -12.1088035522  MEMB      37              0.0000000000
     43353      1297  PVPG      O32            -1.3875849138      -29.1106296881      -11.0582258996  MEMB      37              0.0000000000
     43354      1297  PVPG      C32            -2.7337573199      -30.7261718441      -12.3071396114  MEMB      37              0.0000000000
     43355      1297  PVPG      H2X            -2.1230839014      -31.3805893269      -12.9652707213  MEMB      37              0.0000000000
     43356      1297  PVPG      H2Y            -3.6697995379      -30.4576269039      -12.8419564252  MEMB      37              0.0000000000
     43357      1297  PVPG      C23             3.6852977421      -28.1118032431      -12.2374267768  MEMB      37              0.0000000000
     43358      1297  PVPG      H3R             4.3020061924      -27.1992869059      -12.3833908134  MEMB      37              0.0000000000
     43359      1297  PVPG      H3S             4.4142561434      -28.9103489243      -11.9819552637  MEMB      37              0.0000000000
     43360      1297  PVPG      C24             2.6409354128      -27.8328689649      -11.0980369157  MEMB      37              0.0000000000
     43361      1297  PVPG      H4R             3.1121166683      -28.3184636712      -10.2168404794  MEMB      37              0.0000000000
     43362      1297  PVPG      H4S             1.7379429497      -28.4716055303      -11.2026363808  MEMB      37              0.0000000000
     43363      1297  PVPG      C25             2.3294003763      -26.3794817793      -10.9257434357  MEMB      37              0.0000000000
     43364      1297  PVPG      H5R             1.7867958382      -26.0092524743      -11.8217523576  MEMB      37              0.0000000000
     43365      1297  PVPG      H5S             3.2344006138      -25.7926790971      -10.6593638129  MEMB      37              0.0000000000
     43366      1297  PVPG      C26             1.3311609179      -26.0913708169       -9.7694197997  MEMB      37              0.0000000000
     43367      1297  PVPG      H6R             0.4460477095      -26.7142014583      -10.0203738763  MEMB      37              0.0000000000
     43368      1297  PVPG      H6S             0.9465715948      -25.0508002192       -9.8296280849  MEMB      37              0.0000000000
     43369      1297  PVPG      C27             1.8519096906      -26.4160644911       -8.3796801711  MEMB      37              0.0000000000
     43370      1297  PVPG      H7R             2.2617680707      -27.4268861692       -8.1685481754  MEMB      37              0.0000000000
     43371      1297  PVPG      H7S             0.9978017467      -26.2865097126       -7.6810844383  MEMB      37              0.0000000000
     43372      1297  PVPG      C28             2.9476446216      -25.4630422997       -7.8998254727  MEMB      37              0.0000000000
     43373      1297  PVPG      H8R             2.8655133905      -24.6074611227       -8.6037824353  MEMB      37              0.0000000000
     43374      1297  PVPG      H8S             3.9651383915      -25.8603535894       -8.1027315617  MEMB      37              0.0000000000
     43375      1297  PVPG      C29             2.8701851270      -24.9292937463       -6.4880672362  MEMB      37              0.0000000000
     43376      1297  PVPG      H9R             2.0165121380      -24.2359940161       -6.6458600887  MEMB      37              0.0000000000
     43377      1297  PVPG      H9S             3.7210112285      -24.2322530410       -6.3313814560  MEMB      37              0.0000000000
     43378      1297  PVPG      C210            2.4867239776      -25.9375318457       -5.3886269588  MEMB      37              0.0000000000
     43379      1297  PVPG      H10R            1.6618989618      -26.6158650350       -5.6949746101  MEMB      37              0.0000000000
     43380      1297  PVPG      H10S            2.0117922791      -25.2245339336       -4.6812412745  MEMB      37              0.0000000000
     43381      1297  PVPG      C211            3.6925477204      -26.6949876551       -4.9628637528  MEMB      37              0.0000000000
     43382      1297  PVPG      H111            4.5952691122      -26.1130363320       -4.7253205770  MEMB      37              0.0000000000
     43383      1297  PVPG      C212            3.9207920920      -28.0485271341       -4.7275393384  MEMB      37              0.0000000000
     43384      1297  PVPG      H121            4.9335133872      -28.3599897856       -4.4319266775  MEMB      37              0.0000000000
     43385      1297  PVPG      C213            2.9389004254      -29.2060894376       -4.8716779439  MEMB      37              0.0000000000
     43386      1297  PVPG      H13R            3.3021935533      -30.0366576776       -5.5139360972  MEMB      37              0.0000000000
     43387      1297  PVPG      H13S            2.0425953773      -28.7919438516       -5.3810315141  MEMB      37              0.0000000000
     43388      1297  PVPG      C214            2.5994888459      -29.8889998417       -3.5304998978  MEMB      37              0.0000000000
     43389      1297  PVPG      H14R            1.6522552495      -30.4061672221       -3.7943319941  MEMB      37              0.0000000000
     43390      1297  PVPG      H14S            2.5157501491      -29.0687271181       -2.7858785007  MEMB      37              0.0000000000
     43391      1297  PVPG      C215            3.6404297175      -30.7663528045       -2.9896519166  MEMB      37              0.0000000000
     43392      1297  PVPG      H15R            4.5507661215      -30.1843675525       -2.7309982385  MEMB      37              0.0000000000
     43393      1297  PVPG      H15S            3.9773927912      -31.4744021217       -3.7766987168  MEMB      37              0.0000000000
     43394      1297  PVPG      C216            3.1895693741      -31.6065855995       -1.8340147472  MEMB      37              0.0000000000
     43395      1297  PVPG      H16R            2.5494737873      -32.4544064554       -2.1592812241  MEMB      37              0.0000000000
     43396      1297  PVPG      H16S            2.6944635434      -30.9897722632       -1.0538016914  MEMB      37              0.0000000000
     43397      1297  PVPG      C217            4.2196541848      -32.3612620374       -1.0868731606  MEMB      37              0.0000000000
     43398      1297  PVPG      H17R            5.1386079888      -31.7588508421       -0.9227219287  MEMB      37              0.0000000000
     43399      1297  PVPG      H17S            4.4700569797      -33.1747026528       -1.8009696926  MEMB      37              0.0000000000
     43400      1297  PVPG      C218            3.6103286309      -32.9847647585        0.1521511645  MEMB      37              0.0000000000
     43401      1297  PVPG      H18R            4.2336492163      -33.8814350107        0.3565432980  MEMB      37              0.0000000000
     43402      1297  PVPG      H18S            3.5915959528      -32.3149989301        1.0383703338  MEMB      37              0.0000000000
     43403      1297  PVPG      H18T            2.5682185877      -33.2722532373       -0.1041240445  MEMB      37              0.0000000000
     43404      1297  PVPG      C33            -3.1526287922      -31.2433036990      -10.9299583401  MEMB      37              0.0000000000
     43405      1297  PVPG      H3X            -4.1851276609      -31.5699772556      -11.1780545798  MEMB      37              0.0000000000
     43406      1297  PVPG      H3Y            -3.3700778762      -30.4332623825      -10.2013507817  MEMB      37              0.0000000000
     43407      1297  PVPG      C34            -2.1002731597      -32.1804400930      -10.3373167645  MEMB      37              0.0000000000
     43408      1297  PVPG      H4X            -1.1242242850      -31.6537459806      -10.2721809235  MEMB      37              0.0000000000
     43409      1297  PVPG      H4Y            -1.9413331621      -33.0622129943      -10.9942306800  MEMB      37              0.0000000000
     43410      1297  PVPG      C35            -2.4752054705      -32.8447945721       -8.9368713288  MEMB      37              0.0000000000
     43411      1297  PVPG      H5X            -1.8226153173      -33.6725486102       -8.5857733763  MEMB      37              0.0000000000
     43412      1297  PVPG      H5Y            -3.4590514920      -33.3415515357       -9.0768732052  MEMB      37              0.0000000000
     43413      1297  PVPG      C36            -2.7135074473      -31.8365143400       -7.8581258491  MEMB      37              0.0000000000
     43414      1297  PVPG      H6X            -2.9759957834      -32.3155722864       -6.8906942275  MEMB      37              0.0000000000
     43415      1297  PVPG      H6Y            -3.6240583949      -31.2312995403       -8.0554399943  MEMB      37              0.0000000000
     43416      1297  PVPG      C37            -1.5535892901      -30.8019638554       -7.6703291955  MEMB      37              0.0000000000
     43417      1297  PVPG      H7X            -1.4392503468      -30.2130219199       -8.6054194104  MEMB      37              0.0000000000
     43418      1297  PVPG      H7Y            -0.5636170712      -31.2988447093       -7.5843900620  MEMB      37              0.0000000000
     43419      1297  PVPG      C38            -1.7276261058      -29.7278650306       -6.5179038649  MEMB      37              0.0000000000
     43420      1297  PVPG      H8X            -0.7530643290      -29.2562945053       -6.2685619664  MEMB      37              0.0000000000
     43421      1297  PVPG      H8Y            -1.9159232394      -30.2151174176       -5.5373684982  MEMB      37              0.0000000000
     43422      1297  PVPG      C39            -2.7667275265      -28.6597157620       -6.8246465778  MEMB      37              0.0000000000
     43423      1297  PVPG      H9X            -3.6493135197      -29.2669569241       -7.1189614990  MEMB      37              0.0000000000
     43424      1297  PVPG      H9Y            -2.3067953925      -27.9692024318       -7.5635474710  MEMB      37              0.0000000000
     43425      1297  PVPG      C310           -3.0674037804      -27.8610819717       -5.5048625334  MEMB      37              0.0000000000
     43426      1297  PVPG      H10X           -3.5200430857      -28.5369180852       -4.7481033856  MEMB      37              0.0000000000
     43427      1297  PVPG      H10Y           -3.9296887113      -27.2082627745       -5.7590523100  MEMB      37              0.0000000000
     43428      1297  PVPG      C311           -1.9161398840      -27.1971588504       -4.9287273639  MEMB      37              0.0000000000
     43429      1297  PVPG      H11X           -1.3030137425      -26.6949359296       -5.7072965434  MEMB      37              0.0000000000
     43430      1297  PVPG      H11Y           -1.2568352852      -27.8971329319       -4.3722426545  MEMB      37              0.0000000000
     43431      1297  PVPG      C312           -2.3388659988      -26.1044787878       -3.9621605767  MEMB      37              0.0000000000
     43432      1297  PVPG      H12X           -2.7629390991      -26.5616828987       -3.0426786896  MEMB      37              0.0000000000
     43433      1297  PVPG      H12Y           -3.1054845396      -25.4830706906       -4.4725228604  MEMB      37              0.0000000000
     43434      1297  PVPG      C313           -1.1529795295      -25.2807705816       -3.4780975484  MEMB      37              0.0000000000
     43435      1297  PVPG      H13X           -1.4336522760      -24.4098508483       -2.8479843325  MEMB      37              0.0000000000
     43436      1297  PVPG      H13Y           -0.6712793058      -24.8757717185       -4.3936636975  MEMB      37              0.0000000000
     43437      1297  PVPG      C314           -0.0428820261      -26.0357830697       -2.6710971261  MEMB      37              0.0000000000
     43438      1297  PVPG      H14X            0.4194862934      -26.7240300574       -3.4105918876  MEMB      37              0.0000000000
     43439      1297  PVPG      H14Y           -0.5489886729      -26.5572945241       -1.8307374415  MEMB      37              0.0000000000
     43440      1297  PVPG      C315            1.0313704363      -25.0821329387       -2.1099322141  MEMB      37              0.0000000000
     43441      1297  PVPG      H15X            0.5780981513      -24.4760333724       -1.2966006301  MEMB      37              0.0000000000
     43442      1297  PVPG      H15Y            1.2609167032      -24.2853012280       -2.8493158768  MEMB      37              0.0000000000
     43443      1297  PVPG      C316            2.2748869692      -25.7803267466       -1.4523167585  MEMB      37              0.0000000000
     43444      1297  PVPG      H16X            2.7055303438      -26.5659377350       -2.1093429907  MEMB      37              0.0000000000
     43445      1297  PVPG      H16Y            3.0890389175      -25.0534868391       -1.2445137244  MEMB      37              0.0000000000
     43446      1297  PVPG      H16Z            1.9612596582      -26.3296734368       -0.5389855729  MEMB      37              0.0000000000
     43447      1298  PPPE      N              24.2839279896       10.3969531212      -20.4456401570  MEMB      38              0.0000000000
     43448      1298  PPPE      HN1            23.7993929737       10.1427182044      -19.5612248555  MEMB      38              0.0000000000
     43449      1298  PPPE      HN2            24.1971793324       11.3958254565      -20.7219166997  MEMB      38              0.0000000000
     43450      1298  PPPE      HN3            23.8187542896        9.8245969219      -21.1788671410  MEMB      38              0.0000000000
     43451      1298  PPPE      C12            25.6857533257        9.9974028448      -20.3540423318  MEMB      38              0.0000000000
     43452      1298  PPPE      H12A           26.2337632517       10.5217578067      -19.5422184623  MEMB      38              0.0000000000
     43453      1298  PPPE      H12B           26.2545492743       10.1577673295      -21.2948267921  MEMB      38              0.0000000000
     43454      1298  PPPE      C11            25.7882446074        8.4698778397      -19.9696354066  MEMB      38              0.0000000000
     43455      1298  PPPE      H11A           25.6421701402        7.9211144994      -20.9245396145  MEMB      38              0.0000000000
     43456      1298  PPPE      H11B           25.0169761723        8.2204671827      -19.2098589097  MEMB      38              0.0000000000
     43457      1298  PPPE      P              27.4693508176        7.6662159038      -18.2310231270  MEMB      38              0.0000000000
     43458      1298  PPPE      O13            26.5979779918        6.4565889783      -18.0241837053  MEMB      38              0.0000000000
     43459      1298  PPPE      O14            28.9555324581        7.4414802860      -18.0392000024  MEMB      38              0.0000000000
     43460      1298  PPPE      O11            27.0590265955        8.7549488802      -17.2212807548  MEMB      38              0.0000000000
     43461      1298  PPPE      O12            27.1462398102        8.2776559843      -19.7149941712  MEMB      38              0.0000000000
     43462      1298  PPPE      C1             27.6795036041       10.0779904754      -17.0665463421  MEMB      38              0.0000000000
     43463      1298  PPPE      HA             26.9800390819       10.9292327768      -17.2095740546  MEMB      38              0.0000000000
     43464      1298  PPPE      HB             28.3822219887       10.2355211623      -17.9125321308  MEMB      38              0.0000000000
     43465      1298  PPPE      C2             28.3558353264       10.2230662958      -15.6416827464  MEMB      38              0.0000000000
     43466      1298  PPPE      HS             29.0181781378       11.0985532741      -15.8124034278  MEMB      38              0.0000000000
     43467      1298  PPPE      O21            29.0124989573        8.9859676944      -15.2446199707  MEMB      38              0.0000000000
     43468      1298  PPPE      C21            30.2906558234        8.8275659440      -15.4224506818  MEMB      38              0.0000000000
     43469      1298  PPPE      O22            31.0555635259        9.6088638902      -15.9295587089  MEMB      38              0.0000000000
     43470      1298  PPPE      C22            30.7010078091        7.6365057329      -14.5942799110  MEMB      38              0.0000000000
     43471      1298  PPPE      H2R            31.6037414810        7.1862050179      -15.0597067942  MEMB      38              0.0000000000
     43472      1298  PPPE      H2S            29.9594626396        6.8099941364      -14.6304785650  MEMB      38              0.0000000000
     43473      1298  PPPE      C3             27.4118896901       10.6745584506      -14.5411666167  MEMB      38              0.0000000000
     43474      1298  PPPE      HX             27.9543471295       10.7607361242      -13.5754366674  MEMB      38              0.0000000000
     43475      1298  PPPE      HY             26.9585742391       11.6276549165      -14.8882015267  MEMB      38              0.0000000000
     43476      1298  PPPE      O31            26.3868373146        9.6802480453      -14.3019419959  MEMB      38              0.0000000000
     43477      1298  PPPE      C31            25.5164550410       10.0748524800      -13.3134664012  MEMB      38              0.0000000000
     43478      1298  PPPE      O32            25.5024741409       11.1935378030      -12.7797048092  MEMB      38              0.0000000000
     43479      1298  PPPE      C32            24.4018315296        9.0293128808      -13.1800602844  MEMB      38              0.0000000000
     43480      1298  PPPE      H2X            24.6345786026        8.0413113697      -13.6317269910  MEMB      38              0.0000000000
     43481      1298  PPPE      H2Y            23.4755936018        9.4873175171      -13.5882710807  MEMB      38              0.0000000000
     43482      1298  PPPE      C23            31.1881556220        7.9085220300      -13.1462574080  MEMB      38              0.0000000000
     43483      1298  PPPE      H3R            31.9981533363        8.6672472592      -13.1968610607  MEMB      38              0.0000000000
     43484      1298  PPPE      H3S            31.6758894256        6.9594701117      -12.8368431339  MEMB      38              0.0000000000
     43485      1298  PPPE      C24            29.9752258013        8.0976556624      -12.1185066335  MEMB      38              0.0000000000
     43486      1298  PPPE      H4R            29.5980775864        7.0527057928      -12.1311555108  MEMB      38              0.0000000000
     43487      1298  PPPE      H4S            29.1806385874        8.8151204884      -12.4154853915  MEMB      38              0.0000000000
     43488      1298  PPPE      C25            30.4882068644        8.3851485710      -10.6795587442  MEMB      38              0.0000000000
     43489      1298  PPPE      H5R            31.0347700683        9.3516848012      -10.7169402859  MEMB      38              0.0000000000
     43490      1298  PPPE      H5S            31.2162859300        7.5468601609      -10.6409010712  MEMB      38              0.0000000000
     43491      1298  PPPE      C26            29.4613449087        8.4258164829       -9.4855191667  MEMB      38              0.0000000000
     43492      1298  PPPE      H6R            30.0757526908        8.0124784624       -8.6572826316  MEMB      38              0.0000000000
     43493      1298  PPPE      H6S            28.6945596170        7.6965977451       -9.8240473769  MEMB      38              0.0000000000
     43494      1298  PPPE      C27            29.0030313796        9.8004638487       -9.1294778393  MEMB      38              0.0000000000
     43495      1298  PPPE      H7R            28.2787646511       10.1698828503       -9.8866358858  MEMB      38              0.0000000000
     43496      1298  PPPE      H7S            29.8495415376       10.5131991661       -9.2282195216  MEMB      38              0.0000000000
     43497      1298  PPPE      C28            28.3500015867       10.0214194475       -7.7939227055  MEMB      38              0.0000000000
     43498      1298  PPPE      H8R            27.8136081568        9.0667690801       -7.6061841516  MEMB      38              0.0000000000
     43499      1298  PPPE      H8S            27.6224782038       10.8227631827       -8.0446794507  MEMB      38              0.0000000000
     43500      1298  PPPE      C29            29.1592032851       10.5201554489       -6.6178140675  MEMB      38              0.0000000000
     43501      1298  PPPE      H91            29.1540027857       11.6103246964       -6.4711717589  MEMB      38              0.0000000000
     43502      1298  PPPE      C210           30.1052095816        9.8015479989       -5.9492397068  MEMB      38              0.0000000000
     43503      1298  PPPE      H101           30.6898207582       10.3884855604       -5.2255449707  MEMB      38              0.0000000000
     43504      1298  PPPE      C211           30.5531840899        8.3758819713       -6.1317247870  MEMB      38              0.0000000000
     43505      1298  PPPE      H11R           31.5233092220        8.3198403237       -6.6702761420  MEMB      38              0.0000000000
     43506      1298  PPPE      H11S           29.8467222311        7.7879688262       -6.7558968593  MEMB      38              0.0000000000
     43507      1298  PPPE      C212           30.7863380073        7.6668584828       -4.8011142885  MEMB      38              0.0000000000
     43508      1298  PPPE      H12R           31.8106895933        7.9699380836       -4.4958806341  MEMB      38              0.0000000000
     43509      1298  PPPE      H12S           30.7810654032        6.6175475441       -5.1661344986  MEMB      38              0.0000000000
     43510      1298  PPPE      C213           29.7091606008        7.9192756961       -3.7701226773  MEMB      38              0.0000000000
     43511      1298  PPPE      H13R           28.6902058128        7.5769454364       -4.0509467032  MEMB      38              0.0000000000
     43512      1298  PPPE      H13S           29.6421590236        8.9837833700       -3.4592284819  MEMB      38              0.0000000000
     43513      1298  PPPE      C214           30.0407918952        7.1013971117       -2.5240777805  MEMB      38              0.0000000000
     43514      1298  PPPE      H14R           31.1273245502        7.2203636194       -2.3250432120  MEMB      38              0.0000000000
     43515      1298  PPPE      H14S           29.8599702104        6.0116716757       -2.6429179788  MEMB      38              0.0000000000
     43516      1298  PPPE      C215           29.1363292362        7.4982319134       -1.3342783119  MEMB      38              0.0000000000
     43517      1298  PPPE      H15R           28.0965763578        7.6787468931       -1.6816243840  MEMB      38              0.0000000000
     43518      1298  PPPE      H15S           29.3285139504        8.4948559300       -0.8824745879  MEMB      38              0.0000000000
     43519      1298  PPPE      C216           29.2398014668        6.5261968202       -0.1334473092  MEMB      38              0.0000000000
     43520      1298  PPPE      H16R           30.1391296905        6.7706813728        0.4713312038  MEMB      38              0.0000000000
     43521      1298  PPPE      H16S           28.2813627749        6.5844788925        0.4254081943  MEMB      38              0.0000000000
     43522      1298  PPPE      H16T           29.3295060470        5.5011408687       -0.5524155475  MEMB      38              0.0000000000
     43523      1298  PPPE      C33            24.1167887403        8.6978900465      -11.6352361919  MEMB      38              0.0000000000
     43524      1298  PPPE      H3X            23.1002068019        8.2497032648      -11.6319542309  MEMB      38              0.0000000000
     43525      1298  PPPE      H3Y            24.0157565439        9.6279316777      -11.0359565747  MEMB      38              0.0000000000
     43526      1298  PPPE      C34            25.0983815987        7.7680241816      -10.9744689397  MEMB      38              0.0000000000
     43527      1298  PPPE      H4X            26.0899438554        8.2691482073      -10.9744264167  MEMB      38              0.0000000000
     43528      1298  PPPE      H4Y            25.1018476023        6.9746000973      -11.7521495999  MEMB      38              0.0000000000
     43529      1298  PPPE      C35            24.6033423527        7.4244256105       -9.6146748227  MEMB      38              0.0000000000
     43530      1298  PPPE      H5X            23.4940077259        7.3758348766       -9.6512347242  MEMB      38              0.0000000000
     43531      1298  PPPE      H5Y            24.8110410667        8.0307283848       -8.7071621837  MEMB      38              0.0000000000
     43532      1298  PPPE      C36            25.0983485365        6.0439570895       -8.9600571072  MEMB      38              0.0000000000
     43533      1298  PPPE      H6X            26.1780344447        6.1811760219       -8.7369645161  MEMB      38              0.0000000000
     43534      1298  PPPE      H6Y            25.1069128564        5.1685881756       -9.6441454910  MEMB      38              0.0000000000
     43535      1298  PPPE      C37            24.2709801926        5.7567036250       -7.7567019238  MEMB      38              0.0000000000
     43536      1298  PPPE      H7X            23.3010168883        5.3434775301       -8.1070394509  MEMB      38              0.0000000000
     43537      1298  PPPE      H7Y            24.0227528160        6.6644786649       -7.1662371522  MEMB      38              0.0000000000
     43538      1298  PPPE      C38            24.7583144978        4.7203267366       -6.7497391545  MEMB      38              0.0000000000
     43539      1298  PPPE      H8X            24.5568139755        3.6868547609       -7.1042165372  MEMB      38              0.0000000000
     43540      1298  PPPE      H8Y            24.2566449035        4.7258540077       -5.7584682191  MEMB      38              0.0000000000
     43541      1298  PPPE      C39            26.2552670314        4.8641299232       -6.4586640769  MEMB      38              0.0000000000
     43542      1298  PPPE      H9X            26.8513418934        4.4957650962       -7.3208259604  MEMB      38              0.0000000000
     43543      1298  PPPE      H9Y            26.5754147024        4.2270499171       -5.6066338342  MEMB      38              0.0000000000
     43544      1298  PPPE      C310           26.8639535405        6.3143186310       -6.0464321428  MEMB      38              0.0000000000
     43545      1298  PPPE      H10X           27.0732300459        6.8766956129       -6.9814489739  MEMB      38              0.0000000000
     43546      1298  PPPE      H10Y           27.8923685999        6.2417118106       -5.6324131636  MEMB      38              0.0000000000
     43547      1298  PPPE      C311           26.0108382468        7.1455017227       -5.0504175137  MEMB      38              0.0000000000
     43548      1298  PPPE      H11X           25.0438852449        7.3934037443       -5.5381341117  MEMB      38              0.0000000000
     43549      1298  PPPE      H11Y           26.5477288732        8.1009248287       -4.8681096868  MEMB      38              0.0000000000
     43550      1298  PPPE      C312           25.8663764973        6.4512598987       -3.7417732690  MEMB      38              0.0000000000
     43551      1298  PPPE      H12X           26.7622205896        5.9138905371       -3.3635953592  MEMB      38              0.0000000000
     43552      1298  PPPE      H12Y           25.1764349736        5.6058405100       -3.9505021635  MEMB      38              0.0000000000
     43553      1298  PPPE      C313           25.2422861174        7.3837241006       -2.5793287859  MEMB      38              0.0000000000
     43554      1298  PPPE      H13X           24.2359258247        7.8250439232       -2.7430259923  MEMB      38              0.0000000000
     43555      1298  PPPE      H13Y           25.9142722953        8.2460307761       -2.3813823941  MEMB      38              0.0000000000
     43556      1298  PPPE      C314           25.2201668427        6.6313132695       -1.1648702394  MEMB      38              0.0000000000
     43557      1298  PPPE      H14X           26.2682445737        6.3139046397       -0.9775047375  MEMB      38              0.0000000000
     43558      1298  PPPE      H14Y           24.7236139541        5.6569976247       -1.3609958447  MEMB      38              0.0000000000
     43559      1298  PPPE      C315           24.5361912693        7.3603477940        0.0065319024  MEMB      38              0.0000000000
     43560      1298  PPPE      H15X           24.6962299788        6.6678268033        0.8604190663  MEMB      38              0.0000000000
     43561      1298  PPPE      H15Y           23.4824593884        7.5674713209       -0.2781959818  MEMB      38              0.0000000000
     43562      1298  PPPE      C316           25.1399359278        8.7579650611        0.2892471783  MEMB      38              0.0000000000
     43563      1298  PPPE      H16X           24.9084618222        9.4815665700       -0.5213955265  MEMB      38              0.0000000000
     43564      1298  PPPE      H16Y           24.5032894725        9.1835895329        1.0941360527  MEMB      38              0.0000000000
     43565      1298  PPPE      H16Z           26.2177014282        8.8618005956        0.5381662574  MEMB      38              0.0000000000
     43566      1299  PVPG      C13           -17.9651230939       21.7384616160      -19.2651583434  MEMB      39              0.0000000000
     43567      1299  PVPG      H13A          -18.2431017599       22.7699002492      -18.9598991037  MEMB      39              0.0000000000
     43568      1299  PVPG      H13B          -18.1860811522       21.5103496796      -20.3298007964  MEMB      39              0.0000000000
     43569      1299  PVPG      OC3           -18.9260612293       20.9903198140      -18.5217658735  MEMB      39              0.0000000000
     43570      1299  PVPG      HO3           -19.0238616171       21.4030831953      -17.6605681665  MEMB      39              0.0000000000
     43571      1299  PVPG      C12           -16.5761239063       21.2511621459      -19.0154338592  MEMB      39              0.0000000000
     43572      1299  PVPG      H12A          -16.5161571408       20.2081577340      -19.4044387742  MEMB      39              0.0000000000
     43573      1299  PVPG      OC2           -16.3125985753       21.2139590445      -17.6121479941  MEMB      39              0.0000000000
     43574      1299  PVPG      HO2           -15.3512107317       21.0166767495      -17.5730334186  MEMB      39              0.0000000000
     43575      1299  PVPG      C11           -15.5754237751       22.1383677805      -19.7701885465  MEMB      39              0.0000000000
     43576      1299  PVPG      H11A          -15.8480175824       22.3816216435      -20.8193982924  MEMB      39              0.0000000000
     43577      1299  PVPG      H11B          -14.5898734706       21.6283461167      -19.7164356056  MEMB      39              0.0000000000
     43578      1299  PVPG      P             -15.2056343742       24.7140957031      -19.2750904459  MEMB      39              0.0000000000
     43579      1299  PVPG      O13           -16.3696387596       25.6152858539      -19.0324862558  MEMB      39              0.0000000000
     43580      1299  PVPG      O14           -14.4619713217       24.8170087596      -20.5504459801  MEMB      39              0.0000000000
     43581      1299  PVPG      O12           -15.6349948043       23.2657272722      -18.9608644263  MEMB      39              0.0000000000
     43582      1299  PVPG      O11           -14.2404801609       25.0263190094      -17.9964182782  MEMB      39              0.0000000000
     43583      1299  PVPG      C1            -12.8758380544       24.5159596893      -18.0717095492  MEMB      39              0.0000000000
     43584      1299  PVPG      HA            -12.2100535586       25.2028094656      -18.6367665674  MEMB      39              0.0000000000
     43585      1299  PVPG      HB            -12.8422427922       23.4902329444      -18.4972409119  MEMB      39              0.0000000000
     43586      1299  PVPG      C2            -12.1678121607       24.5312259741      -16.7135722771  MEMB      39              0.0000000000
     43587      1299  PVPG      HS            -11.1590765363       24.0766340150      -16.8141672448  MEMB      39              0.0000000000
     43588      1299  PVPG      O21           -12.8996971000       23.8699171552      -15.6050791876  MEMB      39              0.0000000000
     43589      1299  PVPG      C21           -13.0587181081       22.5589358696      -15.8137111853  MEMB      39              0.0000000000
     43590      1299  PVPG      O22           -12.6609724717       21.8869752431      -16.7445413451  MEMB      39              0.0000000000
     43591      1299  PVPG      C22           -13.8658115462       22.0348585099      -14.6092380233  MEMB      39              0.0000000000
     43592      1299  PVPG      H2R           -13.1283438670       21.3347177609      -14.1617275404  MEMB      39              0.0000000000
     43593      1299  PVPG      H2S           -14.7647491087       21.4428818167      -14.8845486537  MEMB      39              0.0000000000
     43594      1299  PVPG      C3            -11.8247495556       25.9146817591      -16.1562060400  MEMB      39              0.0000000000
     43595      1299  PVPG      HX            -11.1201593830       26.5155931415      -16.7700299231  MEMB      39              0.0000000000
     43596      1299  PVPG      HY            -12.7142473797       26.5802084762      -16.1424544072  MEMB      39              0.0000000000
     43597      1299  PVPG      O31           -11.1530085600       25.7188786502      -14.8936173739  MEMB      39              0.0000000000
     43598      1299  PVPG      C31           -11.9630576611       26.0053920276      -13.8427531628  MEMB      39              0.0000000000
     43599      1299  PVPG      O32           -13.0534567524       26.4655527728      -13.8706652348  MEMB      39              0.0000000000
     43600      1299  PVPG      C32           -11.1552222179       25.7775135677      -12.5181263135  MEMB      39              0.0000000000
     43601      1299  PVPG      H2X           -10.0683554972       25.8746389247      -12.7269527811  MEMB      39              0.0000000000
     43602      1299  PVPG      H2Y           -11.4422546305       24.7730377959      -12.1400235014  MEMB      39              0.0000000000
     43603      1299  PVPG      C23           -14.1927029511       22.9886578955      -13.4346478294  MEMB      39              0.0000000000
     43604      1299  PVPG      H3R           -13.3498242984       23.6825666005      -13.2288143711  MEMB      39              0.0000000000
     43605      1299  PVPG      H3S           -14.2930813397       22.2967245698      -12.5712399003  MEMB      39              0.0000000000
     43606      1299  PVPG      C24           -15.5423130780       23.6950023336      -13.6055319505  MEMB      39              0.0000000000
     43607      1299  PVPG      H4R           -16.3810456431       22.9684644926      -13.6602271307  MEMB      39              0.0000000000
     43608      1299  PVPG      H4S           -15.6047411330       24.2778994808      -14.5492770285  MEMB      39              0.0000000000
     43609      1299  PVPG      C25           -15.9226734157       24.6206069501      -12.4258893565  MEMB      39              0.0000000000
     43610      1299  PVPG      H5R           -15.4230332416       25.6041011526      -12.5578738825  MEMB      39              0.0000000000
     43611      1299  PVPG      H5S           -15.5176067057       24.1539692129      -11.5025845514  MEMB      39              0.0000000000
     43612      1299  PVPG      C26           -17.4285671276       24.7529951821      -12.2658930300  MEMB      39              0.0000000000
     43613      1299  PVPG      H6R           -17.8439344212       23.7262989660      -12.3535644121  MEMB      39              0.0000000000
     43614      1299  PVPG      H6S           -17.9384358796       25.3503721639      -13.0517019303  MEMB      39              0.0000000000
     43615      1299  PVPG      C27           -17.7119601514       25.4055669754      -10.8534521895  MEMB      39              0.0000000000
     43616      1299  PVPG      H7R           -17.3791225596       26.4645202727      -10.8069980595  MEMB      39              0.0000000000
     43617      1299  PVPG      H7S           -17.1101005358       24.7735302811      -10.1659823391  MEMB      39              0.0000000000
     43618      1299  PVPG      C28           -19.2098335228       25.2321227826      -10.3982409383  MEMB      39              0.0000000000
     43619      1299  PVPG      H8R           -19.3325191940       24.1424907871      -10.2194355470  MEMB      39              0.0000000000
     43620      1299  PVPG      H8S           -19.7423576144       25.5681495830      -11.3135686990  MEMB      39              0.0000000000
     43621      1299  PVPG      C29           -19.6598422759       25.8733106603       -8.9709074480  MEMB      39              0.0000000000
     43622      1299  PVPG      H9R           -20.7682824124       25.8208720826       -8.9167630343  MEMB      39              0.0000000000
     43623      1299  PVPG      H9S           -19.4161601990       26.9426203579       -9.1484369894  MEMB      39              0.0000000000
     43624      1299  PVPG      C210          -19.0164167662       25.2376714318       -7.7658875332  MEMB      39              0.0000000000
     43625      1299  PVPG      H10R          -17.9076957432       25.3085056746       -7.7594790148  MEMB      39              0.0000000000
     43626      1299  PVPG      H10S          -19.3888584343       24.1913041417       -7.7389881092  MEMB      39              0.0000000000
     43627      1299  PVPG      C211          -19.4974509964       25.7574789800       -6.3774145534  MEMB      39              0.0000000000
     43628      1299  PVPG      H111          -20.5665690024       25.6541342339       -6.1401247815  MEMB      39              0.0000000000
     43629      1299  PVPG      C212          -18.7510361932       26.3616494665       -5.3532769556  MEMB      39              0.0000000000
     43630      1299  PVPG      H121          -19.2836459896       26.6747918830       -4.4431836322  MEMB      39              0.0000000000
     43631      1299  PVPG      C213          -17.3127711409       26.6642006073       -5.3402917131  MEMB      39              0.0000000000
     43632      1299  PVPG      H13R          -17.1060433397       27.6882734253       -5.7182589100  MEMB      39              0.0000000000
     43633      1299  PVPG      H13S          -16.7771251445       26.0830779179       -6.1211244524  MEMB      39              0.0000000000
     43634      1299  PVPG      C214          -16.5667030136       26.5466689634       -4.0808171190  MEMB      39              0.0000000000
     43635      1299  PVPG      H14R          -15.5523785400       26.9185218780       -4.3400320763  MEMB      39              0.0000000000
     43636      1299  PVPG      H14S          -16.4829475911       25.5283098277       -3.6446398268  MEMB      39              0.0000000000
     43637      1299  PVPG      C215          -17.1457476630       27.4126686736       -2.9691476297  MEMB      39              0.0000000000
     43638      1299  PVPG      H15R          -18.1222627940       26.9850348015       -2.6563084370  MEMB      39              0.0000000000
     43639      1299  PVPG      H15S          -17.3058456317       28.4080773701       -3.4358926785  MEMB      39              0.0000000000
     43640      1299  PVPG      C216          -16.3048781817       27.4381104448       -1.6380606856  MEMB      39              0.0000000000
     43641      1299  PVPG      H16R          -16.2136411815       26.3999069274       -1.2531835582  MEMB      39              0.0000000000
     43642      1299  PVPG      H16S          -16.9561992477       28.0313548622       -0.9611837878  MEMB      39              0.0000000000
     43643      1299  PVPG      C217          -14.8711331371       28.0393411487       -1.6566881062  MEMB      39              0.0000000000
     43644      1299  PVPG      H17R          -14.7489730615       28.8233573616       -0.8790538473  MEMB      39              0.0000000000
     43645      1299  PVPG      H17S          -14.8770823020       28.5675044471       -2.6340979261  MEMB      39              0.0000000000
     43646      1299  PVPG      C218          -13.6861951390       27.0228777742       -1.5591311209  MEMB      39              0.0000000000
     43647      1299  PVPG      H18R          -12.7224602544       27.5565314870       -1.4150837323  MEMB      39              0.0000000000
     43648      1299  PVPG      H18S          -13.8742505376       26.2030758443       -0.8332666461  MEMB      39              0.0000000000
     43649      1299  PVPG      H18T          -13.8486324591       26.5042416598       -2.5281274058  MEMB      39              0.0000000000
     43650      1299  PVPG      C33           -11.4963459569       26.8882902449      -11.4029116844  MEMB      39              0.0000000000
     43651      1299  PVPG      H3X           -11.4006401179       27.8897518010      -11.8743311172  MEMB      39              0.0000000000
     43652      1299  PVPG      H3Y           -10.7285321160       26.8146134586      -10.6033155899  MEMB      39              0.0000000000
     43653      1299  PVPG      C34           -12.7575852647       26.7051611012      -10.5403682197  MEMB      39              0.0000000000
     43654      1299  PVPG      H4X           -13.6364923673       26.9744261612      -11.1643398517  MEMB      39              0.0000000000
     43655      1299  PVPG      H4Y           -12.5105788164       27.3363262086       -9.6600624177  MEMB      39              0.0000000000
     43656      1299  PVPG      C35           -12.9946949809       25.2566457238      -10.0446165541  MEMB      39              0.0000000000
     43657      1299  PVPG      H5X           -12.0572795485       24.9822144253       -9.5152210672  MEMB      39              0.0000000000
     43658      1299  PVPG      H5Y           -13.1918922446       24.5599193128      -10.8872357525  MEMB      39              0.0000000000
     43659      1299  PVPG      C36           -14.1079053502       25.1784976127       -8.9455746956  MEMB      39              0.0000000000
     43660      1299  PVPG      H6X           -14.8930858008       25.8499125728       -9.3542480511  MEMB      39              0.0000000000
     43661      1299  PVPG      H6Y           -13.8567159921       25.7006920107       -7.9976620232  MEMB      39              0.0000000000
     43662      1299  PVPG      C37           -14.5407795793       23.7554496995       -8.4499356503  MEMB      39              0.0000000000
     43663      1299  PVPG      H7X           -14.7588740395       23.1019032662       -9.3215040764  MEMB      39              0.0000000000
     43664      1299  PVPG      H7Y           -15.5288048362       23.8489251164       -7.9505458648  MEMB      39              0.0000000000
     43665      1299  PVPG      C38           -13.4255332489       23.2108011178       -7.5897699065  MEMB      39              0.0000000000
     43666      1299  PVPG      H8X           -13.1057671983       23.9994489791       -6.8755541877  MEMB      39              0.0000000000
     43667      1299  PVPG      H8Y           -12.6431481727       22.9396504980       -8.3304943262  MEMB      39              0.0000000000
     43668      1299  PVPG      C39           -13.8002069484       21.9723835262       -6.7100754188  MEMB      39              0.0000000000
     43669      1299  PVPG      H9X           -12.8427447459       21.5597991059       -6.3261986558  MEMB      39              0.0000000000
     43670      1299  PVPG      H9Y           -14.3780812781       21.3131562120       -7.3925718430  MEMB      39              0.0000000000
     43671      1299  PVPG      C310          -14.6474885986       22.1885717690       -5.4713774392  MEMB      39              0.0000000000
     43672      1299  PVPG      H10X          -15.6896282639       22.4851370555       -5.7169690361  MEMB      39              0.0000000000
     43673      1299  PVPG      H10Y          -14.0861932728       23.0103555750       -4.9774747362  MEMB      39              0.0000000000
     43674      1299  PVPG      C311          -14.5669170446       21.0685868096       -4.4727697950  MEMB      39              0.0000000000
     43675      1299  PVPG      H11X          -13.7865195140       20.3886989163       -4.8765683492  MEMB      39              0.0000000000
     43676      1299  PVPG      H11Y          -15.4209756325       20.3930850284       -4.6932301623  MEMB      39              0.0000000000
     43677      1299  PVPG      C312          -14.5185834948       21.4406237119       -2.9526277164  MEMB      39              0.0000000000
     43678      1299  PVPG      H12X          -13.4175588084       21.5724048275       -2.8840747383  MEMB      39              0.0000000000
     43679      1299  PVPG      H12Y          -14.7221255352       20.5224915638       -2.3610838955  MEMB      39              0.0000000000
     43680      1299  PVPG      C313          -15.2294246238       22.7012188877       -2.4686709668  MEMB      39              0.0000000000
     43681      1299  PVPG      H13X          -16.3148396100       22.4662850806       -2.5003214729  MEMB      39              0.0000000000
     43682      1299  PVPG      H13Y          -15.0125035510       23.5971450047       -3.0888184304  MEMB      39              0.0000000000
     43683      1299  PVPG      C314          -14.9082254637       22.9929388908       -1.0249698315  MEMB      39              0.0000000000
     43684      1299  PVPG      H14X          -15.3215569401       24.0059319714       -0.8317782949  MEMB      39              0.0000000000
     43685      1299  PVPG      H14Y          -13.8112834936       23.1513286425       -0.9478237075  MEMB      39              0.0000000000
     43686      1299  PVPG      C315          -15.2412818992       21.9492774234        0.0393483661  MEMB      39              0.0000000000
     43687      1299  PVPG      H15X          -14.7578433733       20.9626568903       -0.1255404117  MEMB      39              0.0000000000
     43688      1299  PVPG      H15Y          -16.3382836767       21.7957300846       -0.0462796679  MEMB      39              0.0000000000
     43689      1299  PVPG      C316          -14.8636094210       22.4001208349        1.4834981973  MEMB      39              0.0000000000
     43690      1299  PVPG      H16X          -15.4777717759       23.3054183957        1.6773070900  MEMB      39              0.0000000000
     43691      1299  PVPG      H16Y          -15.1489737509       21.6504238157        2.2521609669  MEMB      39              0.0000000000
     43692      1299  PVPG      H16Z          -13.7840848259       22.6162558272        1.6326068028  MEMB      39              0.0000000000
     43693      1300  PPPE      N             -27.9816772920       -3.2712318070      -16.8833618204  MEMB      40              0.0000000000
     43694      1300  PPPE      HN1           -28.3728046393       -3.1792635452      -15.9241114689  MEMB      40              0.0000000000
     43695      1300  PPPE      HN2           -27.0792498272       -3.7858791978      -16.8347538587  MEMB      40              0.0000000000
     43696      1300  PPPE      HN3           -27.6501328876       -2.3116865583      -17.1090855977  MEMB      40              0.0000000000
     43697      1300  PPPE      C12           -28.9175057314       -3.8848009433      -17.7886733907  MEMB      40              0.0000000000
     43698      1300  PPPE      H12A          -29.8528285415       -3.2896271430      -17.8612019238  MEMB      40              0.0000000000
     43699      1300  PPPE      H12B          -29.2089584306       -4.8823442644      -17.3958838202  MEMB      40              0.0000000000
     43700      1300  PPPE      C11           -28.2224981813       -3.9906630483      -19.2349050753  MEMB      40              0.0000000000
     43701      1300  PPPE      H11A          -27.8023169390       -2.9714835077      -19.3728970599  MEMB      40              0.0000000000
     43702      1300  PPPE      H11B          -29.0057447649       -4.3479219147      -19.9371955362  MEMB      40              0.0000000000
     43703      1300  PPPE      P             -27.4660722454       -6.4572540943      -19.6691091561  MEMB      40              0.0000000000
     43704      1300  PPPE      O13           -28.3391621463       -7.1671267771      -18.7368464967  MEMB      40              0.0000000000
     43705      1300  PPPE      O14           -27.6924710651       -6.6063708542      -21.1226746056  MEMB      40              0.0000000000
     43706      1300  PPPE      O11           -26.0509259793       -7.0552226945      -19.3555114134  MEMB      40              0.0000000000
     43707      1300  PPPE      O12           -27.1858089595       -4.9604108186      -19.2089182643  MEMB      40              0.0000000000
     43708      1300  PPPE      C1            -25.4086366151       -6.8741193477      -18.1491263605  MEMB      40              0.0000000000
     43709      1300  PPPE      HA            -25.8024224818       -5.9536462948      -17.6674801728  MEMB      40              0.0000000000
     43710      1300  PPPE      HB            -24.3106880117       -6.7729331825      -18.2854760008  MEMB      40              0.0000000000
     43711      1300  PPPE      C2            -25.5461970910       -8.0802242491      -17.1490972579  MEMB      40              0.0000000000
     43712      1300  PPPE      HS            -25.1848422771       -9.0072339672      -17.6434621848  MEMB      40              0.0000000000
     43713      1300  PPPE      O21           -26.9680355311       -8.2273235385      -16.6606477190  MEMB      40              0.0000000000
     43714      1300  PPPE      C21           -27.3489527485       -9.2269457670      -15.9281269259  MEMB      40              0.0000000000
     43715      1300  PPPE      O22           -26.6717095800      -10.1644936564      -15.5293510025  MEMB      40              0.0000000000
     43716      1300  PPPE      C22           -28.8596052661       -9.0246486588      -15.5197779544  MEMB      40              0.0000000000
     43717      1300  PPPE      H2R           -29.3795430433       -9.9496773926      -15.8488790776  MEMB      40              0.0000000000
     43718      1300  PPPE      H2S           -29.2497841968       -8.0799728122      -15.9552879391  MEMB      40              0.0000000000
     43719      1300  PPPE      C3            -24.6140066987       -7.7496015533      -15.8692498547  MEMB      40              0.0000000000
     43720      1300  PPPE      HX            -24.7139466195       -8.6204764027      -15.1866738452  MEMB      40              0.0000000000
     43721      1300  PPPE      HY            -23.5593457040       -7.7261571551      -16.2177631923  MEMB      40              0.0000000000
     43722      1300  PPPE      O31           -25.0054484673       -6.5872214809      -15.1113989816  MEMB      40              0.0000000000
     43723      1300  PPPE      C31           -24.0241735034       -6.1782207077      -14.3205374090  MEMB      40              0.0000000000
     43724      1300  PPPE      O32           -23.0088451577       -6.7784116499      -14.1036832436  MEMB      40              0.0000000000
     43725      1300  PPPE      C32           -24.3905267844       -4.8271844263      -13.6089924977  MEMB      40              0.0000000000
     43726      1300  PPPE      H2X           -24.4315051895       -4.0641113868      -14.4154423142  MEMB      40              0.0000000000
     43727      1300  PPPE      H2Y           -23.5613865260       -4.6542780678      -12.8899995750  MEMB      40              0.0000000000
     43728      1300  PPPE      C23           -28.8998163912       -8.9140125881      -13.9622004288  MEMB      40              0.0000000000
     43729      1300  PPPE      H3R           -29.8364217179       -8.5184410128      -13.5143002270  MEMB      40              0.0000000000
     43730      1300  PPPE      H3S           -28.1257664296       -8.1956906563      -13.6169740403  MEMB      40              0.0000000000
     43731      1300  PPPE      C24           -28.7258253433      -10.2848888660      -13.2409345639  MEMB      40              0.0000000000
     43732      1300  PPPE      H4R           -27.7522311615      -10.7678890956      -13.4714690459  MEMB      40              0.0000000000
     43733      1300  PPPE      H4S           -29.5542846229      -10.8822128277      -13.6781762669  MEMB      40              0.0000000000
     43734      1300  PPPE      C25           -28.7652061582      -10.0969059977      -11.7231732917  MEMB      40              0.0000000000
     43735      1300  PPPE      H5R           -28.5833362850      -11.1041834179      -11.2911587689  MEMB      40              0.0000000000
     43736      1300  PPPE      H5S           -29.8193166642       -9.8427510962      -11.4811457584  MEMB      40              0.0000000000
     43737      1300  PPPE      C26           -27.8995898987       -8.9284142725      -11.2210400383  MEMB      40              0.0000000000
     43738      1300  PPPE      H6R           -28.3076265170       -7.9030513082      -11.3493284226  MEMB      40              0.0000000000
     43739      1300  PPPE      H6S           -26.9820106879       -8.9874445043      -11.8446463433  MEMB      40              0.0000000000
     43740      1300  PPPE      C27           -27.4170519122       -9.1751254952       -9.7822758969  MEMB      40              0.0000000000
     43741      1300  PPPE      H7R           -26.9316735636      -10.1592527915       -9.6084302079  MEMB      40              0.0000000000
     43742      1300  PPPE      H7S           -28.2424072738       -9.2971176123       -9.0486360326  MEMB      40              0.0000000000
     43743      1300  PPPE      C28           -26.4354825736       -8.0292403058       -9.2933758589  MEMB      40              0.0000000000
     43744      1300  PPPE      H8R           -27.0170214376       -7.1707858551       -8.8943902630  MEMB      40              0.0000000000
     43745      1300  PPPE      H8S           -25.8485248609       -7.7182521487      -10.1839307474  MEMB      40              0.0000000000
     43746      1300  PPPE      C29           -25.4144037842       -8.4637705937       -8.2357427025  MEMB      40              0.0000000000
     43747      1300  PPPE      H91           -24.6118263920       -9.0412776370       -8.7177750089  MEMB      40              0.0000000000
     43748      1300  PPPE      C210          -25.2837349885       -7.9789152791       -6.9253217427  MEMB      40              0.0000000000
     43749      1300  PPPE      H101          -24.5010418430       -8.4459767635       -6.3094930248  MEMB      40              0.0000000000
     43750      1300  PPPE      C211          -26.1629006347       -6.9806308880       -6.2126543826  MEMB      40              0.0000000000
     43751      1300  PPPE      H11R          -26.8710196524       -7.4492066051       -5.4961871787  MEMB      40              0.0000000000
     43752      1300  PPPE      H11S          -26.7327506954       -6.3732217883       -6.9479407852  MEMB      40              0.0000000000
     43753      1300  PPPE      C212          -25.2613835435       -5.9999887081       -5.4621000896  MEMB      40              0.0000000000
     43754      1300  PPPE      H12R          -25.8369369447       -5.2291952557       -4.9062793126  MEMB      40              0.0000000000
     43755      1300  PPPE      H12S          -24.5835727195       -5.4409063554       -6.1420415648  MEMB      40              0.0000000000
     43756      1300  PPPE      C213          -24.3413476101       -6.5641282165       -4.2106010566  MEMB      40              0.0000000000
     43757      1300  PPPE      H13R          -23.7907953409       -5.6777825209       -3.8290194707  MEMB      40              0.0000000000
     43758      1300  PPPE      H13S          -23.5487199508       -7.2413759353       -4.5945254256  MEMB      40              0.0000000000
     43759      1300  PPPE      C214          -25.1072829629       -7.2142407335       -3.0529612666  MEMB      40              0.0000000000
     43760      1300  PPPE      H14R          -25.4536924010       -8.1955831860       -3.4419194805  MEMB      40              0.0000000000
     43761      1300  PPPE      H14S          -26.0932224133       -6.7204396994       -2.9172964635  MEMB      40              0.0000000000
     43762      1300  PPPE      C215          -24.3273164171       -7.0733107020       -1.8103159093  MEMB      40              0.0000000000
     43763      1300  PPPE      H15R          -24.0033904441       -6.0111732700       -1.7748611570  MEMB      40              0.0000000000
     43764      1300  PPPE      H15S          -23.3525015543       -7.6053172864       -1.8423467905  MEMB      40              0.0000000000
     43765      1300  PPPE      C216          -25.1475819861       -7.4250210582       -0.4882060424  MEMB      40              0.0000000000
     43766      1300  PPPE      H16R          -26.0423028197       -6.7812003994       -0.3493154762  MEMB      40              0.0000000000
     43767      1300  PPPE      H16S          -25.5298620534       -8.4585381449       -0.6297171084  MEMB      40              0.0000000000
     43768      1300  PPPE      H16T          -24.4494180808       -7.3416222432        0.3719874236  MEMB      40              0.0000000000
     43769      1300  PPPE      C33           -25.7802420709       -5.0069332407      -13.0075171789  MEMB      40              0.0000000000
     43770      1300  PPPE      H3X           -25.8039074873       -5.8140427824      -12.2444083165  MEMB      40              0.0000000000
     43771      1300  PPPE      H3Y           -26.5639369068       -5.2842044258      -13.7445816903  MEMB      40              0.0000000000
     43772      1300  PPPE      C34           -26.0578553068       -3.6383840981      -12.3444372558  MEMB      40              0.0000000000
     43773      1300  PPPE      H4X           -25.9052431440       -2.8134061312      -13.0727516672  MEMB      40              0.0000000000
     43774      1300  PPPE      H4Y           -25.2317431920       -3.4270814693      -11.6322497995  MEMB      40              0.0000000000
     43775      1300  PPPE      C35           -27.2913187443       -3.4362889923      -11.4073301201  MEMB      40              0.0000000000
     43776      1300  PPPE      H5X           -28.1989247863       -3.3564334676      -12.0430937302  MEMB      40              0.0000000000
     43777      1300  PPPE      H5Y           -27.2497187117       -2.4574667766      -10.8834050232  MEMB      40              0.0000000000
     43778      1300  PPPE      C36           -27.4483651989       -4.5612579522      -10.4741138639  MEMB      40              0.0000000000
     43779      1300  PPPE      H6X           -26.4202058018       -4.9193833785      -10.2528551168  MEMB      40              0.0000000000
     43780      1300  PPPE      H6Y           -27.9289809314       -5.3278864320      -11.1187923044  MEMB      40              0.0000000000
     43781      1300  PPPE      C37           -28.0989258061       -4.3517517521       -9.0776499798  MEMB      40              0.0000000000
     43782      1300  PPPE      H7X           -27.5250887092       -3.4549164978       -8.7602881788  MEMB      40              0.0000000000
     43783      1300  PPPE      H7Y           -27.8118336449       -5.2449282773       -8.4825577300  MEMB      40              0.0000000000
     43784      1300  PPPE      C38           -29.5933541456       -4.1314937964       -9.0525815760  MEMB      40              0.0000000000
     43785      1300  PPPE      H8X           -29.8323190132       -3.4730692806       -9.9149584941  MEMB      40              0.0000000000
     43786      1300  PPPE      H8Y           -29.9337629866       -3.7577738958       -8.0632503591  MEMB      40              0.0000000000
     43787      1300  PPPE      C39           -30.4114433918       -5.4447298289       -9.3206587469  MEMB      40              0.0000000000
     43788      1300  PPPE      H9X           -30.1523528803       -5.8159214998      -10.3352571159  MEMB      40              0.0000000000
     43789      1300  PPPE      H9Y           -31.4814573146       -5.1686074578       -9.4353219105  MEMB      40              0.0000000000
     43790      1300  PPPE      C310          -30.2347928455       -6.5959711848       -8.3053659012  MEMB      40              0.0000000000
     43791      1300  PPPE      H10X          -29.1798004521       -6.9419218548       -8.3457414350  MEMB      40              0.0000000000
     43792      1300  PPPE      H10Y          -30.8636887421       -7.4881693223       -8.5122316422  MEMB      40              0.0000000000
     43793      1300  PPPE      C311          -30.5334437839       -6.1955290731       -6.8409024547  MEMB      40              0.0000000000
     43794      1300  PPPE      H11X          -31.5624466971       -5.8437019377       -6.6135444296  MEMB      40              0.0000000000
     43795      1300  PPPE      H11Y          -29.8491638840       -5.3754363931       -6.5350756825  MEMB      40              0.0000000000
     43796      1300  PPPE      C312          -30.2130024939       -7.4310768784       -5.9607513928  MEMB      40              0.0000000000
     43797      1300  PPPE      H12X          -29.3113638869       -7.8989011438       -6.4107617030  MEMB      40              0.0000000000
     43798      1300  PPPE      H12Y          -30.9920269057       -8.2230755385       -5.9473317108  MEMB      40              0.0000000000
     43799      1300  PPPE      C313          -29.7373444414       -7.0908346181       -4.4968758079  MEMB      40              0.0000000000
     43800      1300  PPPE      H13X          -28.9719262097       -6.2912593157       -4.5924543947  MEMB      40              0.0000000000
     43801      1300  PPPE      H13Y          -29.2671335843       -7.9514722900       -3.9748360130  MEMB      40              0.0000000000
     43802      1300  PPPE      C314          -30.8479819837       -6.4870873045       -3.7069401815  MEMB      40              0.0000000000
     43803      1300  PPPE      H14X          -31.8061003583       -7.0315913692       -3.8478142519  MEMB      40              0.0000000000
     43804      1300  PPPE      H14Y          -31.0926450651       -5.4693809200       -4.0794112430  MEMB      40              0.0000000000
     43805      1300  PPPE      C315          -30.4380502789       -6.2154072744       -2.2479605696  MEMB      40              0.0000000000
     43806      1300  PPPE      H15X          -29.5556898135       -5.5403078668       -2.2466193594  MEMB      40              0.0000000000
     43807      1300  PPPE      H15Y          -30.1362337401       -7.1705869872       -1.7674821692  MEMB      40              0.0000000000
     43808      1300  PPPE      C316          -31.5607183497       -5.4871763712       -1.6073113036  MEMB      40              0.0000000000
     43809      1300  PPPE      H16X          -31.5516028931       -5.5985511654       -0.5019454983  MEMB      40              0.0000000000
     43810      1300  PPPE      H16Y          -31.5338064414       -4.4103839165       -1.8795515630  MEMB      40              0.0000000000
     43811      1300  PPPE      H16Z          -32.4466229910       -6.0449359373       -1.9793304335  MEMB      40              0.0000000000
     43812      1301  PPPE      N              23.6495671576      -16.1451831141      -19.3527776800  MEMB      41              0.0000000000
     43813      1301  PPPE      HN1            23.2814149897      -15.8031197613      -18.4422522032  MEMB      41              0.0000000000
     43814      1301  PPPE      HN2            24.3489038049      -16.9022957794      -19.2138220549  MEMB      41              0.0000000000
     43815      1301  PPPE      HN3            24.0836768361      -15.3306671122      -19.8320609677  MEMB      41              0.0000000000
     43816      1301  PPPE      C12            22.4717525251      -16.5810958954      -20.1779641802  MEMB      41              0.0000000000
     43817      1301  PPPE      H12A           22.8662272237      -16.8319055158      -21.1858358220  MEMB      41              0.0000000000
     43818      1301  PPPE      H12B           21.8898326235      -15.6352226308      -20.2098074748  MEMB      41              0.0000000000
     43819      1301  PPPE      C11            21.7539519794      -17.7723880624      -19.5303724475  MEMB      41              0.0000000000
     43820      1301  PPPE      H11A           20.8192900632      -18.1735386265      -19.9773694581  MEMB      41              0.0000000000
     43821      1301  PPPE      H11B           21.5545519445      -17.5364194351      -18.4631895049  MEMB      41              0.0000000000
     43822      1301  PPPE      P              22.2910845085      -20.0679672285      -18.5349957734  MEMB      41              0.0000000000
     43823      1301  PPPE      O13            22.1385082285      -19.3488791708      -17.2227936375  MEMB      41              0.0000000000
     43824      1301  PPPE      O14            21.1971556812      -20.8852637282      -19.0559088209  MEMB      41              0.0000000000
     43825      1301  PPPE      O11            23.6488676498      -20.8419262328      -18.5875325928  MEMB      41              0.0000000000
     43826      1301  PPPE      O12            22.6387690602      -18.8852125929      -19.5376551505  MEMB      41              0.0000000000
     43827      1301  PPPE      C1             24.9239499023      -20.4009274720      -18.3398371588  MEMB      41              0.0000000000
     43828      1301  PPPE      HA             24.8874978156      -19.3682124658      -17.9318028936  MEMB      41              0.0000000000
     43829      1301  PPPE      HB             25.5427895839      -20.3816998737      -19.2623276725  MEMB      41              0.0000000000
     43830      1301  PPPE      C2             25.6148325389      -21.1728162574      -17.1465855795  MEMB      41              0.0000000000
     43831      1301  PPPE      HS             26.0625585373      -22.1351747188      -17.4748059660  MEMB      41              0.0000000000
     43832      1301  PPPE      O21            24.6178043763      -21.5113973713      -16.1916283987  MEMB      41              0.0000000000
     43833      1301  PPPE      C21            24.7373497229      -22.5856595826      -15.4317304280  MEMB      41              0.0000000000
     43834      1301  PPPE      O22            25.6820681957      -23.3875637318      -15.4847337625  MEMB      41              0.0000000000
     43835      1301  PPPE      C22            23.5211080689      -22.6907987109      -14.5576848639  MEMB      41              0.0000000000
     43836      1301  PPPE      H2R            23.0236773143      -23.6712751444      -14.7175273105  MEMB      41              0.0000000000
     43837      1301  PPPE      H2S            22.8624707591      -21.8073397467      -14.6991703846  MEMB      41              0.0000000000
     43838      1301  PPPE      C3             26.6753637632      -20.3284630871      -16.3579011049  MEMB      41              0.0000000000
     43839      1301  PPPE      HX             27.0650378802      -21.0916381973      -15.6507668646  MEMB      41              0.0000000000
     43840      1301  PPPE      HY             27.4748810278      -20.1010276814      -17.0950349326  MEMB      41              0.0000000000
     43841      1301  PPPE      O31            26.0990415062      -19.1881301138      -15.6764557279  MEMB      41              0.0000000000
     43842      1301  PPPE      C31            26.4826457812      -19.1552246004      -14.3643386023  MEMB      41              0.0000000000
     43843      1301  PPPE      O32            27.1745770726      -19.9404663486      -13.7863832250  MEMB      41              0.0000000000
     43844      1301  PPPE      C32            25.9356893932      -17.7783862075      -13.8562307915  MEMB      41              0.0000000000
     43845      1301  PPPE      H2X            24.9152264877      -17.6342906786      -14.2712162575  MEMB      41              0.0000000000
     43846      1301  PPPE      H2Y            26.6389244109      -17.0356119392      -14.2898987477  MEMB      41              0.0000000000
     43847      1301  PPPE      C23            23.8728439923      -22.5156835384      -13.0231419012  MEMB      41              0.0000000000
     43848      1301  PPPE      H3R            24.2549180466      -21.4826209073      -12.8778077437  MEMB      41              0.0000000000
     43849      1301  PPPE      H3S            24.7476411419      -23.0906748800      -12.6510721441  MEMB      41              0.0000000000
     43850      1301  PPPE      C24            22.7038378223      -22.9790428193      -12.1283652311  MEMB      41              0.0000000000
     43851      1301  PPPE      H4R            22.4765684336      -24.0622241866      -12.2252556364  MEMB      41              0.0000000000
     43852      1301  PPPE      H4S            21.8229075682      -22.3631200521      -12.4092958851  MEMB      41              0.0000000000
     43853      1301  PPPE      C25            22.8853581492      -22.7829781647      -10.5112033765  MEMB      41              0.0000000000
     43854      1301  PPPE      H5R            23.8117769021      -23.3171337705      -10.2099608114  MEMB      41              0.0000000000
     43855      1301  PPPE      H5S            21.9730949373      -23.1632439593      -10.0037639637  MEMB      41              0.0000000000
     43856      1301  PPPE      C26            23.0355717497      -21.2984180999      -10.1128205969  MEMB      41              0.0000000000
     43857      1301  PPPE      H6R            22.0348215193      -20.8205076720      -10.1793157045  MEMB      41              0.0000000000
     43858      1301  PPPE      H6S            23.8252540612      -20.8337214382      -10.7411356926  MEMB      41              0.0000000000
     43859      1301  PPPE      C27            23.4651569736      -21.1895359222       -8.6616538360  MEMB      41              0.0000000000
     43860      1301  PPPE      H7R            24.5062924899      -21.5521342385       -8.5242482412  MEMB      41              0.0000000000
     43861      1301  PPPE      H7S            22.7524612963      -21.7208411567       -7.9952450880  MEMB      41              0.0000000000
     43862      1301  PPPE      C28            23.3386135194      -19.6948764385       -8.2772277506  MEMB      41              0.0000000000
     43863      1301  PPPE      H8R            23.7677258966      -19.0030036099       -9.0332010020  MEMB      41              0.0000000000
     43864      1301  PPPE      H8S            23.9719814035      -19.7678693789       -7.3673716334  MEMB      41              0.0000000000
     43865      1301  PPPE      C29            21.9751891604      -19.2169224603       -8.0010496899  MEMB      41              0.0000000000
     43866      1301  PPPE      H91            21.2549423748      -19.5481543320       -8.7636308431  MEMB      41              0.0000000000
     43867      1301  PPPE      C210           21.6024913768      -18.5190537390       -6.9014370339  MEMB      41              0.0000000000
     43868      1301  PPPE      H101           20.5236426922      -18.3149356394       -6.8349440490  MEMB      41              0.0000000000
     43869      1301  PPPE      C211           22.4393270338      -18.0463191340       -5.7131348706  MEMB      41              0.0000000000
     43870      1301  PPPE      H11R           22.5181984192      -16.9525872054       -5.5346670221  MEMB      41              0.0000000000
     43871      1301  PPPE      H11S           23.4756453768      -18.4321590663       -5.8203395275  MEMB      41              0.0000000000
     43872      1301  PPPE      C212           21.8781002591      -18.7759833942       -4.4724575223  MEMB      41              0.0000000000
     43873      1301  PPPE      H12R           21.9394970062      -19.8759896869       -4.6157669616  MEMB      41              0.0000000000
     43874      1301  PPPE      H12S           20.8196286161      -18.4586541104       -4.3573015122  MEMB      41              0.0000000000
     43875      1301  PPPE      C213           22.7077435651      -18.3799219548       -3.2352592502  MEMB      41              0.0000000000
     43876      1301  PPPE      H13R           22.9686310232      -17.3009391029       -3.2805884826  MEMB      41              0.0000000000
     43877      1301  PPPE      H13S           23.6739315689      -18.9212668451       -3.3232788566  MEMB      41              0.0000000000
     43878      1301  PPPE      C214           22.0544090282      -18.7417204584       -1.8653717382  MEMB      41              0.0000000000
     43879      1301  PPPE      H14R           21.8712929429      -19.8349542486       -1.7903425496  MEMB      41              0.0000000000
     43880      1301  PPPE      H14S           21.0534288038      -18.2597119672       -1.8601367653  MEMB      41              0.0000000000
     43881      1301  PPPE      C215           22.8808407466      -18.3865731972       -0.6382060569  MEMB      41              0.0000000000
     43882      1301  PPPE      H15R           22.7515100810      -17.2859284743       -0.5596199700  MEMB      41              0.0000000000
     43883      1301  PPPE      H15S           23.9444109342      -18.6092799216       -0.8695957086  MEMB      41              0.0000000000
     43884      1301  PPPE      C216           22.4577375344      -19.2079643456        0.5897781885  MEMB      41              0.0000000000
     43885      1301  PPPE      H16R           21.3628088920      -19.2318804028        0.7765408467  MEMB      41              0.0000000000
     43886      1301  PPPE      H16S           22.7698631164      -20.2486205089        0.3575425955  MEMB      41              0.0000000000
     43887      1301  PPPE      H16T           22.9449032251      -18.8348275938        1.5159312829  MEMB      41              0.0000000000
     43888      1301  PPPE      C33            25.9785803605      -17.7506045844      -12.3291030999  MEMB      41              0.0000000000
     43889      1301  PPPE      H3X            26.0755701717      -18.7698988815      -11.8978802895  MEMB      41              0.0000000000
     43890      1301  PPPE      H3Y            25.0021476357      -17.3765142275      -11.9536613081  MEMB      41              0.0000000000
     43891      1301  PPPE      C34            27.1621209536      -16.8482736392      -11.7954847293  MEMB      41              0.0000000000
     43892      1301  PPPE      H4X            27.0355905465      -15.8225446688      -12.2031501992  MEMB      41              0.0000000000
     43893      1301  PPPE      H4Y            28.1325418572      -17.2980103276      -12.0960528261  MEMB      41              0.0000000000
     43894      1301  PPPE      C35            27.2380279091      -16.8447312517      -10.2269799451  MEMB      41              0.0000000000
     43895      1301  PPPE      H5X            26.2182699690      -16.6841656552       -9.8163299324  MEMB      41              0.0000000000
     43896      1301  PPPE      H5Y            27.8359211063      -15.9337264415      -10.0103813290  MEMB      41              0.0000000000
     43897      1301  PPPE      C36            27.8994164265      -18.0697655088       -9.6016247545  MEMB      41              0.0000000000
     43898      1301  PPPE      H6X            28.8282064924      -18.3524953673      -10.1417486669  MEMB      41              0.0000000000
     43899      1301  PPPE      H6Y            27.1349544740      -18.8739289022       -9.6585471558  MEMB      41              0.0000000000
     43900      1301  PPPE      C37            28.1660551585      -18.0101187471       -8.1137681728  MEMB      41              0.0000000000
     43901      1301  PPPE      H7X            27.2563093703      -17.9598754347       -7.4780329997  MEMB      41              0.0000000000
     43902      1301  PPPE      H7Y            28.6490093560      -17.0099640723       -8.1414605857  MEMB      41              0.0000000000
     43903      1301  PPPE      C38            29.2952679653      -19.0554352792       -7.7904205330  MEMB      41              0.0000000000
     43904      1301  PPPE      H8X            29.9582470804      -18.6683618054       -6.9873303644  MEMB      41              0.0000000000
     43905      1301  PPPE      H8Y            29.9052214193      -19.0018832595       -8.7174642025  MEMB      41              0.0000000000
     43906      1301  PPPE      C39            28.7632687344      -20.4332294809       -7.4672110747  MEMB      41              0.0000000000
     43907      1301  PPPE      H9X            29.5293059015      -21.2372897735       -7.4987563526  MEMB      41              0.0000000000
     43908      1301  PPPE      H9Y            28.0613144813      -20.6300332574       -8.3055722739  MEMB      41              0.0000000000
     43909      1301  PPPE      C310           27.9666053888      -20.5135562045       -6.0972705822  MEMB      41              0.0000000000
     43910      1301  PPPE      H10X           27.5406869989      -21.5367313027       -6.0196352582  MEMB      41              0.0000000000
     43911      1301  PPPE      H10Y           27.1375176024      -19.7742807852       -6.1174273896  MEMB      41              0.0000000000
     43912      1301  PPPE      C311           28.7944662918      -20.1578168874       -4.8410664240  MEMB      41              0.0000000000
     43913      1301  PPPE      H11X           29.0241701576      -19.0739693608       -4.9237203607  MEMB      41              0.0000000000
     43914      1301  PPPE      H11Y           29.6656344914      -20.8042764375       -5.0808100746  MEMB      41              0.0000000000
     43915      1301  PPPE      C312           28.1280110731      -20.6834936143       -3.6071441360  MEMB      41              0.0000000000
     43916      1301  PPPE      H12X           28.6949198746      -20.4762654035       -2.6744105838  MEMB      41              0.0000000000
     43917      1301  PPPE      H12Y           27.9165738241      -21.7661987046       -3.7389203750  MEMB      41              0.0000000000
     43918      1301  PPPE      C313           26.7823765786      -19.9604849643       -3.1801290765  MEMB      41              0.0000000000
     43919      1301  PPPE      H13X           26.5515611810      -20.4004246045       -2.1863995533  MEMB      41              0.0000000000
     43920      1301  PPPE      H13Y           26.0210747319      -20.2535502301       -3.9343526828  MEMB      41              0.0000000000
     43921      1301  PPPE      C314           26.8751507398      -18.4131900180       -3.0325781852  MEMB      41              0.0000000000
     43922      1301  PPPE      H14X           25.9742905313      -17.9768336832       -2.5505356210  MEMB      41              0.0000000000
     43923      1301  PPPE      H14Y           27.0164937809      -18.0258242564       -4.0642229455  MEMB      41              0.0000000000
     43924      1301  PPPE      C315           28.0669061300      -17.7600221142       -2.1959160561  MEMB      41              0.0000000000
     43925      1301  PPPE      H15X           28.4475636513      -16.8636907128       -2.7307158974  MEMB      41              0.0000000000
     43926      1301  PPPE      H15Y           28.9341088788      -18.4523739829       -2.2500389010  MEMB      41              0.0000000000
     43927      1301  PPPE      C316           27.7952913117      -17.4439826579       -0.8019377921  MEMB      41              0.0000000000
     43928      1301  PPPE      H16X           28.6654646484      -17.1971977671       -0.1567892964  MEMB      41              0.0000000000
     43929      1301  PPPE      H16Y           26.8954217776      -16.8003431735       -0.7005275565  MEMB      41              0.0000000000
     43930      1301  PPPE      H16Z           27.4000762067      -18.3737299979       -0.3396652486  MEMB      41              0.0000000000
     43931      1302  PVCL2     C3             -9.7312097878       30.1855127118      -21.0270219828  MEMB      42              0.0000000000
     43932      1302  PVCL2     HG31          -10.4519612057       30.3448657920      -20.1966937801  MEMB      42              0.0000000000
     43933      1302  PVCL2     HG32          -10.0866772090       30.4876709863      -22.0353195573  MEMB      42              0.0000000000
     43934      1302  PVCL2     P3            -10.4928642739       27.7963887581      -21.7063551860  MEMB      42              0.0000000000
     43935      1302  PVCL2     OP33          -10.0754787345       26.3751163714      -21.6667151622  MEMB      42              0.0000000000
     43936      1302  PVCL2     OP34          -11.0509241572       28.2928952851      -22.9955768984  MEMB      42              0.0000000000
     43937      1302  PVCL2     OP31           -9.3567059503       28.7738597626      -21.0765495513  MEMB      42              0.0000000000
     43938      1302  PVCL2     OP32          -11.7173817165       27.9847646367      -20.6516502416  MEMB      42              0.0000000000
     43939      1302  PVCL2     C31           -11.6399385754       27.3864153329      -19.3526253683  MEMB      42              0.0000000000
     43940      1302  PVCL2     H31J          -11.8041590879       26.2920940634      -19.4516901515  MEMB      42              0.0000000000
     43941      1302  PVCL2     H31K          -10.6274974880       27.4834899556      -18.9055678368  MEMB      42              0.0000000000
     43942      1302  PVCL2     C2             -8.4212001718       31.0477960611      -20.7715907587  MEMB      42              0.0000000000
     43943      1302  PVCL2     HG22           -7.7232055457       30.7484217809      -21.5824541650  MEMB      42              0.0000000000
     43944      1302  PVCL2     OG12           -8.8610921189       32.3979183956      -20.9112340131  MEMB      42              0.0000000000
     43945      1302  PVCL2     HO12           -9.4882414179       32.3855642681      -20.1845077158  MEMB      42              0.0000000000
     43946      1302  PVCL2     C1             -7.8141809270       30.8633052134      -19.3427326071  MEMB      42              0.0000000000
     43947      1302  PVCL2     HG11           -8.6622900115       30.8448334473      -18.6253130621  MEMB      42              0.0000000000
     43948      1302  PVCL2     HG12           -7.1477327990       31.6782167494      -18.9876455466  MEMB      42              0.0000000000
     43949      1302  PVCL2     P1             -7.0961457193       28.6731756722      -18.0946151982  MEMB      42              0.0000000000
     43950      1302  PVCL2     OP13           -8.4531967659       28.5234971974      -17.6386163848  MEMB      42              0.0000000000
     43951      1302  PVCL2     OP14           -6.2547180929       27.4079332105      -18.3609216206  MEMB      42              0.0000000000
     43952      1302  PVCL2     OP11           -7.0199171620       29.7032643485      -19.3781950260  MEMB      42              0.0000000000
     43953      1302  PVCL2     OP12           -6.4386106777       29.5434567540      -17.0240236996  MEMB      42              0.0000000000
     43954      1302  PVCL2     C11            -5.0351900151       29.9053470215      -17.0252817429  MEMB      42              0.0000000000
     43955      1302  PVCL2     H11J           -4.7637725707       30.3914821874      -17.9867005480  MEMB      42              0.0000000000
     43956      1302  PVCL2     H11K           -4.4456375505       28.9641551844      -16.9951672868  MEMB      42              0.0000000000
     43957      1302  PVCL2     C12            -4.4905793492       30.6906486073      -15.7736482027  MEMB      42              0.0000000000
     43958      1302  PVCL2     H12J           -3.4594560504       30.3592146911      -15.5261452504  MEMB      42              0.0000000000
     43959      1302  PVCL2     O12            -5.3322507275       30.4587210178      -14.6497135103  MEMB      42              0.0000000000
     43960      1302  PVCL2     CA1            -4.9941892108       29.3256949153      -13.9402491573  MEMB      42              0.0000000000
     43961      1302  PVCL2     OA1            -4.0355825798       28.6247714048      -14.1623310975  MEMB      42              0.0000000000
     43962      1302  PVCL2     CA2            -6.1176102730       29.0491134524      -12.8603191116  MEMB      42              0.0000000000
     43963      1302  PVCL2     H2A            -7.1118131410       29.0165175801      -13.3551111717  MEMB      42              0.0000000000
     43964      1302  PVCL2     H2B            -6.1173952558       29.9077879065      -12.1553374853  MEMB      42              0.0000000000
     43965      1302  PVCL2     C13            -4.5080165529       32.1924870822      -16.1602351485  MEMB      42              0.0000000000
     43966      1302  PVCL2     H13J           -3.7494123428       32.4648404241      -16.9248687461  MEMB      42              0.0000000000
     43967      1302  PVCL2     H13K           -4.2325485833       32.7838079768      -15.2609143001  MEMB      42              0.0000000000
     43968      1302  PVCL2     O13            -5.8089497422       32.6157471157      -16.5940164728  MEMB      42              0.0000000000
     43969      1302  PVCL2     CB1            -6.7781594579       32.8601423302      -15.5965900977  MEMB      42              0.0000000000
     43970      1302  PVCL2     OB1            -6.5641363160       32.8502229811      -14.4109452846  MEMB      42              0.0000000000
     43971      1302  PVCL2     CB2            -8.1370072252       33.2301708514      -16.2772401454  MEMB      42              0.0000000000
     43972      1302  PVCL2     H2D            -8.7569484909       32.3185272777      -16.4147168712  MEMB      42              0.0000000000
     43973      1302  PVCL2     H2E            -7.9566566632       33.7341642976      -17.2507827335  MEMB      42              0.0000000000
     43974      1302  PVCL2     C32           -12.7617819217       27.9891820900      -18.4080520054  MEMB      42              0.0000000000
     43975      1302  PVCL2     H32J          -13.7499333248       27.7597957796      -18.8611075832  MEMB      42              0.0000000000
     43976      1302  PVCL2     O32           -12.5601584700       29.4006185117      -18.3080566433  MEMB      42              0.0000000000
     43977      1302  PVCL2     CC1           -13.2491573332       30.2422111020      -19.1024865743  MEMB      42              0.0000000000
     43978      1302  PVCL2     OC1           -14.1214937651       29.9612119376      -19.8700628440  MEMB      42              0.0000000000
     43979      1302  PVCL2     CC2           -12.6689354075       31.6834191461      -18.9311400862  MEMB      42              0.0000000000
     43980      1302  PVCL2     H2R           -11.9471823948       31.9152368886      -19.7433311567  MEMB      42              0.0000000000
     43981      1302  PVCL2     H2S           -12.2915238208       31.6915874329      -17.8862407073  MEMB      42              0.0000000000
     43982      1302  PVCL2     C33           -12.7635807813       27.4259820782      -16.9153478541  MEMB      42              0.0000000000
     43983      1302  PVCL2     H33J          -13.5734580362       27.9008855719      -16.3213052576  MEMB      42              0.0000000000
     43984      1302  PVCL2     H33K          -12.8631416947       26.3198398890      -16.8860623196  MEMB      42              0.0000000000
     43985      1302  PVCL2     O33           -11.4895765195       27.5605481153      -16.3113861118  MEMB      42              0.0000000000
     43986      1302  PVCL2     CD1           -11.4521887158       28.0073024110      -14.9868307310  MEMB      42              0.0000000000
     43987      1302  PVCL2     OD1           -12.3665536960       27.9405143787      -14.1741311831  MEMB      42              0.0000000000
     43988      1302  PVCL2     CD2           -10.0148446944       28.5140778901      -14.6818327407  MEMB      42              0.0000000000
     43989      1302  PVCL2     H2X            -9.3700066720       27.9371938913      -15.3787612210  MEMB      42              0.0000000000
     43990      1302  PVCL2     H2Y            -9.7118400450       28.2626566700      -13.6429407443  MEMB      42              0.0000000000
     43991      1302  PVCL2     CA3            -5.8898451388       27.7299653235      -12.1426174997  MEMB      42              0.0000000000
     43992      1302  PVCL2     H3A            -4.8924784165       27.8369198990      -11.6649759173  MEMB      42              0.0000000000
     43993      1302  PVCL2     H3B            -5.8523929775       26.8985697868      -12.8786199988  MEMB      42              0.0000000000
     43994      1302  PVCL2     CA4            -6.8912566374       27.4166100261      -11.0080227957  MEMB      42              0.0000000000
     43995      1302  PVCL2     H4A            -6.6299756395       28.0156920865      -10.1096055315  MEMB      42              0.0000000000
     43996      1302  PVCL2     H4B            -6.7857341637       26.3389923298      -10.7591737092  MEMB      42              0.0000000000
     43997      1302  PVCL2     CA5            -8.3487670808       27.6194654121      -11.2971465306  MEMB      42              0.0000000000
     43998      1302  PVCL2     H5A            -8.6891573790       27.0559005065      -12.1920487862  MEMB      42              0.0000000000
     43999      1302  PVCL2     H5B            -8.3165858661       28.6824915644      -11.6184886103  MEMB      42              0.0000000000
     44000      1302  PVCL2     CA6            -9.2332607424       27.1296540555      -10.1407675277  MEMB      42              0.0000000000
     44001      1302  PVCL2     H6A            -9.1294804386       27.8222595711       -9.2783008866  MEMB      42              0.0000000000
     44002      1302  PVCL2     H6B            -8.8040914556       26.1932723785       -9.7244448118  MEMB      42              0.0000000000
     44003      1302  PVCL2     CA7           -10.7639118524       26.8130040894      -10.5442896239  MEMB      42              0.0000000000
     44004      1302  PVCL2     H7A           -10.7999548842       26.3140779447      -11.5363045475  MEMB      42              0.0000000000
     44005      1302  PVCL2     H7B           -11.3069997102       27.7691207333      -10.7030900649  MEMB      42              0.0000000000
     44006      1302  PVCL2     CA8           -11.6406821846       25.9093505726       -9.6487040392  MEMB      42              0.0000000000
     44007      1302  PVCL2     H8A           -11.0510146911       25.0332323717       -9.3036969961  MEMB      42              0.0000000000
     44008      1302  PVCL2     H8B           -12.5220761621       25.4379807095      -10.1337560618  MEMB      42              0.0000000000
     44009      1302  PVCL2     CA9           -12.1203701569       26.6270006106       -8.4183685864  MEMB      42              0.0000000000
     44010      1302  PVCL2     H9A           -13.0309311442       26.1125631922       -8.0434630580  MEMB      42              0.0000000000
     44011      1302  PVCL2     H9B           -12.3635848641       27.6101540176       -8.8750705605  MEMB      42              0.0000000000
     44012      1302  PVCL2     CA10          -11.1756185708       26.6428866712       -7.2133899277  MEMB      42              0.0000000000
     44013      1302  PVCL2     H10A          -11.6012555039       27.3182902871       -6.4407430115  MEMB      42              0.0000000000
     44014      1302  PVCL2     H10B          -10.2536485242       27.1595595039       -7.5559403641  MEMB      42              0.0000000000
     44015      1302  PVCL2     CA11          -10.7895324258       25.2708671812       -6.5394989219  MEMB      42              0.0000000000
     44016      1302  PVCL2     H11A           -9.8395451508       24.8581939364       -6.9099378855  MEMB      42              0.0000000000
     44017      1302  PVCL2     CA12          -11.5436203523       24.5849034806       -5.6046296361  MEMB      42              0.0000000000
     44018      1302  PVCL2     H12A          -11.0421944622       23.6983854826       -5.1891090491  MEMB      42              0.0000000000
     44019      1302  PVCL2     CA13          -12.8918060929       24.9963488688       -5.0144386650  MEMB      42              0.0000000000
     44020      1302  PVCL2     H13A          -13.5352918470       24.0927384223       -4.9533209071  MEMB      42              0.0000000000
     44021      1302  PVCL2     H13B          -13.3484193216       25.7813662506       -5.6544169802  MEMB      42              0.0000000000
     44022      1302  PVCL2     CA14          -12.6867991881       25.6619958646       -3.5693561824  MEMB      42              0.0000000000
     44023      1302  PVCL2     H14A          -11.9468899429       26.4878636738       -3.6386233918  MEMB      42              0.0000000000
     44024      1302  PVCL2     H14B          -12.2568189408       24.8349632782       -2.9648274686  MEMB      42              0.0000000000
     44025      1302  PVCL2     CA15          -14.0137305071       26.0475457719       -2.9253105950  MEMB      42              0.0000000000
     44026      1302  PVCL2     H15A          -13.8368402050       26.2228612053       -1.8425863275  MEMB      42              0.0000000000
     44027      1302  PVCL2     H15B          -14.7573264328       25.2221522170       -2.9147655703  MEMB      42              0.0000000000
     44028      1302  PVCL2     CA16          -14.4970223655       27.4402415598       -3.4231883189  MEMB      42              0.0000000000
     44029      1302  PVCL2     H16A          -14.7950332922       27.3061705868       -4.4850436316  MEMB      42              0.0000000000
     44030      1302  PVCL2     H16B          -13.6241107114       28.1230109316       -3.5017527065  MEMB      42              0.0000000000
     44031      1302  PVCL2     CA17          -15.6392116040       28.0024480506       -2.6375439473  MEMB      42              0.0000000000
     44032      1302  PVCL2     H17A          -15.9018290218       29.0073744752       -3.0318488884  MEMB      42              0.0000000000
     44033      1302  PVCL2     H17B          -15.4313846178       27.9791022774       -1.5464042819  MEMB      42              0.0000000000
     44034      1302  PVCL2     CA18          -16.9276476836       27.1854631129       -2.8074544830  MEMB      42              0.0000000000
     44035      1302  PVCL2     H18A          -17.3584927232       27.3925822747       -3.8103480987  MEMB      42              0.0000000000
     44036      1302  PVCL2     H18B          -17.6198314192       27.5215615838       -2.0060553064  MEMB      42              0.0000000000
     44037      1302  PVCL2     H18C          -16.8255239091       26.0905103144       -2.6494370595  MEMB      42              0.0000000000
     44038      1302  PVCL2     CB3            -8.9448199975       34.1788143562      -15.3456094768  MEMB      42              0.0000000000
     44039      1302  PVCL2     H3D            -8.2341642276       34.9629281111      -15.0072976490  MEMB      42              0.0000000000
     44040      1302  PVCL2     H3E            -9.1365759239       33.6198972246      -14.4047786514  MEMB      42              0.0000000000
     44041      1302  PVCL2     CB4           -10.2697630321       34.5858156030      -16.0063220162  MEMB      42              0.0000000000
     44042      1302  PVCL2     H4D           -10.9193618687       33.7256850927      -16.2756140733  MEMB      42              0.0000000000
     44043      1302  PVCL2     H4E           -10.0692776346       35.1743068094      -16.9270853933  MEMB      42              0.0000000000
     44044      1302  PVCL2     CB5           -11.0354435045       35.6381802705      -15.1040858544  MEMB      42              0.0000000000
     44045      1302  PVCL2     H5D           -11.8626822370       35.9311749138      -15.7853718304  MEMB      42              0.0000000000
     44046      1302  PVCL2     H5E           -10.3930623095       36.5361093759      -14.9800273652  MEMB      42              0.0000000000
     44047      1302  PVCL2     CB6           -11.3677900753       35.0748183916      -13.7338446541  MEMB      42              0.0000000000
     44048      1302  PVCL2     H6D           -10.4485040826       35.0524830180      -13.1103576801  MEMB      42              0.0000000000
     44049      1302  PVCL2     H6E           -11.7111937721       34.0182222747      -13.7336617892  MEMB      42              0.0000000000
     44050      1302  PVCL2     CB7           -12.3558108066       35.9252086539      -12.9531939503  MEMB      42              0.0000000000
     44051      1302  PVCL2     H7D           -13.3274544148       35.7866275719      -13.4737946396  MEMB      42              0.0000000000
     44052      1302  PVCL2     H7E           -12.1263312228       37.0100639539      -13.0221087175  MEMB      42              0.0000000000
     44053      1302  PVCL2     CB8           -12.4044469960       35.3488451278      -11.4683122352  MEMB      42              0.0000000000
     44054      1302  PVCL2     H8D           -11.4380896760       35.4066091727      -10.9232088390  MEMB      42              0.0000000000
     44055      1302  PVCL2     H8E           -12.6636196685       34.2719087715      -11.5540973785  MEMB      42              0.0000000000
     44056      1302  PVCL2     CB9           -13.5298234222       35.9588394365      -10.6328683474  MEMB      42              0.0000000000
     44057      1302  PVCL2     H9D           -14.4687509261       35.3977590330      -10.8276116121  MEMB      42              0.0000000000
     44058      1302  PVCL2     H9E           -13.6898071723       37.0423302356      -10.8193444081  MEMB      42              0.0000000000
     44059      1302  PVCL2     CB10          -13.3227253793       35.7711693019       -9.1226263889  MEMB      42              0.0000000000
     44060      1302  PVCL2     H10D          -12.3759012265       36.2326306313       -8.7692157904  MEMB      42              0.0000000000
     44061      1302  PVCL2     H10E          -13.3788089436       34.6901467187       -8.8724938049  MEMB      42              0.0000000000
     44062      1302  PVCL2     CB11          -14.3714156538       36.3723284209       -8.2106392206  MEMB      42              0.0000000000
     44063      1302  PVCL2     H11D          -15.3776171794       36.1142656651       -8.6047004396  MEMB      42              0.0000000000
     44064      1302  PVCL2     H11E          -14.3591046756       37.4733269043       -8.3588684110  MEMB      42              0.0000000000
     44065      1302  PVCL2     CB12          -14.3478789272       35.9694072341       -6.7364659015  MEMB      42              0.0000000000
     44066      1302  PVCL2     H12D          -14.9362820425       36.6854311879       -6.1237558946  MEMB      42              0.0000000000
     44067      1302  PVCL2     H12E          -13.3165527539       36.2399468438       -6.4242235476  MEMB      42              0.0000000000
     44068      1302  PVCL2     CB13          -14.4693304518       34.5063695966       -6.2394245333  MEMB      42              0.0000000000
     44069      1302  PVCL2     H13D          -13.4414055642       34.3017031407       -5.8709096459  MEMB      42              0.0000000000
     44070      1302  PVCL2     H13E          -14.6141564830       33.8362590773       -7.1136666266  MEMB      42              0.0000000000
     44071      1302  PVCL2     CB14          -15.3434197053       34.1734284537       -5.0548935801  MEMB      42              0.0000000000
     44072      1302  PVCL2     H14D          -15.2380602148       35.1014545659       -4.4532384869  MEMB      42              0.0000000000
     44073      1302  PVCL2     H14E          -14.9383318171       33.3003300076       -4.4999850678  MEMB      42              0.0000000000
     44074      1302  PVCL2     CB15          -16.8563004313       33.9474357186       -5.3727453894  MEMB      42              0.0000000000
     44075      1302  PVCL2     H15D          -16.8477416228       33.1307640492       -6.1259346307  MEMB      42              0.0000000000
     44076      1302  PVCL2     H15E          -17.1885063089       34.8879654827       -5.8619940287  MEMB      42              0.0000000000
     44077      1302  PVCL2     CB16          -17.8024878193       33.7423896438       -4.2721453328  MEMB      42              0.0000000000
     44078      1302  PVCL2     H16D          -17.5540063557       32.9064497825       -3.5838280161  MEMB      42              0.0000000000
     44079      1302  PVCL2     H16E          -18.8287326376       33.4932080250       -4.6171849227  MEMB      42              0.0000000000
     44080      1302  PVCL2     H16F          -17.8564615400       34.5894056950       -3.5552278564  MEMB      42              0.0000000000
     44081      1302  PVCL2     CC3           -13.7435932804       32.7920874097      -18.9067862407  MEMB      42              0.0000000000
     44082      1302  PVCL2     H3R           -14.6082314303       32.5332704599      -19.5546559417  MEMB      42              0.0000000000
     44083      1302  PVCL2     H3S           -13.2382995357       33.6541037134      -19.3925093320  MEMB      42              0.0000000000
     44084      1302  PVCL2     CC4           -14.2063020245       33.2957994306      -17.5545892339  MEMB      42              0.0000000000
     44085      1302  PVCL2     H4R           -14.6065477822       34.3267288112      -17.6609330670  MEMB      42              0.0000000000
     44086      1302  PVCL2     H4S           -13.3087658911       33.4044488661      -16.9088758988  MEMB      42              0.0000000000
     44087      1302  PVCL2     CC5           -15.2029572391       32.3682196181      -16.7765652188  MEMB      42              0.0000000000
     44088      1302  PVCL2     H5R           -14.8491847898       31.3328525059      -16.9693890652  MEMB      42              0.0000000000
     44089      1302  PVCL2     H5S           -16.2176172985       32.4410288149      -17.2232032048  MEMB      42              0.0000000000
     44090      1302  PVCL2     CC6           -15.3537391329       32.7083068703      -15.2997560303  MEMB      42              0.0000000000
     44091      1302  PVCL2     H6R           -16.0595823855       33.5299678063      -15.0528135024  MEMB      42              0.0000000000
     44092      1302  PVCL2     H6S           -14.3877223750       32.9386878803      -14.8017029859  MEMB      42              0.0000000000
     44093      1302  PVCL2     CC7           -15.7648366532       31.4455575189      -14.5597586644  MEMB      42              0.0000000000
     44094      1302  PVCL2     H7R           -15.2341689284       30.5709459779      -14.9930798180  MEMB      42              0.0000000000
     44095      1302  PVCL2     H7S           -16.8043102397       31.1223084361      -14.7818536062  MEMB      42              0.0000000000
     44096      1302  PVCL2     CC8           -15.4673286095       31.2927105446      -13.0304637228  MEMB      42              0.0000000000
     44097      1302  PVCL2     H8R           -16.0090591325       31.9807645189      -12.3467744527  MEMB      42              0.0000000000
     44098      1302  PVCL2     H8S           -14.3727516240       31.3840782250      -12.8635088162  MEMB      42              0.0000000000
     44099      1302  PVCL2     CC9           -15.9494741656       29.9669663401      -12.5181735403  MEMB      42              0.0000000000
     44100      1302  PVCL2     H9R           -15.5423330443       29.0546351357      -13.0041868056  MEMB      42              0.0000000000
     44101      1302  PVCL2     H9S           -17.0394075471       29.8627570438      -12.7066073085  MEMB      42              0.0000000000
     44102      1302  PVCL2     CC10          -15.7311484001       29.7325769083      -11.0245673584  MEMB      42              0.0000000000
     44103      1302  PVCL2     H10R          -16.3003357321       28.8223170184      -10.7386073221  MEMB      42              0.0000000000
     44104      1302  PVCL2     H10S          -16.2026209246       30.5845603548      -10.4896290956  MEMB      42              0.0000000000
     44105      1302  PVCL2     CC11          -14.2713558208       29.7285918724      -10.7436130931  MEMB      42              0.0000000000
     44106      1302  PVCL2     H11R          -13.6765420990       29.1290084163      -11.4483798638  MEMB      42              0.0000000000
     44107      1302  PVCL2     CC12          -13.5598511678       30.3815934724       -9.7986080540  MEMB      42              0.0000000000
     44108      1302  PVCL2     H12R          -12.4733970762       30.2339422262       -9.7101985697  MEMB      42              0.0000000000
     44109      1302  PVCL2     CC13          -14.0917213844       31.2829180210       -8.7984266749  MEMB      42              0.0000000000
     44110      1302  PVCL2     H13R          -15.1913538538       31.3858929382       -8.9189488026  MEMB      42              0.0000000000
     44111      1302  PVCL2     H13S          -13.7160551185       32.3267631123       -8.8582896587  MEMB      42              0.0000000000
     44112      1302  PVCL2     CC14          -13.8530456826       30.8007657775       -7.3269849270  MEMB      42              0.0000000000
     44113      1302  PVCL2     H14R          -14.2494149259       29.7641449511       -7.2757023176  MEMB      42              0.0000000000
     44114      1302  PVCL2     H14S          -14.3462959057       31.3507590453       -6.4972060313  MEMB      42              0.0000000000
     44115      1302  PVCL2     CC15          -12.3793640203       30.7219658666       -6.8236319062  MEMB      42              0.0000000000
     44116      1302  PVCL2     H15R          -12.1695209960       31.8055558191       -6.9505952220  MEMB      42              0.0000000000
     44117      1302  PVCL2     H15S          -11.6895045076       30.1722221668       -7.4990544193  MEMB      42              0.0000000000
     44118      1302  PVCL2     CC16          -12.2362123731       30.2031113885       -5.3775428868  MEMB      42              0.0000000000
     44119      1302  PVCL2     H16R          -11.1481926904       29.9787749552       -5.3919396183  MEMB      42              0.0000000000
     44120      1302  PVCL2     H16S          -12.7318205688       29.2256724362       -5.1950413282  MEMB      42              0.0000000000
     44121      1302  PVCL2     CC17          -12.3980169882       31.2552871674       -4.3389931583  MEMB      42              0.0000000000
     44122      1302  PVCL2     H17R          -13.4364103926       31.5751197683       -4.1071144838  MEMB      42              0.0000000000
     44123      1302  PVCL2     H17S          -11.8207017024       32.1508823518       -4.6535356278  MEMB      42              0.0000000000
     44124      1302  PVCL2     CC18          -12.0011024391       30.7899932949       -2.9185128719  MEMB      42              0.0000000000
     44125      1302  PVCL2     H18R          -10.9378769982       30.4717163930       -2.8677938664  MEMB      42              0.0000000000
     44126      1302  PVCL2     H18S          -12.6865985187       30.0212795572       -2.5019836938  MEMB      42              0.0000000000
     44127      1302  PVCL2     H18T          -12.1016038942       31.5207448427       -2.0877145347  MEMB      42              0.0000000000
     44128      1302  PVCL2     CD3            -9.8834453069       29.9894400368      -15.0961732358  MEMB      42              0.0000000000
     44129      1302  PVCL2     H3X           -10.0296147463       30.2751796070      -16.1598030666  MEMB      42              0.0000000000
     44130      1302  PVCL2     H3Y            -8.8031405168       30.2089429369      -14.9580389043  MEMB      42              0.0000000000
     44131      1302  PVCL2     CD4           -10.6460776254       30.8628206468      -14.1465042430  MEMB      42              0.0000000000
     44132      1302  PVCL2     H4X           -11.7445203933       30.7012695028      -14.1059363611  MEMB      42              0.0000000000
     44133      1302  PVCL2     H4Y           -10.4637685580       31.9135841409      -14.4579212344  MEMB      42              0.0000000000
     44134      1302  PVCL2     CD5           -10.0634372873       30.7718698312      -12.7280462426  MEMB      42              0.0000000000
     44135      1302  PVCL2     H5X            -9.0174210180       30.3977011903      -12.7410372938  MEMB      42              0.0000000000
     44136      1302  PVCL2     H5Y           -10.6763058365       29.9504105453      -12.2991899032  MEMB      42              0.0000000000
     44137      1302  PVCL2     CD6           -10.2624389671       32.1134770626      -11.9402064766  MEMB      42              0.0000000000
     44138      1302  PVCL2     H6X           -11.3262765828       32.4244381587      -12.0168464218  MEMB      42              0.0000000000
     44139      1302  PVCL2     H6Y            -9.5222179543       32.8608126424      -12.2978146654  MEMB      42              0.0000000000
     44140      1302  PVCL2     CD7           -10.0102452885       32.0364158064      -10.3813871810  MEMB      42              0.0000000000
     44141      1302  PVCL2     H7X           -10.6592980827       31.2487384882       -9.9425063187  MEMB      42              0.0000000000
     44142      1302  PVCL2     H7Y           -10.2171137393       33.0428630558       -9.9587877573  MEMB      42              0.0000000000
     44143      1302  PVCL2     CD8            -8.5364204659       31.7104804539       -9.9491737857  MEMB      42              0.0000000000
     44144      1302  PVCL2     H8X            -7.8646639201       32.5630421334      -10.1862451337  MEMB      42              0.0000000000
     44145      1302  PVCL2     H8Y            -8.1736674053       30.7617233670      -10.3992759451  MEMB      42              0.0000000000
     44146      1302  PVCL2     CD9            -8.4364212531       31.4362575834       -8.4040893064  MEMB      42              0.0000000000
     44147      1302  PVCL2     H9X            -7.4147764268       31.0727900464       -8.1623161555  MEMB      42              0.0000000000
     44148      1302  PVCL2     H9Y            -9.1695017987       30.6444650980       -8.1395545653  MEMB      42              0.0000000000
     44149      1302  PVCL2     CD10           -8.8270942955       32.6872648092       -7.5484292468  MEMB      42              0.0000000000
     44150      1302  PVCL2     H10X           -9.8040075849       33.0980298607       -7.8819459466  MEMB      42              0.0000000000
     44151      1302  PVCL2     H10Y           -8.1538169186       33.5650997826       -7.6505302750  MEMB      42              0.0000000000
     44152      1302  PVCL2     CD11           -9.0259430380       32.4138619135       -6.0916698301  MEMB      42              0.0000000000
     44153      1302  PVCL2     H11X           -9.7691415265       31.6087953336       -5.9077001693  MEMB      42              0.0000000000
     44154      1302  PVCL2     H11Y           -9.5747274377       33.2556657541       -5.6178309147  MEMB      42              0.0000000000
     44155      1302  PVCL2     CD12           -7.6560636552       32.1645938280       -5.3294080535  MEMB      42              0.0000000000
     44156      1302  PVCL2     H12X           -7.3906228188       31.1862471655       -5.7840500061  MEMB      42              0.0000000000
     44157      1302  PVCL2     H12Y           -7.7843830975       31.9419768166       -4.2485299118  MEMB      42              0.0000000000
     44158      1302  PVCL2     CD13           -6.5830285479       33.2402122701       -5.3955068838  MEMB      42              0.0000000000
     44159      1302  PVCL2     H13X           -7.1768276806       34.1123304505       -5.0474653042  MEMB      42              0.0000000000
     44160      1302  PVCL2     H13Y           -6.1525105519       33.3555258430       -6.4131894810  MEMB      42              0.0000000000
     44161      1302  PVCL2     CD14           -5.4971030332       32.9885917501       -4.3462906414  MEMB      42              0.0000000000
     44162      1302  PVCL2     H14X           -4.5460412896       33.5537599116       -4.4482135621  MEMB      42              0.0000000000
     44163      1302  PVCL2     H14Y           -5.2973070260       31.8959978089       -4.3716090611  MEMB      42              0.0000000000
     44164      1302  PVCL2     CD15           -6.0356942817       33.3004681610       -2.9289671600  MEMB      42              0.0000000000
     44165      1302  PVCL2     H15X           -6.9615851243       32.7239959115       -2.7174796190  MEMB      42              0.0000000000
     44166      1302  PVCL2     H15Y           -6.2602055353       34.3858244369       -2.8520454219  MEMB      42              0.0000000000
     44167      1302  PVCL2     CD16           -5.0194525884       33.0475269008       -1.8483176715  MEMB      42              0.0000000000
     44168      1302  PVCL2     H16X           -5.0060951945       31.9491978455       -1.6815368591  MEMB      42              0.0000000000
     44169      1302  PVCL2     H16Y           -5.3606264496       33.5607347268       -0.9239050256  MEMB      42              0.0000000000
     44170      1302  PVCL2     H16Z           -4.0177482593       33.3632376041       -2.2105831382  MEMB      42              0.0000000000
     44171      1303  PPPE      N             -25.2371713642       17.1335283679      -20.2149239503  MEMB      43              0.0000000000
     44172      1303  PPPE      HN1           -24.9830433270       16.2793909574      -20.7510845837  MEMB      43              0.0000000000
     44173      1303  PPPE      HN2           -25.0331543629       16.9795996751      -19.2068153149  MEMB      43              0.0000000000
     44174      1303  PPPE      HN3           -26.1900296755       17.5272189507      -20.3515576337  MEMB      43              0.0000000000
     44175      1303  PPPE      C12           -24.2951958054       18.2237727156      -20.6289546779  MEMB      43              0.0000000000
     44176      1303  PPPE      H12A          -24.5542969463       18.5317927242      -21.6644793145  MEMB      43              0.0000000000
     44177      1303  PPPE      H12B          -23.2645732274       17.8199464022      -20.5337579854  MEMB      43              0.0000000000
     44178      1303  PPPE      C11           -24.3893238632       19.5661840570      -19.8199101655  MEMB      43              0.0000000000
     44179      1303  PPPE      H11A          -25.4483175738       19.9014318603      -19.7984105964  MEMB      43              0.0000000000
     44180      1303  PPPE      H11B          -23.8950696204       20.3374302319      -20.4485699155  MEMB      43              0.0000000000
     44181      1303  PPPE      P             -22.2975347986       19.9393823745      -18.3221633378  MEMB      43              0.0000000000
     44182      1303  PPPE      O13           -21.4449046748       19.0687720092      -19.2694175782  MEMB      43              0.0000000000
     44183      1303  PPPE      O14           -22.0754537936       21.3936644685      -18.4053195066  MEMB      43              0.0000000000
     44184      1303  PPPE      O11           -22.1072970901       19.4853367075      -16.8393192252  MEMB      43              0.0000000000
     44185      1303  PPPE      O12           -23.8699321958       19.6415072986      -18.4999918854  MEMB      43              0.0000000000
     44186      1303  PPPE      C1            -22.0283889664       18.0540046343      -16.5216920332  MEMB      43              0.0000000000
     44187      1303  PPPE      HA            -20.9403497900       17.8455178857      -16.4378766037  MEMB      43              0.0000000000
     44188      1303  PPPE      HB            -22.5246794173       17.3892058037      -17.2606502886  MEMB      43              0.0000000000
     44189      1303  PPPE      C2            -22.6158934791       17.8902377614      -15.1229541914  MEMB      43              0.0000000000
     44190      1303  PPPE      HS            -23.7008605664       18.1163763151      -15.2005993714  MEMB      43              0.0000000000
     44191      1303  PPPE      O21           -22.0267946235       18.8650001652      -14.2512415725  MEMB      43              0.0000000000
     44192      1303  PPPE      C21           -22.6434892393       19.9940140251      -13.9334026468  MEMB      43              0.0000000000
     44193      1303  PPPE      O22           -23.6436292330       20.3844765391      -14.4916608266  MEMB      43              0.0000000000
     44194      1303  PPPE      C22           -21.7633616372       20.6924198580      -12.9069412085  MEMB      43              0.0000000000
     44195      1303  PPPE      H2R           -20.7417409503       20.6917735874      -13.3435322694  MEMB      43              0.0000000000
     44196      1303  PPPE      H2S           -21.7426416903       19.9615042435      -12.0704879532  MEMB      43              0.0000000000
     44197      1303  PPPE      C3            -22.4284125250       16.4890190590      -14.4969877619  MEMB      43              0.0000000000
     44198      1303  PPPE      HX            -22.8178591554       15.6376889747      -15.0952263509  MEMB      43              0.0000000000
     44199      1303  PPPE      HY            -21.3479671778       16.2943711698      -14.3264854133  MEMB      43              0.0000000000
     44200      1303  PPPE      O31           -22.9726624279       16.6046552418      -13.1894819821  MEMB      43              0.0000000000
     44201      1303  PPPE      C31           -24.0814093121       15.9032139367      -12.9701194941  MEMB      43              0.0000000000
     44202      1303  PPPE      O32           -24.6818221298       15.1145690088      -13.7093949955  MEMB      43              0.0000000000
     44203      1303  PPPE      C32           -24.7010759791       16.3884574901      -11.6493336790  MEMB      43              0.0000000000
     44204      1303  PPPE      H2X           -24.0832031927       17.1857591072      -11.1836467118  MEMB      43              0.0000000000
     44205      1303  PPPE      H2Y           -24.7844940937       15.4903696264      -11.0006422213  MEMB      43              0.0000000000
     44206      1303  PPPE      C23           -22.3411158164       22.0970113179      -12.6910653566  MEMB      43              0.0000000000
     44207      1303  PPPE      H3R           -22.1590559003       22.7517388528      -13.5699891543  MEMB      43              0.0000000000
     44208      1303  PPPE      H3S           -21.8335669505       22.5706237955      -11.8236517472  MEMB      43              0.0000000000
     44209      1303  PPPE      C24           -23.8138799503       22.3666198968      -12.2179537901  MEMB      43              0.0000000000
     44210      1303  PPPE      H4R           -24.6107266692       22.1109315638      -12.9486929933  MEMB      43              0.0000000000
     44211      1303  PPPE      H4S           -23.7835285781       23.4274908832      -11.8893924651  MEMB      43              0.0000000000
     44212      1303  PPPE      C25           -24.1849222943       21.7385638607      -10.9188904293  MEMB      43              0.0000000000
     44213      1303  PPPE      H5R           -23.3739446822       22.0199601605      -10.2135873487  MEMB      43              0.0000000000
     44214      1303  PPPE      H5S           -24.2289772387       20.6285804334      -10.9366935965  MEMB      43              0.0000000000
     44215      1303  PPPE      C26           -25.5461722872       22.2229493989      -10.3475735552  MEMB      43              0.0000000000
     44216      1303  PPPE      H6R           -26.2365413226       21.8851407116      -11.1498184591  MEMB      43              0.0000000000
     44217      1303  PPPE      H6S           -25.6075692964       23.3307773833      -10.2904021965  MEMB      43              0.0000000000
     44218      1303  PPPE      C27           -25.9491152504       21.5443598365       -9.0155088645  MEMB      43              0.0000000000
     44219      1303  PPPE      H7R           -25.0465175914       21.2892247183       -8.4200724385  MEMB      43              0.0000000000
     44220      1303  PPPE      H7S           -26.3862458199       20.5882435561       -9.3747852534  MEMB      43              0.0000000000
     44221      1303  PPPE      C28           -26.8479872920       22.4724264562       -8.1500254933  MEMB      43              0.0000000000
     44222      1303  PPPE      H8R           -27.5131686701       22.8968162724       -8.9321687143  MEMB      43              0.0000000000
     44223      1303  PPPE      H8S           -26.1688077570       23.2782706563       -7.7983846477  MEMB      43              0.0000000000
     44224      1303  PPPE      C29           -27.4558431476       21.6778088558       -7.0621318225  MEMB      43              0.0000000000
     44225      1303  PPPE      H91           -28.5488070864       21.5536512171       -7.0582965704  MEMB      43              0.0000000000
     44226      1303  PPPE      C210          -26.8270170697       21.2884562965       -5.9287354821  MEMB      43              0.0000000000
     44227      1303  PPPE      H101          -27.4678247938       21.0319372136       -5.0722523119  MEMB      43              0.0000000000
     44228      1303  PPPE      C211          -25.4165485529       21.6080699658       -5.5111274718  MEMB      43              0.0000000000
     44229      1303  PPPE      H11R          -24.9925482179       22.5265311959       -5.9704461899  MEMB      43              0.0000000000
     44230      1303  PPPE      H11S          -24.7781297987       20.7151043296       -5.6824600922  MEMB      43              0.0000000000
     44231      1303  PPPE      C212          -25.3204433857       21.9139825462       -3.9213123944  MEMB      43              0.0000000000
     44232      1303  PPPE      H12R          -25.8109540190       21.0359743861       -3.4492721531  MEMB      43              0.0000000000
     44233      1303  PPPE      H12S          -25.8914016677       22.8548424924       -3.7692919946  MEMB      43              0.0000000000
     44234      1303  PPPE      C213          -23.8419995198       22.0399833951       -3.4311176296  MEMB      43              0.0000000000
     44235      1303  PPPE      H13R          -23.3028839966       22.9141192585       -3.8548651312  MEMB      43              0.0000000000
     44236      1303  PPPE      H13S          -23.1373920541       21.2133801897       -3.6647336821  MEMB      43              0.0000000000
     44237      1303  PPPE      C214          -23.6753949420       22.2044867246       -1.9021643018  MEMB      43              0.0000000000
     44238      1303  PPPE      H14R          -24.5289401776       21.7520705374       -1.3534374805  MEMB      43              0.0000000000
     44239      1303  PPPE      H14S          -23.8867568580       23.2884323732       -1.7808837536  MEMB      43              0.0000000000
     44240      1303  PPPE      C215          -22.3360912731       21.9155888071       -1.2745983863  MEMB      43              0.0000000000
     44241      1303  PPPE      H15R          -21.6307104579       22.5390306267       -1.8645807616  MEMB      43              0.0000000000
     44242      1303  PPPE      H15S          -21.9201875962       20.8853727521       -1.2747060715  MEMB      43              0.0000000000
     44243      1303  PPPE      C216          -22.0843599073       22.4241370821        0.2011663305  MEMB      43              0.0000000000
     44244      1303  PPPE      H16R          -23.0775353152       22.4870029918        0.6951010290  MEMB      43              0.0000000000
     44245      1303  PPPE      H16S          -21.3379931154       21.8329300882        0.7736450659  MEMB      43              0.0000000000
     44246      1303  PPPE      H16T          -21.7058589793       23.4678191735        0.2434243435  MEMB      43              0.0000000000
     44247      1303  PPPE      C33           -26.0346248397       17.0072598592      -12.0485479112  MEMB      43              0.0000000000
     44248      1303  PPPE      H3X           -26.8230384914       16.2588176279      -12.2778057142  MEMB      43              0.0000000000
     44249      1303  PPPE      H3Y           -26.0136500482       17.7041339559      -12.9135609467  MEMB      43              0.0000000000
     44250      1303  PPPE      C34           -26.6701121499       17.8351138878      -10.9025495536  MEMB      43              0.0000000000
     44251      1303  PPPE      H4X           -27.7759013684       17.9339039538      -10.9448783490  MEMB      43              0.0000000000
     44252      1303  PPPE      H4Y           -26.1471652266       18.7814728262      -11.1579948023  MEMB      43              0.0000000000
     44253      1303  PPPE      C35           -26.4092663628       17.4356358513       -9.4052732839  MEMB      43              0.0000000000
     44254      1303  PPPE      H5X           -26.5743194837       16.3432755647       -9.2876830147  MEMB      43              0.0000000000
     44255      1303  PPPE      H5Y           -27.2128365573       17.9800329490       -8.8646923533  MEMB      43              0.0000000000
     44256      1303  PPPE      C36           -25.1138148723       17.7799492143       -8.7001843500  MEMB      43              0.0000000000
     44257      1303  PPPE      H6X           -24.8295631560       18.8473491536       -8.8192613481  MEMB      43              0.0000000000
     44258      1303  PPPE      H6Y           -24.2909331891       17.1746534080       -9.1369952040  MEMB      43              0.0000000000
     44259      1303  PPPE      C37           -25.1729908636       17.8241999867       -7.1583764126  MEMB      43              0.0000000000
     44260      1303  PPPE      H7X           -26.0232773946       18.4296333305       -6.7778711149  MEMB      43              0.0000000000
     44261      1303  PPPE      H7Y           -24.1814118721       18.1184157918       -6.7527544662  MEMB      43              0.0000000000
     44262      1303  PPPE      C38           -25.4763203156       16.3295524405       -6.6758830216  MEMB      43              0.0000000000
     44263      1303  PPPE      H8X           -24.7175066926       15.6885222785       -7.1734804662  MEMB      43              0.0000000000
     44264      1303  PPPE      H8Y           -26.5340825571       16.1380700374       -6.9565866548  MEMB      43              0.0000000000
     44265      1303  PPPE      C39           -25.5047854341       16.1382925063       -5.0694043614  MEMB      43              0.0000000000
     44266      1303  PPPE      H9X           -24.6027746470       16.5151362597       -4.5414968643  MEMB      43              0.0000000000
     44267      1303  PPPE      H9Y           -25.5173793498       15.0298431079       -4.9952267076  MEMB      43              0.0000000000
     44268      1303  PPPE      C310          -26.7835786305       16.5637065972       -4.3126658283  MEMB      43              0.0000000000
     44269      1303  PPPE      H10X          -27.6235013917       15.9175108238       -4.6462550632  MEMB      43              0.0000000000
     44270      1303  PPPE      H10Y          -27.1168413897       17.5834328097       -4.6014830453  MEMB      43              0.0000000000
     44271      1303  PPPE      C311          -26.7007220107       16.4230314783       -2.8305166481  MEMB      43              0.0000000000
     44272      1303  PPPE      H11X          -26.2106988104       15.4529408627       -2.6000335456  MEMB      43              0.0000000000
     44273      1303  PPPE      H11Y          -27.7228631478       16.5696231248       -2.4205661815  MEMB      43              0.0000000000
     44274      1303  PPPE      C312          -25.8569774553       17.4696016890       -2.1385335793  MEMB      43              0.0000000000
     44275      1303  PPPE      H12X          -26.5709888952       18.3157593082       -2.2308696351  MEMB      43              0.0000000000
     44276      1303  PPPE      H12Y          -24.9397056879       17.5754560497       -2.7563752736  MEMB      43              0.0000000000
     44277      1303  PPPE      C313          -25.5557291056       17.1351392963       -0.6895330022  MEMB      43              0.0000000000
     44278      1303  PPPE      H13X          -24.8772811714       16.2585907870       -0.6140869198  MEMB      43              0.0000000000
     44279      1303  PPPE      H13Y          -26.4530628393       16.7416117163       -0.1658449136  MEMB      43              0.0000000000
     44280      1303  PPPE      C314          -25.0708035838       18.4442024340        0.0582384719  MEMB      43              0.0000000000
     44281      1303  PPPE      H14X          -24.0959258868       18.7565044683       -0.3735044091  MEMB      43              0.0000000000
     44282      1303  PPPE      H14Y          -24.8269596388       18.1219986407        1.0931519205  MEMB      43              0.0000000000
     44283      1303  PPPE      C315          -26.0834678069       19.6396003336       -0.0045152980  MEMB      43              0.0000000000
     44284      1303  PPPE      H15X          -25.9307639237       20.2231303122       -0.9375186678  MEMB      43              0.0000000000
     44285      1303  PPPE      H15Y          -25.7613326004       20.2541044189        0.8632027655  MEMB      43              0.0000000000
     44286      1303  PPPE      C316          -27.4810829791       19.0846948469        0.2408813807  MEMB      43              0.0000000000
     44287      1303  PPPE      H16X          -27.8242945082       18.4122747505       -0.5742125159  MEMB      43              0.0000000000
     44288      1303  PPPE      H16Y          -27.4090982734       18.6142362748        1.2447777569  MEMB      43              0.0000000000
     44289      1303  PPPE      H16Z          -28.0490834908       20.0389187588        0.2748393621  MEMB      43              0.0000000000
     44290      1304  PPPE      N             -23.3796159517      -18.5802575422      -21.6305461054  MEMB      44              0.0000000000
     44291      1304  PPPE      HN1           -23.5820047786      -17.8614780405      -20.9066712606  MEMB      44              0.0000000000
     44292      1304  PPPE      HN2           -22.3900154218      -18.5714542246      -21.9502542421  MEMB      44              0.0000000000
     44293      1304  PPPE      HN3           -24.0245453157      -18.4812665451      -22.4404022025  MEMB      44              0.0000000000
     44294      1304  PPPE      C12           -23.7252814602      -19.8755081937      -20.8975947946  MEMB      44              0.0000000000
     44295      1304  PPPE      H12A          -24.2389361200      -20.4942492664      -21.6641711936  MEMB      44              0.0000000000
     44296      1304  PPPE      H12B          -24.3620026379      -19.5948048179      -20.0315042932  MEMB      44              0.0000000000
     44297      1304  PPPE      C11           -22.3925095398      -20.5140689882      -20.3200723812  MEMB      44              0.0000000000
     44298      1304  PPPE      H11A          -21.6967505811      -20.5793662598      -21.1837718299  MEMB      44              0.0000000000
     44299      1304  PPPE      H11B          -22.5645470543      -21.5205066718      -19.8821142981  MEMB      44              0.0000000000
     44300      1304  PPPE      P             -22.4804822294      -19.6234097694      -17.8326075850  MEMB      44              0.0000000000
     44301      1304  PPPE      O13           -23.2471378350      -18.3831136427      -17.7772579376  MEMB      44              0.0000000000
     44302      1304  PPPE      O14           -23.2734324004      -20.8298769238      -17.5182347910  MEMB      44              0.0000000000
     44303      1304  PPPE      O11           -21.2744721920      -19.4944008874      -16.8088113234  MEMB      44              0.0000000000
     44304      1304  PPPE      O12           -21.8074315527      -19.7488880053      -19.2148748450  MEMB      44              0.0000000000
     44305      1304  PPPE      C1            -19.9515917789      -19.9382545610      -16.9429660134  MEMB      44              0.0000000000
     44306      1304  PPPE      HA            -19.2389733448      -19.1369351372      -17.2334537903  MEMB      44              0.0000000000
     44307      1304  PPPE      HB            -19.9248406764      -20.5837028882      -17.8468475518  MEMB      44              0.0000000000
     44308      1304  PPPE      C2            -19.4835399609      -20.7538888564      -15.6977071357  MEMB      44              0.0000000000
     44309      1304  PPPE      HS            -18.5824309218      -21.3821410580      -15.8639078293  MEMB      44              0.0000000000
     44310      1304  PPPE      O21           -20.5348755602      -21.5783058150      -15.1940320628  MEMB      44              0.0000000000
     44311      1304  PPPE      C21           -21.0397877658      -22.6755232102      -15.8731204242  MEMB      44              0.0000000000
     44312      1304  PPPE      O22           -20.7314421126      -23.0916268883      -16.9697293165  MEMB      44              0.0000000000
     44313      1304  PPPE      C22           -22.3477227304      -23.1402301537      -15.0798498869  MEMB      44              0.0000000000
     44314      1304  PPPE      H2R           -22.0565738321      -24.1053874096      -14.6129186389  MEMB      44              0.0000000000
     44315      1304  PPPE      H2S           -23.1347433970      -23.2801839405      -15.8514277558  MEMB      44              0.0000000000
     44316      1304  PPPE      C3            -19.0080284753      -19.9376011565      -14.5335213926  MEMB      44              0.0000000000
     44317      1304  PPPE      HX            -18.7704814553      -20.5705026821      -13.6518592849  MEMB      44              0.0000000000
     44318      1304  PPPE      HY            -18.1330346721      -19.2870988270      -14.7469542003  MEMB      44              0.0000000000
     44319      1304  PPPE      O31           -20.0471639835      -19.0223929951      -14.1191340374  MEMB      44              0.0000000000
     44320      1304  PPPE      C31           -19.7491004550      -18.4477946095      -12.8806415953  MEMB      44              0.0000000000
     44321      1304  PPPE      O32           -18.8317593270      -18.7219432916      -12.1001669706  MEMB      44              0.0000000000
     44322      1304  PPPE      C32           -20.8829330006      -17.4004390394      -12.6144098347  MEMB      44              0.0000000000
     44323      1304  PPPE      H2X           -21.8576842972      -17.9166270406      -12.7475670999  MEMB      44              0.0000000000
     44324      1304  PPPE      H2Y           -20.7459821888      -16.5825318173      -13.3537292861  MEMB      44              0.0000000000
     44325      1304  PPPE      C23           -22.9396034765      -22.2330155165      -14.0415927964  MEMB      44              0.0000000000
     44326      1304  PPPE      H3R           -22.7396441510      -21.1912174587      -14.3717353036  MEMB      44              0.0000000000
     44327      1304  PPPE      H3S           -22.4104869646      -22.5010237374      -13.1021630170  MEMB      44              0.0000000000
     44328      1304  PPPE      C24           -24.4857636095      -22.3356763923      -13.6960936336  MEMB      44              0.0000000000
     44329      1304  PPPE      H4R           -24.7355122227      -23.4106972233      -13.5685129021  MEMB      44              0.0000000000
     44330      1304  PPPE      H4S           -25.0205212284      -21.9377446454      -14.5849162333  MEMB      44              0.0000000000
     44331      1304  PPPE      C25           -24.8919078794      -21.5290552502      -12.4926417199  MEMB      44              0.0000000000
     44332      1304  PPPE      H5R           -25.9864658469      -21.6628674881      -12.3571495037  MEMB      44              0.0000000000
     44333      1304  PPPE      H5S           -24.7821849171      -20.4444905002      -12.7071205642  MEMB      44              0.0000000000
     44334      1304  PPPE      C26           -24.1468077866      -21.8009748116      -11.2005264069  MEMB      44              0.0000000000
     44335      1304  PPPE      H6R           -23.0524445045      -21.6095237411      -11.1944853575  MEMB      44              0.0000000000
     44336      1304  PPPE      H6S           -24.1420531093      -22.9104055330      -11.2593640424  MEMB      44              0.0000000000
     44337      1304  PPPE      C27           -24.8547751101      -21.1956793629       -9.9476006848  MEMB      44              0.0000000000
     44338      1304  PPPE      H7R           -25.7340497078      -21.8586295844       -9.8003112229  MEMB      44              0.0000000000
     44339      1304  PPPE      H7S           -25.1327135014      -20.1389892179      -10.1487901177  MEMB      44              0.0000000000
     44340      1304  PPPE      C28           -23.8731045294      -21.0596047230       -8.7522214587  MEMB      44              0.0000000000
     44341      1304  PPPE      H8R           -24.4053501149      -20.4545367321       -7.9874153636  MEMB      44              0.0000000000
     44342      1304  PPPE      H8S           -23.0523251188      -20.4082886425       -9.1215851310  MEMB      44              0.0000000000
     44343      1304  PPPE      C29           -23.1447392735      -22.3367510171       -8.1549916392  MEMB      44              0.0000000000
     44344      1304  PPPE      H91           -22.7981656998      -23.1119632337       -8.8542289219  MEMB      44              0.0000000000
     44345      1304  PPPE      C210          -23.0720945121      -22.7456357402       -6.8586380349  MEMB      44              0.0000000000
     44346      1304  PPPE      H101          -22.6799826833      -23.7476992037       -6.6303462725  MEMB      44              0.0000000000
     44347      1304  PPPE      C211          -23.7152548389      -22.0370528144       -5.6992750131  MEMB      44              0.0000000000
     44348      1304  PPPE      H11R          -24.0808240015      -22.8362227388       -5.0195635896  MEMB      44              0.0000000000
     44349      1304  PPPE      H11S          -24.6417920916      -21.4657767908       -5.9217461892  MEMB      44              0.0000000000
     44350      1304  PPPE      C212          -22.7675543110      -21.0719444261       -4.9334813377  MEMB      44              0.0000000000
     44351      1304  PPPE      H12R          -22.3893956673      -20.3541957004       -5.6925292986  MEMB      44              0.0000000000
     44352      1304  PPPE      H12S          -21.8823974339      -21.6242635042       -4.5516935184  MEMB      44              0.0000000000
     44353      1304  PPPE      C213          -23.4064028645      -20.3720247363       -3.8145852501  MEMB      44              0.0000000000
     44354      1304  PPPE      H13R          -24.2241087975      -19.6300606533       -3.9377408691  MEMB      44              0.0000000000
     44355      1304  PPPE      H13S          -22.6594605710      -19.7105597842       -3.3258498130  MEMB      44              0.0000000000
     44356      1304  PPPE      C214          -23.8764911132      -21.3697557448       -2.7031507320  MEMB      44              0.0000000000
     44357      1304  PPPE      H14R          -23.0029433239      -21.9961686761       -2.4223623791  MEMB      44              0.0000000000
     44358      1304  PPPE      H14S          -24.7667520203      -21.8667744312       -3.1444317566  MEMB      44              0.0000000000
     44359      1304  PPPE      C215          -24.2556801133      -20.6294173653       -1.4784708230  MEMB      44              0.0000000000
     44360      1304  PPPE      H15R          -25.1634210527      -20.0087423625       -1.6368688271  MEMB      44              0.0000000000
     44361      1304  PPPE      H15S          -23.5240358708      -19.8764608228       -1.1150507527  MEMB      44              0.0000000000
     44362      1304  PPPE      C216          -24.4351868929      -21.5269494454       -0.2426551197  MEMB      44              0.0000000000
     44363      1304  PPPE      H16R          -23.5200296030      -21.4223758124        0.3785312371  MEMB      44              0.0000000000
     44364      1304  PPPE      H16S          -25.3535744619      -21.2060030409        0.2938881485  MEMB      44              0.0000000000
     44365      1304  PPPE      H16T          -24.5341779632      -22.5715466123       -0.6078106029  MEMB      44              0.0000000000
     44366      1304  PPPE      C33           -20.7985252901      -16.8526975940      -11.2257634083  MEMB      44              0.0000000000
     44367      1304  PPPE      H3X           -21.6038056665      -16.0888987214      -11.1762074051  MEMB      44              0.0000000000
     44368      1304  PPPE      H3Y           -19.8292883894      -16.4152995579      -10.9039190537  MEMB      44              0.0000000000
     44369      1304  PPPE      C34           -21.4018602829      -17.9713383284      -10.3526805713  MEMB      44              0.0000000000
     44370      1304  PPPE      H4X           -20.9774986993      -18.9704910285      -10.5891803138  MEMB      44              0.0000000000
     44371      1304  PPPE      H4Y           -22.4670275198      -18.1684696579      -10.5994172658  MEMB      44              0.0000000000
     44372      1304  PPPE      C35           -21.4720508121      -17.6052217516       -8.8617184884  MEMB      44              0.0000000000
     44373      1304  PPPE      H5X           -20.4501300397      -17.7703239702       -8.4583077891  MEMB      44              0.0000000000
     44374      1304  PPPE      H5Y           -22.2216563356      -18.2002482201       -8.2974879851  MEMB      44              0.0000000000
     44375      1304  PPPE      C36           -21.9052792501      -16.1615097537       -8.4994865629  MEMB      44              0.0000000000
     44376      1304  PPPE      H6X           -22.8385067436      -15.8453824447       -9.0127807962  MEMB      44              0.0000000000
     44377      1304  PPPE      H6Y           -21.1380442550      -15.4150837110       -8.7970090413  MEMB      44              0.0000000000
     44378      1304  PPPE      C37           -22.1615050359      -16.0376799546       -7.0110007396  MEMB      44              0.0000000000
     44379      1304  PPPE      H7X           -22.9037508743      -16.8117976080       -6.7209421696  MEMB      44              0.0000000000
     44380      1304  PPPE      H7Y           -22.5906444793      -15.0490725808       -6.7411567131  MEMB      44              0.0000000000
     44381      1304  PPPE      C38           -20.9836647198      -16.0669689645       -6.0381257647  MEMB      44              0.0000000000
     44382      1304  PPPE      H8X           -20.3402932854      -15.1716618545       -6.1753094961  MEMB      44              0.0000000000
     44383      1304  PPPE      H8Y           -20.3087052015      -16.8956437332       -6.3415211773  MEMB      44              0.0000000000
     44384      1304  PPPE      C39           -21.4917578097      -16.2129413827       -4.5950612364  MEMB      44              0.0000000000
     44385      1304  PPPE      H9X           -21.9784140010      -17.2114702248       -4.5743996034  MEMB      44              0.0000000000
     44386      1304  PPPE      H9Y           -22.2606813311      -15.4120690653       -4.5540594125  MEMB      44              0.0000000000
     44387      1304  PPPE      C310          -20.3446082946      -16.0568558426       -3.6013007844  MEMB      44              0.0000000000
     44388      1304  PPPE      H10X          -20.8744215091      -15.8750267951       -2.6418440865  MEMB      44              0.0000000000
     44389      1304  PPPE      H10Y          -19.8607462630      -15.1121887752       -3.9296339473  MEMB      44              0.0000000000
     44390      1304  PPPE      C311          -19.2546155945      -17.0417602992       -3.6313121035  MEMB      44              0.0000000000
     44391      1304  PPPE      H11X          -18.4407915006      -16.7438710225       -2.9361334769  MEMB      44              0.0000000000
     44392      1304  PPPE      H11Y          -18.8162429651      -17.0786549492       -4.6515028811  MEMB      44              0.0000000000
     44393      1304  PPPE      C312          -19.7193391247      -18.4612608450       -3.3842879081  MEMB      44              0.0000000000
     44394      1304  PPPE      H12X          -20.5260424975      -18.8070949450       -4.0654262520  MEMB      44              0.0000000000
     44395      1304  PPPE      H12Y          -20.1043870215      -18.5990928153       -2.3513012358  MEMB      44              0.0000000000
     44396      1304  PPPE      C313          -18.6600596564      -19.4887841588       -3.7666806761  MEMB      44              0.0000000000
     44397      1304  PPPE      H13X          -18.2588731459      -19.1714602157       -4.7529240025  MEMB      44              0.0000000000
     44398      1304  PPPE      H13Y          -19.1004777861      -20.5069181062       -3.8279679991  MEMB      44              0.0000000000
     44399      1304  PPPE      C314          -17.3712046608      -19.5909611527       -2.9089158666  MEMB      44              0.0000000000
     44400      1304  PPPE      H14X          -17.1144640735      -18.5376613693       -2.6660891028  MEMB      44              0.0000000000
     44401      1304  PPPE      H14Y          -16.5441586547      -20.0911683812       -3.4567375827  MEMB      44              0.0000000000
     44402      1304  PPPE      C315          -17.5351353004      -20.2585903037       -1.5100638626  MEMB      44              0.0000000000
     44403      1304  PPPE      H15X          -16.5752006212      -20.1240945659       -0.9671483000  MEMB      44              0.0000000000
     44404      1304  PPPE      H15Y          -17.5469016136      -21.3607313710       -1.6495902820  MEMB      44              0.0000000000
     44405      1304  PPPE      C316          -18.6065002300      -19.7763277611       -0.5372366613  MEMB      44              0.0000000000
     44406      1304  PPPE      H16X          -18.4567462706      -20.3597891438        0.3962876108  MEMB      44              0.0000000000
     44407      1304  PPPE      H16Y          -18.4804713445      -18.6986326828       -0.2984668179  MEMB      44              0.0000000000
     44408      1304  PPPE      H16Z          -19.6307814347      -20.0586711843       -0.8619691740  MEMB      44              0.0000000000
     44409      1305  PPPE      N              20.8909846991       23.4142503582      -16.2489633114  MEMB      45              0.0000000000
     44410      1305  PPPE      HN1            21.2304433003       24.3579528208      -15.9736570820  MEMB      45              0.0000000000
     44411      1305  PPPE      HN2            20.1867235262       23.1525911334      -15.5298314386  MEMB      45              0.0000000000
     44412      1305  PPPE      HN3            21.6824425154       22.7400954864      -16.2756041475  MEMB      45              0.0000000000
     44413      1305  PPPE      C12            20.1243187492       23.4240138710      -17.5476115497  MEMB      45              0.0000000000
     44414      1305  PPPE      H12A           19.3051375843       24.1404587137      -17.3240718301  MEMB      45              0.0000000000
     44415      1305  PPPE      H12B           19.6502641999       22.4196947378      -17.5782115984  MEMB      45              0.0000000000
     44416      1305  PPPE      C11            21.0552100083       23.7311828489      -18.6729676791  MEMB      45              0.0000000000
     44417      1305  PPPE      H11A           21.4762977848       24.7299876111      -18.4292565149  MEMB      45              0.0000000000
     44418      1305  PPPE      H11B           20.4532372254       23.7836259773      -19.6052763656  MEMB      45              0.0000000000
     44419      1305  PPPE      P              22.1591553943       21.6937377662      -19.9591365612  MEMB      45              0.0000000000
     44420      1305  PPPE      O13            20.6904007659       21.3620291035      -20.1831839539  MEMB      45              0.0000000000
     44421      1305  PPPE      O14            22.8580942406       22.0172069693      -21.2213673236  MEMB      45              0.0000000000
     44422      1305  PPPE      O11            22.8668309959       20.3708765719      -19.3962758923  MEMB      45              0.0000000000
     44423      1305  PPPE      O12            22.2125475236       22.8502313422      -18.7704938294  MEMB      45              0.0000000000
     44424      1305  PPPE      C1             24.0613445596       20.4710203799      -18.6197391312  MEMB      45              0.0000000000
     44425      1305  PPPE      HA             24.3950191015       21.4982711964      -18.3594737663  MEMB      45              0.0000000000
     44426      1305  PPPE      HB             24.9551851001       20.0751850562      -19.1476448848  MEMB      45              0.0000000000
     44427      1305  PPPE      C2             23.8967372442       19.7568042657      -17.2458547226  MEMB      45              0.0000000000
     44428      1305  PPPE      HS             23.7851941392       18.6918685857      -17.5421504082  MEMB      45              0.0000000000
     44429      1305  PPPE      O21            22.7504568593       20.0979724065      -16.4950376930  MEMB      45              0.0000000000
     44430      1305  PPPE      C21            22.2310775862       19.1741891940      -15.6629822918  MEMB      45              0.0000000000
     44431      1305  PPPE      O22            22.6914499193       18.0283499730      -15.5154039207  MEMB      45              0.0000000000
     44432      1305  PPPE      C22            20.8851174608       19.5969466382      -15.1442876450  MEMB      45              0.0000000000
     44433      1305  PPPE      H2R            20.1261162299       18.7858492894      -15.1253344944  MEMB      45              0.0000000000
     44434      1305  PPPE      H2S            20.5023067308       20.3630632935      -15.8519897120  MEMB      45              0.0000000000
     44435      1305  PPPE      C3             25.1316462692       20.1111595182      -16.4110057326  MEMB      45              0.0000000000
     44436      1305  PPPE      HX             25.1880247181       19.5115851590      -15.4773821155  MEMB      45              0.0000000000
     44437      1305  PPPE      HY             26.0555740580       19.7928543260      -16.9395511382  MEMB      45              0.0000000000
     44438      1305  PPPE      O31            25.0853934641       21.4757005963      -15.9547683024  MEMB      45              0.0000000000
     44439      1305  PPPE      C31            26.1687458512       21.8018829378      -15.2311687081  MEMB      45              0.0000000000
     44440      1305  PPPE      O32            27.0990149847       21.1055899246      -14.9052719148  MEMB      45              0.0000000000
     44441      1305  PPPE      C32            25.9299631142       23.2726693396      -14.8884502701  MEMB      45              0.0000000000
     44442      1305  PPPE      H2X            24.9292778082       23.5625903795      -15.2743203374  MEMB      45              0.0000000000
     44443      1305  PPPE      H2Y            26.6644867685       24.0114408406      -15.2744718636  MEMB      45              0.0000000000
     44444      1305  PPPE      C23            21.0955404885       20.1844648994      -13.6947768639  MEMB      45              0.0000000000
     44445      1305  PPPE      H3R            20.1094103084       20.6758296149      -13.5518468665  MEMB      45              0.0000000000
     44446      1305  PPPE      H3S            21.8962558128       20.9539044584      -13.6610317243  MEMB      45              0.0000000000
     44447      1305  PPPE      C24            21.4928303138       19.1527894226      -12.6522152649  MEMB      45              0.0000000000
     44448      1305  PPPE      H4R            22.4531332793       18.6336376057      -12.8586628497  MEMB      45              0.0000000000
     44449      1305  PPPE      H4S            20.7288635384       18.3580585339      -12.7903405011  MEMB      45              0.0000000000
     44450      1305  PPPE      C25            21.3570211982       19.5276916431      -11.2085073732  MEMB      45              0.0000000000
     44451      1305  PPPE      H5R            20.2825661622       19.4618660164      -10.9336722183  MEMB      45              0.0000000000
     44452      1305  PPPE      H5S            21.6828504650       20.5895191673      -11.1824574641  MEMB      45              0.0000000000
     44453      1305  PPPE      C26            22.2800023557       18.8285732411      -10.2322774650  MEMB      45              0.0000000000
     44454      1305  PPPE      H6R            23.0355476250       18.1514829083      -10.6850699420  MEMB      45              0.0000000000
     44455      1305  PPPE      H6S            21.6234877892       18.3222536554       -9.4927167163  MEMB      45              0.0000000000
     44456      1305  PPPE      C27            23.1347687306       19.7957834320       -9.3513814562  MEMB      45              0.0000000000
     44457      1305  PPPE      H7R            23.6294495723       19.2576019037       -8.5147378598  MEMB      45              0.0000000000
     44458      1305  PPPE      H7S            22.5446913272       20.6000497646       -8.8622134644  MEMB      45              0.0000000000
     44459      1305  PPPE      C28            24.1748876714       20.5357391576      -10.1220098896  MEMB      45              0.0000000000
     44460      1305  PPPE      H8R            23.6862019035       21.0333346704      -10.9868254340  MEMB      45              0.0000000000
     44461      1305  PPPE      H8S            24.8847241064       19.7860456506      -10.5323912746  MEMB      45              0.0000000000
     44462      1305  PPPE      C29            24.9711171187       21.5811959593       -9.3258420171  MEMB      45              0.0000000000
     44463      1305  PPPE      H91            24.8379656803       22.6071224927       -9.6996674342  MEMB      45              0.0000000000
     44464      1305  PPPE      C210           25.9003013852       21.2592053530       -8.3305485151  MEMB      45              0.0000000000
     44465      1305  PPPE      H101           26.5439980304       22.0593132430       -7.9362364644  MEMB      45              0.0000000000
     44466      1305  PPPE      C211           26.3047076415       19.8465426458       -7.9839062255  MEMB      45              0.0000000000
     44467      1305  PPPE      H11R           27.4000492318       19.6696545880       -7.9268236943  MEMB      45              0.0000000000
     44468      1305  PPPE      H11S           25.9308792423       19.1307661586       -8.7469510135  MEMB      45              0.0000000000
     44469      1305  PPPE      C212           25.9408535409       19.5327084952       -6.4711949703  MEMB      45              0.0000000000
     44470      1305  PPPE      H12R           26.1104452604       18.4491429701       -6.2938664576  MEMB      45              0.0000000000
     44471      1305  PPPE      H12S           24.8472369339       19.7194720661       -6.4125171591  MEMB      45              0.0000000000
     44472      1305  PPPE      C213           26.6491132529       20.4134851769       -5.3860077683  MEMB      45              0.0000000000
     44473      1305  PPPE      H13R           26.1945447677       21.4094675505       -5.5749723245  MEMB      45              0.0000000000
     44474      1305  PPPE      H13S           27.7524000416       20.3783785579       -5.5118917908  MEMB      45              0.0000000000
     44475      1305  PPPE      C214           26.3439068905       20.1138627738       -3.9083012603  MEMB      45              0.0000000000
     44476      1305  PPPE      H14R           26.6814679493       19.0756442646       -3.7022045384  MEMB      45              0.0000000000
     44477      1305  PPPE      H14S           25.2438546797       20.0168311583       -3.7866830090  MEMB      45              0.0000000000
     44478      1305  PPPE      C215           26.8660845705       21.0912100443       -2.7758769368  MEMB      45              0.0000000000
     44479      1305  PPPE      H15R           26.1936414511       21.9735996331       -2.8352896003  MEMB      45              0.0000000000
     44480      1305  PPPE      H15S           27.9128489613       21.3779772663       -3.0133003361  MEMB      45              0.0000000000
     44481      1305  PPPE      C216           26.7041862278       20.6015216693       -1.3877606887  MEMB      45              0.0000000000
     44482      1305  PPPE      H16R           25.6499834493       20.4209266459       -1.0871563983  MEMB      45              0.0000000000
     44483      1305  PPPE      H16S           27.3432175676       19.7165955681       -1.1807202528  MEMB      45              0.0000000000
     44484      1305  PPPE      H16T           27.0827140329       21.3144368877       -0.6243541180  MEMB      45              0.0000000000
     44485      1305  PPPE      C33            25.8559379452       23.4022204604      -13.3078991849  MEMB      45              0.0000000000
     44486      1305  PPPE      H3X            26.8854589042       23.0925212466      -13.0277313925  MEMB      45              0.0000000000
     44487      1305  PPPE      H3Y            25.1018518149       22.6464308929      -13.0005602223  MEMB      45              0.0000000000
     44488      1305  PPPE      C34            25.5400099799       24.8429951953      -12.7571891336  MEMB      45              0.0000000000
     44489      1305  PPPE      H4X            26.3561818631       25.5332707873      -13.0600159228  MEMB      45              0.0000000000
     44490      1305  PPPE      H4Y            25.8138270567       24.7494459354      -11.6845318051  MEMB      45              0.0000000000
     44491      1305  PPPE      C35            24.2195132949       25.4980679254      -13.1582849315  MEMB      45              0.0000000000
     44492      1305  PPPE      H5X            24.1023843438       25.3710680389      -14.2557697094  MEMB      45              0.0000000000
     44493      1305  PPPE      H5Y            24.1857467385       26.5913006725      -12.9632901099  MEMB      45              0.0000000000
     44494      1305  PPPE      C36            22.9419809267       24.8974260658      -12.4139977685  MEMB      45              0.0000000000
     44495      1305  PPPE      H6X            22.9796923323       23.7896941901      -12.4903452730  MEMB      45              0.0000000000
     44496      1305  PPPE      H6Y            21.9612489536       25.2585506901      -12.7909258815  MEMB      45              0.0000000000
     44497      1305  PPPE      C37            22.9665107887       25.0402048677      -10.8966539976  MEMB      45              0.0000000000
     44498      1305  PPPE      H7X            22.8896754812       26.1179515402      -10.6380433918  MEMB      45              0.0000000000
     44499      1305  PPPE      H7Y            23.8950204236       24.7161404147      -10.3797661103  MEMB      45              0.0000000000
     44500      1305  PPPE      C38            21.8984541885       24.3140536821       -9.9588590166  MEMB      45              0.0000000000
     44501      1305  PPPE      H8X            22.0626046118       23.2271957761      -10.1204620204  MEMB      45              0.0000000000
     44502      1305  PPPE      H8Y            20.8785659020       24.5891331404      -10.3030685090  MEMB      45              0.0000000000
     44503      1305  PPPE      C39            22.0695129801       24.6145172806       -8.4328403783  MEMB      45              0.0000000000
     44504      1305  PPPE      H9X            21.1301876698       24.3859784854       -7.8853378848  MEMB      45              0.0000000000
     44505      1305  PPPE      H9Y            22.3936324840       25.6702345081       -8.3114785940  MEMB      45              0.0000000000
     44506      1305  PPPE      C310           23.0511456817       23.6792439467       -7.7365832177  MEMB      45              0.0000000000
     44507      1305  PPPE      H10X           24.0578018386       23.9519229371       -8.1194807886  MEMB      45              0.0000000000
     44508      1305  PPPE      H10Y           22.8263643265       22.5963371328       -7.8419737994  MEMB      45              0.0000000000
     44509      1305  PPPE      C311           23.0452568414       23.7652140383       -6.2203055890  MEMB      45              0.0000000000
     44510      1305  PPPE      H11X           22.7529178156       24.7947098873       -5.9219816196  MEMB      45              0.0000000000
     44511      1305  PPPE      H11Y           24.0637262628       23.5341530391       -5.8412912723  MEMB      45              0.0000000000
     44512      1305  PPPE      C312           21.9685436142       22.9676695408       -5.4772795750  MEMB      45              0.0000000000
     44513      1305  PPPE      H12X           22.0001686457       21.8870615198       -5.7334185264  MEMB      45              0.0000000000
     44514      1305  PPPE      H12Y           20.9885213332       23.3686046768       -5.8136251494  MEMB      45              0.0000000000
     44515      1305  PPPE      C313           21.9337745653       23.0617095732       -3.9223002361  MEMB      45              0.0000000000
     44516      1305  PPPE      H13X           20.9352125150       22.9591145098       -3.4462024682  MEMB      45              0.0000000000
     44517      1305  PPPE      H13Y           22.2052998021       24.1133627396       -3.6885895961  MEMB      45              0.0000000000
     44518      1305  PPPE      C314           22.9867064762       22.1234969955       -3.3637949173  MEMB      45              0.0000000000
     44519      1305  PPPE      H14X           23.9997752151       22.4942891963       -3.6293619975  MEMB      45              0.0000000000
     44520      1305  PPPE      H14Y           22.9447744411       21.1174880263       -3.8333784117  MEMB      45              0.0000000000
     44521      1305  PPPE      C315           22.8045855628       21.9198144916       -1.9369209403  MEMB      45              0.0000000000
     44522      1305  PPPE      H15X           23.3602581917       21.0630902196       -1.4992310372  MEMB      45              0.0000000000
     44523      1305  PPPE      H15Y           21.7804790486       21.5282452269       -1.7574763570  MEMB      45              0.0000000000
     44524      1305  PPPE      C316           23.1037494994       23.1966378479       -1.0245782616  MEMB      45              0.0000000000
     44525      1305  PPPE      H16X           22.6302617802       23.2131782983       -0.0196619501  MEMB      45              0.0000000000
     44526      1305  PPPE      H16Y           24.1975178276       23.2072642123       -0.8299531744  MEMB      45              0.0000000000
     44527      1305  PPPE      H16Z           22.8776651511       24.1697718194       -1.5106000111  MEMB      45              0.0000000000
     44528      1306  PPPE      N               0.8269068031       30.1458256977      -16.5465238545  MEMB      46              0.0000000000
     44529      1306  PPPE      HN1             0.2674955112       30.7828204407      -17.1489329380  MEMB      46              0.0000000000
     44530      1306  PPPE      HN2             0.2383607413       29.4802439826      -16.0059551597  MEMB      46              0.0000000000
     44531      1306  PPPE      HN3             1.4184088816       30.6998947719      -15.8948086161  MEMB      46              0.0000000000
     44532      1306  PPPE      C12             1.6445810743       29.3630610140      -17.4799919810  MEMB      46              0.0000000000
     44533      1306  PPPE      H12A            1.0169278437       28.5285641192      -17.8594486381  MEMB      46              0.0000000000
     44534      1306  PPPE      H12B            2.4278063106       28.8604199741      -16.8731714028  MEMB      46              0.0000000000
     44535      1306  PPPE      C11             2.1556360867       30.3705408719      -18.5451662284  MEMB      46              0.0000000000
     44536      1306  PPPE      H11A            2.7119342066       29.8531059719      -19.3557922371  MEMB      46              0.0000000000
     44537      1306  PPPE      H11B            2.8095487855       31.0902797065      -18.0078625968  MEMB      46              0.0000000000
     44538      1306  PPPE      P               1.4988235145       32.3377130754      -19.9855440613  MEMB      46              0.0000000000
     44539      1306  PPPE      O13             2.9042336461       32.2266986093      -20.4553438613  MEMB      46              0.0000000000
     44540      1306  PPPE      O14             0.4151592792       32.6602056905      -20.9444996174  MEMB      46              0.0000000000
     44541      1306  PPPE      O11             1.5103804983       33.4135935918      -18.8166829351  MEMB      46              0.0000000000
     44542      1306  PPPE      O12             1.1157256180       31.0109942687      -19.2262475928  MEMB      46              0.0000000000
     44543      1306  PPPE      C1              0.3240071067       33.7393361145      -18.1898293015  MEMB      46              0.0000000000
     44544      1306  PPPE      HA              0.0657910743       32.9348782268      -17.4683773021  MEMB      46              0.0000000000
     44545      1306  PPPE      HB             -0.5206160666       33.7303404558      -18.9115299135  MEMB      46              0.0000000000
     44546      1306  PPPE      C2              0.3843550940       35.0958775330      -17.3088579829  MEMB      46              0.0000000000
     44547      1306  PPPE      HS              0.2941992529       35.9746891574      -17.9825664162  MEMB      46              0.0000000000
     44548      1306  PPPE      O21             1.5054666692       35.0727045429      -16.4906623566  MEMB      46              0.0000000000
     44549      1306  PPPE      C21             2.0553104991       36.1937844335      -16.0338975991  MEMB      46              0.0000000000
     44550      1306  PPPE      O22             1.6611409155       37.2978319443      -16.3612473110  MEMB      46              0.0000000000
     44551      1306  PPPE      C22             3.3183339956       35.8888794454      -15.2398660004  MEMB      46              0.0000000000
     44552      1306  PPPE      H2R             3.6072891843       36.8236108834      -14.7134602274  MEMB      46              0.0000000000
     44553      1306  PPPE      H2S             4.1735178463       35.7433446678      -15.9339850177  MEMB      46              0.0000000000
     44554      1306  PPPE      C3             -0.8603973302       35.4449561958      -16.4023324592  MEMB      46              0.0000000000
     44555      1306  PPPE      HX             -0.7919145411       36.4680515705      -15.9746562244  MEMB      46              0.0000000000
     44556      1306  PPPE      HY             -1.6852072258       35.5129908932      -17.1435348040  MEMB      46              0.0000000000
     44557      1306  PPPE      O31            -1.0675265654       34.4143781627      -15.4267572466  MEMB      46              0.0000000000
     44558      1306  PPPE      C31            -0.5544998592       34.6724952159      -14.2424835833  MEMB      46              0.0000000000
     44559      1306  PPPE      O32             0.1534943941       35.6354953588      -13.8576082901  MEMB      46              0.0000000000
     44560      1306  PPPE      C32            -0.9121791556       33.5090936889      -13.3284269234  MEMB      46              0.0000000000
     44561      1306  PPPE      H2X            -0.0511022419       32.8133717890      -13.4224406814  MEMB      46              0.0000000000
     44562      1306  PPPE      H2Y            -1.8288909789       33.0434908727      -13.7493478789  MEMB      46              0.0000000000
     44563      1306  PPPE      C23             3.1325241052       34.7260176632      -14.1711955186  MEMB      46              0.0000000000
     44564      1306  PPPE      H3R             2.6972989049       33.8307646741      -14.6645737818  MEMB      46              0.0000000000
     44565      1306  PPPE      H3S             2.3599528050       35.0546068956      -13.4435392108  MEMB      46              0.0000000000
     44566      1306  PPPE      C24             4.2619217748       34.4648785730      -13.2369398440  MEMB      46              0.0000000000
     44567      1306  PPPE      H4R             5.1278405105       34.3930463300      -13.9292879300  MEMB      46              0.0000000000
     44568      1306  PPPE      H4S             4.0432899532       33.4555486597      -12.8273372892  MEMB      46              0.0000000000
     44569      1306  PPPE      C25             4.6886180957       35.3809167110      -12.1207802327  MEMB      46              0.0000000000
     44570      1306  PPPE      H5R             4.1794881438       36.3612484717      -12.2393438495  MEMB      46              0.0000000000
     44571      1306  PPPE      H5S             5.7919971934       35.5079901604      -12.0938005131  MEMB      46              0.0000000000
     44572      1306  PPPE      C26             4.1450898436       34.8426168888      -10.7043274450  MEMB      46              0.0000000000
     44573      1306  PPPE      H6R             4.5949049254       33.8341606015      -10.5818394499  MEMB      46              0.0000000000
     44574      1306  PPPE      H6S             3.0450583080       34.7199414287      -10.6083985536  MEMB      46              0.0000000000
     44575      1306  PPPE      C27             4.5621435058       35.7542047610       -9.4974775618  MEMB      46              0.0000000000
     44576      1306  PPPE      H7R             3.9730704587       36.6831121641       -9.3411286516  MEMB      46              0.0000000000
     44577      1306  PPPE      H7S             5.5661876270       36.1562870661       -9.7515370480  MEMB      46              0.0000000000
     44578      1306  PPPE      C28             4.6813803893       35.1260715372       -8.0308676137  MEMB      46              0.0000000000
     44579      1306  PPPE      H8R             4.8979775289       35.8645077125       -7.2295445239  MEMB      46              0.0000000000
     44580      1306  PPPE      H8S             5.4537690598       34.3275041239       -8.0256880088  MEMB      46              0.0000000000
     44581      1306  PPPE      C29             3.3344670127       34.5154153029       -7.5957106234  MEMB      46              0.0000000000
     44582      1306  PPPE      H91             3.2150090137       33.4866576727       -7.9663688552  MEMB      46              0.0000000000
     44583      1306  PPPE      C210            2.4671720907       34.9544573556       -6.6324996713  MEMB      46              0.0000000000
     44584      1306  PPPE      H101            1.5346134467       34.3720724498       -6.5984086591  MEMB      46              0.0000000000
     44585      1306  PPPE      C211            2.7402229883       36.1551560967       -5.7713037453  MEMB      46              0.0000000000
     44586      1306  PPPE      H11R            1.8214491333       36.7796400430       -5.7852824522  MEMB      46              0.0000000000
     44587      1306  PPPE      H11S            3.4307988131       36.9583017256       -6.1065396754  MEMB      46              0.0000000000
     44588      1306  PPPE      C212            2.9256296546       35.9028863039       -4.2727309103  MEMB      46              0.0000000000
     44589      1306  PPPE      H12R            2.1260817723       35.1808168556       -4.0013273441  MEMB      46              0.0000000000
     44590      1306  PPPE      H12S            2.4306729496       36.7561813132       -3.7616277042  MEMB      46              0.0000000000
     44591      1306  PPPE      C213            4.3509921734       35.4623393729       -3.8332992331  MEMB      46              0.0000000000
     44592      1306  PPPE      H13R            5.1171109155       36.2479430274       -3.6594890748  MEMB      46              0.0000000000
     44593      1306  PPPE      H13S            4.8045513712       34.6759805253       -4.4738027982  MEMB      46              0.0000000000
     44594      1306  PPPE      C214            4.3704396199       34.8889506414       -2.4161184069  MEMB      46              0.0000000000
     44595      1306  PPPE      H14R            5.2881976040       34.3106768987       -2.1760335026  MEMB      46              0.0000000000
     44596      1306  PPPE      H14S            3.5064724993       34.1908799905       -2.3920522307  MEMB      46              0.0000000000
     44597      1306  PPPE      C215            4.4962091951       35.9557134631       -1.3310699566  MEMB      46              0.0000000000
     44598      1306  PPPE      H15R            3.7733553100       36.7873254745       -1.4732836107  MEMB      46              0.0000000000
     44599      1306  PPPE      H15S            5.5269523237       36.3668640386       -1.3844066889  MEMB      46              0.0000000000
     44600      1306  PPPE      C216            4.0660265015       35.4086031137        0.0448208485  MEMB      46              0.0000000000
     44601      1306  PPPE      H16R            4.6995601531       35.7740330024        0.8811324584  MEMB      46              0.0000000000
     44602      1306  PPPE      H16S            3.1146973416       35.9564570440        0.2155542682  MEMB      46              0.0000000000
     44603      1306  PPPE      H16T            3.8936774762       34.3111845147        0.0618276639  MEMB      46              0.0000000000
     44604      1306  PPPE      C33            -1.2253854190       33.8173538514      -11.8393269491  MEMB      46              0.0000000000
     44605      1306  PPPE      H3X            -2.0393399196       33.1128416745      -11.5646240851  MEMB      46              0.0000000000
     44606      1306  PPPE      H3Y            -1.7504948826       34.7926716484      -11.7536750611  MEMB      46              0.0000000000
     44607      1306  PPPE      C34             0.0545597748       33.6861945223      -10.9025109878  MEMB      46              0.0000000000
     44608      1306  PPPE      H4X             0.8715537707       34.2676299601      -11.3808149102  MEMB      46              0.0000000000
     44609      1306  PPPE      H4Y             0.3886513909       32.6266315285      -10.9079931585  MEMB      46              0.0000000000
     44610      1306  PPPE      C35            -0.2195235186       34.1848645162       -9.4932823585  MEMB      46              0.0000000000
     44611      1306  PPPE      H5X            -0.4249032972       35.2762034048       -9.5267424356  MEMB      46              0.0000000000
     44612      1306  PPPE      H5Y             0.7264762827       34.0438553993       -8.9280197602  MEMB      46              0.0000000000
     44613      1306  PPPE      C36            -1.5553698751       33.5332969904       -8.9449209423  MEMB      46              0.0000000000
     44614      1306  PPPE      H6X            -1.5206877681       32.4243580376       -9.0029946061  MEMB      46              0.0000000000
     44615      1306  PPPE      H6Y            -2.5181866311       33.7877327594       -9.4374321947  MEMB      46              0.0000000000
     44616      1306  PPPE      C37            -1.8470839722       33.8753670688       -7.4624944797  MEMB      46              0.0000000000
     44617      1306  PPPE      H7X            -0.9358250280       33.8206732104       -6.8292988398  MEMB      46              0.0000000000
     44618      1306  PPPE      H7Y            -2.6935168989       33.2068643437       -7.1960805027  MEMB      46              0.0000000000
     44619      1306  PPPE      C38            -2.1811043185       35.4259284929       -7.0971320371  MEMB      46              0.0000000000
     44620      1306  PPPE      H8X            -3.0136215600       35.5835908405       -7.8157269347  MEMB      46              0.0000000000
     44621      1306  PPPE      H8Y            -1.3504230631       36.0932239363       -7.4117849303  MEMB      46              0.0000000000
     44622      1306  PPPE      C39            -2.5488130815       35.6585569344       -5.6377685399  MEMB      46              0.0000000000
     44623      1306  PPPE      H9X            -3.2369479407       34.8929311990       -5.2199065427  MEMB      46              0.0000000000
     44624      1306  PPPE      H9Y            -3.1220940206       36.6023258078       -5.5154154503  MEMB      46              0.0000000000
     44625      1306  PPPE      C310           -1.4403021204       35.7859119293       -4.6190822974  MEMB      46              0.0000000000
     44626      1306  PPPE      H10X           -0.8028465903       36.6418366717       -4.9278933764  MEMB      46              0.0000000000
     44627      1306  PPPE      H10Y           -0.7772398194       34.9135129693       -4.8023565171  MEMB      46              0.0000000000
     44628      1306  PPPE      C311           -1.8977011337       35.9793001860       -3.2021197314  MEMB      46              0.0000000000
     44629      1306  PPPE      H11X           -2.9242824782       36.4038045270       -3.1863778227  MEMB      46              0.0000000000
     44630      1306  PPPE      H11Y           -1.2435774177       36.7906901641       -2.8172957876  MEMB      46              0.0000000000
     44631      1306  PPPE      C312           -1.9551240435       34.7429866398       -2.2576973887  MEMB      46              0.0000000000
     44632      1306  PPPE      H12X           -2.5996740588       34.0277690328       -2.8120799754  MEMB      46              0.0000000000
     44633      1306  PPPE      H12Y           -2.3683076208       35.0120189350       -1.2620960852  MEMB      46              0.0000000000
     44634      1306  PPPE      C313           -0.5644767394       34.0768904692       -1.9190661959  MEMB      46              0.0000000000
     44635      1306  PPPE      H13X           -0.0271101242       34.7978369122       -1.2665370034  MEMB      46              0.0000000000
     44636      1306  PPPE      H13Y            0.0765119773       33.8210228563       -2.7896902420  MEMB      46              0.0000000000
     44637      1306  PPPE      C314           -0.6172808100       32.6508651439       -1.3390542231  MEMB      46              0.0000000000
     44638      1306  PPPE      H14X           -1.3147414992       31.9970745602       -1.9051173466  MEMB      46              0.0000000000
     44639      1306  PPPE      H14Y           -0.9855377522       32.8419832362       -0.3084322268  MEMB      46              0.0000000000
     44640      1306  PPPE      C315            0.7484967723       31.9718317035       -1.3145993835  MEMB      46              0.0000000000
     44641      1306  PPPE      H15X            1.1150456676       31.9262605488       -2.3624000217  MEMB      46              0.0000000000
     44642      1306  PPPE      H15Y            0.5391064776       30.9248108506       -1.0076400410  MEMB      46              0.0000000000
     44643      1306  PPPE      C316            1.7332319088       32.5866274418       -0.3292532300  MEMB      46              0.0000000000
     44644      1306  PPPE      H16X            2.7485615174       32.2239421782       -0.5973692228  MEMB      46              0.0000000000
     44645      1306  PPPE      H16Y            1.7597045057       33.6973118927       -0.3287510472  MEMB      46              0.0000000000
     44646      1306  PPPE      H16Z            1.4685114616       32.3652118042        0.7267861633  MEMB      46              0.0000000000
     44647      1307  PPPE      N              -8.9572787910      -28.5257666858      -21.6080238711  MEMB      47              0.0000000000
     44648      1307  PPPE      HN1            -9.2324875086      -27.7023000348      -22.1805296235  MEMB      47              0.0000000000
     44649      1307  PPPE      HN2            -7.9389896048      -28.4576761758      -21.4078968727  MEMB      47              0.0000000000
     44650      1307  PPPE      HN3            -9.1197842879      -29.4526316632      -22.0508706584  MEMB      47              0.0000000000
     44651      1307  PPPE      C12            -9.7479620547      -28.5819211999      -20.3138241667  MEMB      47              0.0000000000
     44652      1307  PPPE      H12A          -10.7948601827      -28.7449397648      -20.6481148444  MEMB      47              0.0000000000
     44653      1307  PPPE      H12B           -9.6448229653      -27.5973336996      -19.8095714697  MEMB      47              0.0000000000
     44654      1307  PPPE      C11            -9.3189079458      -29.7352662641      -19.3526720175  MEMB      47              0.0000000000
     44655      1307  PPPE      H11A           -9.4754755887      -30.7423679885      -19.7948865467  MEMB      47              0.0000000000
     44656      1307  PPPE      H11B          -10.0557926209      -29.5225994280      -18.5488717983  MEMB      47              0.0000000000
     44657      1307  PPPE      P              -7.2865842243      -30.9167623744      -18.1748115525  MEMB      47              0.0000000000
     44658      1307  PPPE      O13            -7.9438141733      -32.1351614948      -18.6456196679  MEMB      47              0.0000000000
     44659      1307  PPPE      O14            -5.8260831028      -30.7815006496      -18.3708924794  MEMB      47              0.0000000000
     44660      1307  PPPE      O11            -7.6213943680      -30.6106045327      -16.6288276326  MEMB      47              0.0000000000
     44661      1307  PPPE      O12            -7.9627048487      -29.6287248214      -18.9053287573  MEMB      47              0.0000000000
     44662      1307  PPPE      C1             -8.3898848057      -31.4635823772      -15.8569371015  MEMB      47              0.0000000000
     44663      1307  PPPE      HA             -7.7143024581      -32.2473612118      -15.4524618491  MEMB      47              0.0000000000
     44664      1307  PPPE      HB             -9.1601464611      -32.0632599065      -16.3874131546  MEMB      47              0.0000000000
     44665      1307  PPPE      C2             -9.0489452116      -30.5653550300      -14.8066614171  MEMB      47              0.0000000000
     44666      1307  PPPE      HS             -9.7340156576      -29.9327707429      -15.4106784729  MEMB      47              0.0000000000
     44667      1307  PPPE      O21            -8.0405067025      -29.8388287803      -14.1499209029  MEMB      47              0.0000000000
     44668      1307  PPPE      C21            -7.7773945548      -28.6275151332      -14.7165453404  MEMB      47              0.0000000000
     44669      1307  PPPE      O22            -8.4971385839      -28.0663079161      -15.5268451749  MEMB      47              0.0000000000
     44670      1307  PPPE      C22            -6.3128316807      -28.1326654446      -14.3010182442  MEMB      47              0.0000000000
     44671      1307  PPPE      H2R            -6.4581935090      -27.1289498049      -13.8474260776  MEMB      47              0.0000000000
     44672      1307  PPPE      H2S            -5.7255104075      -28.1679151244      -15.2434258959  MEMB      47              0.0000000000
     44673      1307  PPPE      C3             -9.9088496338      -31.3716922009      -13.7638391662  MEMB      47              0.0000000000
     44674      1307  PPPE      HX            -10.4448725650      -30.6824817379      -13.0768243519  MEMB      47              0.0000000000
     44675      1307  PPPE      HY            -10.7496067544      -31.9731031829      -14.1709672724  MEMB      47              0.0000000000
     44676      1307  PPPE      O31            -9.0584965019      -32.0364600591      -12.8505293379  MEMB      47              0.0000000000
     44677      1307  PPPE      C31            -8.7843327063      -33.3710516998      -13.1249487589  MEMB      47              0.0000000000
     44678      1307  PPPE      O32            -9.3742780754      -33.9922298434      -14.0006930726  MEMB      47              0.0000000000
     44679      1307  PPPE      C32            -7.7461763313      -33.9297517574      -12.1669829547  MEMB      47              0.0000000000
     44680      1307  PPPE      H2X            -6.7292771869      -33.5563351793      -12.4135538156  MEMB      47              0.0000000000
     44681      1307  PPPE      H2Y            -7.7594099269      -35.0361529325      -12.2670944506  MEMB      47              0.0000000000
     44682      1307  PPPE      C23            -5.6933312409      -28.9975515171      -13.0819626966  MEMB      47              0.0000000000
     44683      1307  PPPE      H3R            -4.5992038325      -28.8050791307      -13.0692901028  MEMB      47              0.0000000000
     44684      1307  PPPE      H3S            -5.7097906569      -30.0455407917      -13.4504305621  MEMB      47              0.0000000000
     44685      1307  PPPE      C24            -6.3856567044      -28.7720494068      -11.7640173723  MEMB      47              0.0000000000
     44686      1307  PPPE      H4R            -7.4814041373      -28.8579979994      -11.9261019268  MEMB      47              0.0000000000
     44687      1307  PPPE      H4S            -6.2501441169      -27.7049774613      -11.4859619789  MEMB      47              0.0000000000
     44688      1307  PPPE      C25            -6.0531465675      -29.6987545621      -10.6082169429  MEMB      47              0.0000000000
     44689      1307  PPPE      H5R            -5.1254470300      -29.2584896965      -10.1841162282  MEMB      47              0.0000000000
     44690      1307  PPPE      H5S            -5.7420579460      -30.6940271190      -10.9915932683  MEMB      47              0.0000000000
     44691      1307  PPPE      C26            -7.1261082467      -29.8528928487       -9.6055007575  MEMB      47              0.0000000000
     44692      1307  PPPE      H6R            -6.9101809307      -30.6779152894       -8.8934373007  MEMB      47              0.0000000000
     44693      1307  PPPE      H6S            -8.0382615237      -30.1518183799      -10.1649119892  MEMB      47              0.0000000000
     44694      1307  PPPE      C27            -7.3055619909      -28.5792912801       -8.8176582761  MEMB      47              0.0000000000
     44695      1307  PPPE      H7R            -7.4619787452      -27.6310532114       -9.3750624058  MEMB      47              0.0000000000
     44696      1307  PPPE      H7S            -6.3664746808      -28.5233399267       -8.2266375742  MEMB      47              0.0000000000
     44697      1307  PPPE      C28            -8.3789503373      -28.6588549174       -7.6730103185  MEMB      47              0.0000000000
     44698      1307  PPPE      H8R            -8.3046315601      -27.6561314173       -7.2004182093  MEMB      47              0.0000000000
     44699      1307  PPPE      H8S            -8.0200099581      -29.5020097663       -7.0448600936  MEMB      47              0.0000000000
     44700      1307  PPPE      C29            -9.8091163654      -28.8584571677       -7.9990341113  MEMB      47              0.0000000000
     44701      1307  PPPE      H91           -10.1237780869      -28.2799770258       -8.8801406465  MEMB      47              0.0000000000
     44702      1307  PPPE      C210          -10.7125019977      -29.4131092847       -7.1778434826  MEMB      47              0.0000000000
     44703      1307  PPPE      H101          -11.7295824787      -29.4962872899       -7.5884877504  MEMB      47              0.0000000000
     44704      1307  PPPE      C211          -10.2935710450      -29.9206463230       -5.7935261054  MEMB      47              0.0000000000
     44705      1307  PPPE      H11R          -11.0869159205      -29.5961016562       -5.0867052881  MEMB      47              0.0000000000
     44706      1307  PPPE      H11S           -9.3664229613      -29.4602404675       -5.3901108364  MEMB      47              0.0000000000
     44707      1307  PPPE      C212          -10.1357597930      -31.4991488677       -5.7024118187  MEMB      47              0.0000000000
     44708      1307  PPPE      H12R           -9.6128747612      -31.7721076288       -6.6439030604  MEMB      47              0.0000000000
     44709      1307  PPPE      H12S          -11.1416424334      -31.9607745525       -5.6053405001  MEMB      47              0.0000000000
     44710      1307  PPPE      C213           -9.2752794518      -31.9548677772       -4.6121847306  MEMB      47              0.0000000000
     44711      1307  PPPE      H13R           -8.2069604625      -31.7055377777       -4.7878266629  MEMB      47              0.0000000000
     44712      1307  PPPE      H13S           -9.3576509910      -33.0625872985       -4.6343971491  MEMB      47              0.0000000000
     44713      1307  PPPE      C214           -9.8871489834      -31.6656612251       -3.2587470701  MEMB      47              0.0000000000
     44714      1307  PPPE      H14R          -10.9943460221      -31.7117288785       -3.3382045364  MEMB      47              0.0000000000
     44715      1307  PPPE      H14S           -9.5760424675      -30.6339203346       -2.9884796643  MEMB      47              0.0000000000
     44716      1307  PPPE      C215           -9.3307825434      -32.5331016298       -2.0828919811  MEMB      47              0.0000000000
     44717      1307  PPPE      H15R           -8.2264772912      -32.5299156023       -2.2046325218  MEMB      47              0.0000000000
     44718      1307  PPPE      H15S           -9.7447706684      -33.5622409230       -2.1445940694  MEMB      47              0.0000000000
     44719      1307  PPPE      C216           -9.7613606888      -31.9972097508       -0.7211120318  MEMB      47              0.0000000000
     44720      1307  PPPE      H16R           -9.3047379679      -32.6408460659        0.0609039429  MEMB      47              0.0000000000
     44721      1307  PPPE      H16S           -9.6178699786      -30.9003540855       -0.6179661863  MEMB      47              0.0000000000
     44722      1307  PPPE      H16T          -10.8574072365      -32.1743329982       -0.6807348030  MEMB      47              0.0000000000
     44723      1307  PPPE      C33            -8.0052883584      -33.6043660286      -10.6760761452  MEMB      47              0.0000000000
     44724      1307  PPPE      H3X            -8.9725893764      -34.0490825882      -10.3584648698  MEMB      47              0.0000000000
     44725      1307  PPPE      H3Y            -7.9591297279      -32.5012637564      -10.5521577940  MEMB      47              0.0000000000
     44726      1307  PPPE      C34            -7.0083446966      -34.1741670213       -9.6771082652  MEMB      47              0.0000000000
     44727      1307  PPPE      H4X            -6.1126011210      -33.5171156102       -9.6928527867  MEMB      47              0.0000000000
     44728      1307  PPPE      H4Y            -6.6277698093      -35.2125263117       -9.7833802702  MEMB      47              0.0000000000
     44729      1307  PPPE      C35            -7.5359936866      -34.1532338496       -8.2324086614  MEMB      47              0.0000000000
     44730      1307  PPPE      H5X            -8.4781335562      -34.7331212502       -8.1303103328  MEMB      47              0.0000000000
     44731      1307  PPPE      H5Y            -7.7235215522      -33.1252444802       -7.8550598094  MEMB      47              0.0000000000
     44732      1307  PPPE      C36            -6.5531752790      -35.0225714709       -7.3034098645  MEMB      47              0.0000000000
     44733      1307  PPPE      H6X            -6.5385026917      -36.0277780605       -7.7763426583  MEMB      47              0.0000000000
     44734      1307  PPPE      H6Y            -6.9728228584      -35.1032464486       -6.2778814850  MEMB      47              0.0000000000
     44735      1307  PPPE      C37            -5.2545332224      -34.3303994002       -7.0683915175  MEMB      47              0.0000000000
     44736      1307  PPPE      H7X            -4.7756510354      -34.1733379936       -8.0585049280  MEMB      47              0.0000000000
     44737      1307  PPPE      H7Y            -4.5934655606      -35.0188535283       -6.4997603014  MEMB      47              0.0000000000
     44738      1307  PPPE      C38            -5.2934089789      -33.0741965188       -6.2455265439  MEMB      47              0.0000000000
     44739      1307  PPPE      H8X            -5.7457424664      -33.3665835279       -5.2738140077  MEMB      47              0.0000000000
     44740      1307  PPPE      H8Y            -5.9794724343      -32.2648378196       -6.5750359237  MEMB      47              0.0000000000
     44741      1307  PPPE      C39            -3.8581995626      -32.5284624020       -6.1532613338  MEMB      47              0.0000000000
     44742      1307  PPPE      H9X            -3.5948956779      -31.9958374430       -7.0920385798  MEMB      47              0.0000000000
     44743      1307  PPPE      H9Y            -3.1436091555      -33.3778805310       -6.1066738689  MEMB      47              0.0000000000
     44744      1307  PPPE      C310           -3.5998194342      -31.6136866772       -5.0319794864  MEMB      47              0.0000000000
     44745      1307  PPPE      H10X           -2.5240300758      -31.3367424381       -5.0146547992  MEMB      47              0.0000000000
     44746      1307  PPPE      H10Y           -3.7502069735      -32.0854727423       -4.0374331090  MEMB      47              0.0000000000
     44747      1307  PPPE      C311           -4.4754091077      -30.2041499752       -5.1804804695  MEMB      47              0.0000000000
     44748      1307  PPPE      H11X           -5.0865968900      -30.3255324210       -6.1002830553  MEMB      47              0.0000000000
     44749      1307  PPPE      H11Y           -3.7530688844      -29.3768071177       -5.3479600143  MEMB      47              0.0000000000
     44750      1307  PPPE      C312           -5.4165189688      -29.8370971817       -4.0541895434  MEMB      47              0.0000000000
     44751      1307  PPPE      H12X           -4.8682928430      -29.7716204576       -3.0900931201  MEMB      47              0.0000000000
     44752      1307  PPPE      H12Y           -6.1115578039      -30.6991896096       -3.9645309488  MEMB      47              0.0000000000
     44753      1307  PPPE      C313           -6.1339260290      -28.4761585414       -4.2751124837  MEMB      47              0.0000000000
     44754      1307  PPPE      H13X           -6.6079478940      -28.4643718601       -5.2798439630  MEMB      47              0.0000000000
     44755      1307  PPPE      H13Y           -5.4679186094      -27.6040119366       -4.1015745432  MEMB      47              0.0000000000
     44756      1307  PPPE      C314           -7.3069534718      -28.1708976415       -3.2027006203  MEMB      47              0.0000000000
     44757      1307  PPPE      H14X           -8.1244476197      -28.7572520577       -3.6740951649  MEMB      47              0.0000000000
     44758      1307  PPPE      H14Y           -7.5640334997      -27.0919256065       -3.2663418563  MEMB      47              0.0000000000
     44759      1307  PPPE      C315           -7.0351920852      -28.5380807933       -1.6688374555  MEMB      47              0.0000000000
     44760      1307  PPPE      H15X           -6.7023842085      -29.5865572102       -1.5130904797  MEMB      47              0.0000000000
     44761      1307  PPPE      H15Y           -8.0004550844      -28.5153135190       -1.1192285093  MEMB      47              0.0000000000
     44762      1307  PPPE      C316           -5.9724941155      -27.6613989762       -1.0333900460  MEMB      47              0.0000000000
     44763      1307  PPPE      H16X           -6.1879789841      -27.3930556169        0.0229617481  MEMB      47              0.0000000000
     44764      1307  PPPE      H16Y           -4.9193385871      -27.9862064304       -1.1736916881  MEMB      47              0.0000000000
     44765      1307  PPPE      H16Z           -6.0306587483      -26.6393717513       -1.4651286555  MEMB      47              0.0000000000
     44766      1308  PVCL2     C3            -16.4355303824      -28.8393353027      -20.6623909385  MEMB      48              0.0000000000
     44767      1308  PVCL2     HG31          -15.6558787513      -28.7510672319      -19.8758330914  MEMB      48              0.0000000000
     44768      1308  PVCL2     HG32          -16.4423823770      -29.9162489056      -20.9353941022  MEMB      48              0.0000000000
     44769      1308  PVCL2     P3            -15.2822763834      -26.7486731122      -21.6983749224  MEMB      48              0.0000000000
     44770      1308  PVCL2     OP33          -15.9190297849      -25.6637643038      -22.5193883439  MEMB      48              0.0000000000
     44771      1308  PVCL2     OP34          -13.8754345226      -27.1332998924      -21.9730789879  MEMB      48              0.0000000000
     44772      1308  PVCL2     OP31          -16.0707951043      -28.1107165638      -21.8252609267  MEMB      48              0.0000000000
     44773      1308  PVCL2     OP32          -15.4570689703      -26.3292019737      -20.1850404319  MEMB      48              0.0000000000
     44774      1308  PVCL2     C31           -14.4093234859      -25.5527376068      -19.5470492595  MEMB      48              0.0000000000
     44775      1308  PVCL2     H31J          -13.6041689354      -25.1632164152      -20.2060792044  MEMB      48              0.0000000000
     44776      1308  PVCL2     H31K          -14.8256217518      -24.7497580170      -18.9018820976  MEMB      48              0.0000000000
     44777      1308  PVCL2     C2            -17.8930692403      -28.2737006534      -20.3039344480  MEMB      48              0.0000000000
     44778      1308  PVCL2     HG22          -17.6864502008      -27.1822186917      -20.3211667536  MEMB      48              0.0000000000
     44779      1308  PVCL2     OG12          -18.8060694911      -28.6142955051      -21.3432139245  MEMB      48              0.0000000000
     44780      1308  PVCL2     HO12          -18.6260757766      -29.5283395987      -21.5750027152  MEMB      48              0.0000000000
     44781      1308  PVCL2     C1            -18.3291558812      -28.8159475314      -18.9001699035  MEMB      48              0.0000000000
     44782      1308  PVCL2     HG11          -18.3352497112      -29.9189568889      -18.7673015233  MEMB      48              0.0000000000
     44783      1308  PVCL2     HG12          -19.3796369867      -28.4591596148      -18.8409010063  MEMB      48              0.0000000000
     44784      1308  PVCL2     P1            -18.0628159713      -27.6044580139      -16.4905149120  MEMB      48              0.0000000000
     44785      1308  PVCL2     OP13          -18.8175490025      -28.6262438773      -15.7225944099  MEMB      48              0.0000000000
     44786      1308  PVCL2     OP14          -17.0032653200      -26.8215791923      -15.8128186899  MEMB      48              0.0000000000
     44787      1308  PVCL2     OP11          -17.5171895508      -28.3448536872      -17.8226149675  MEMB      48              0.0000000000
     44788      1308  PVCL2     OP12          -19.1321692604      -26.5174500840      -17.0603529990  MEMB      48              0.0000000000
     44789      1308  PVCL2     C11           -18.6103548275      -25.4926371814      -17.9414049577  MEMB      48              0.0000000000
     44790      1308  PVCL2     H11J          -18.2022829236      -25.9912612297      -18.8464864400  MEMB      48              0.0000000000
     44791      1308  PVCL2     H11K          -17.7969811334      -24.9234356259      -17.4426526590  MEMB      48              0.0000000000
     44792      1308  PVCL2     C12           -19.7362155821      -24.3573206413      -18.2126249988  MEMB      48              0.0000000000
     44793      1308  PVCL2     H12J          -19.1961610141      -23.3919388426      -18.3160658158  MEMB      48              0.0000000000
     44794      1308  PVCL2     O12           -20.7161477507      -24.3168740720      -17.1289184997  MEMB      48              0.0000000000
     44795      1308  PVCL2     CA1           -20.2971370046      -23.8296774103      -15.9453767956  MEMB      48              0.0000000000
     44796      1308  PVCL2     OA1           -19.2211235233      -23.2747153500      -15.7616346512  MEMB      48              0.0000000000
     44797      1308  PVCL2     CA2           -21.3006938174      -24.1105989161      -14.8153974951  MEMB      48              0.0000000000
     44798      1308  PVCL2     H2A           -21.7336546798      -25.1150245976      -15.0103201505  MEMB      48              0.0000000000
     44799      1308  PVCL2     H2B           -22.1207997005      -23.3657349840      -14.8986176803  MEMB      48              0.0000000000
     44800      1308  PVCL2     C13           -20.5115224280      -24.6016859636      -19.5086393330  MEMB      48              0.0000000000
     44801      1308  PVCL2     H13J          -19.6683903581      -24.6923989211      -20.2264277817  MEMB      48              0.0000000000
     44802      1308  PVCL2     H13K          -21.1824983616      -23.7921697883      -19.8675208062  MEMB      48              0.0000000000
     44803      1308  PVCL2     O13           -21.2442866246      -25.8416842721      -19.3823690271  MEMB      48              0.0000000000
     44804      1308  PVCL2     CB1           -22.4161673461      -25.9555551506      -20.0615601305  MEMB      48              0.0000000000
     44805      1308  PVCL2     OB1           -22.9859981671      -25.1512049287      -20.7538543966  MEMB      48              0.0000000000
     44806      1308  PVCL2     CB2           -22.9534388496      -27.2924607013      -19.6602187277  MEMB      48              0.0000000000
     44807      1308  PVCL2     H2D           -22.1694765773      -28.0777624632      -19.7152245823  MEMB      48              0.0000000000
     44808      1308  PVCL2     H2E           -23.7938450538      -27.5843924109      -20.3256617949  MEMB      48              0.0000000000
     44809      1308  PVCL2     C32           -13.4828067832      -26.5256596366      -18.6986414242  MEMB      48              0.0000000000
     44810      1308  PVCL2     H32J          -12.8209063202      -27.0268499520      -19.4368942660  MEMB      48              0.0000000000
     44811      1308  PVCL2     O32           -14.2323377892      -27.4646249338      -18.0429834405  MEMB      48              0.0000000000
     44812      1308  PVCL2     CC1           -13.5557207727      -28.4960319215      -17.4659231458  MEMB      48              0.0000000000
     44813      1308  PVCL2     OC1           -12.3858209478      -28.7492444746      -17.6648476497  MEMB      48              0.0000000000
     44814      1308  PVCL2     CC2           -14.3939101089      -29.0891875912      -16.3792102999  MEMB      48              0.0000000000
     44815      1308  PVCL2     H2R           -15.2039206173      -29.6710202680      -16.8687759983  MEMB      48              0.0000000000
     44816      1308  PVCL2     H2S           -14.7708337982      -28.2050150453      -15.8219953880  MEMB      48              0.0000000000
     44817      1308  PVCL2     C33           -12.6589317761      -25.7144268206      -17.6776659753  MEMB      48              0.0000000000
     44818      1308  PVCL2     H33J          -11.9365761200      -26.2701725160      -17.0423155203  MEMB      48              0.0000000000
     44819      1308  PVCL2     H33K          -12.0367504695      -25.0568111519      -18.3216791025  MEMB      48              0.0000000000
     44820      1308  PVCL2     O33           -13.4834510029      -24.7957133423      -16.9205987772  MEMB      48              0.0000000000
     44821      1308  PVCL2     CD1           -13.4158902335      -24.8174502912      -15.5123187731  MEMB      48              0.0000000000
     44822      1308  PVCL2     OD1           -12.5661738151      -25.4531361743      -14.8940137921  MEMB      48              0.0000000000
     44823      1308  PVCL2     CD2           -14.5456944604      -23.9743750676      -14.9026214928  MEMB      48              0.0000000000
     44824      1308  PVCL2     H2X           -15.0959750026      -23.5447602269      -15.7668801394  MEMB      48              0.0000000000
     44825      1308  PVCL2     H2Y           -13.9693288956      -23.2144354199      -14.3328711608  MEMB      48              0.0000000000
     44826      1308  PVCL2     CA3           -20.5460033119      -24.0270437680      -13.4637223173  MEMB      48              0.0000000000
     44827      1308  PVCL2     H3A           -20.6868906325      -22.9850123508      -13.1050552932  MEMB      48              0.0000000000
     44828      1308  PVCL2     H3B           -19.5408396577      -24.3951701707      -13.7611284430  MEMB      48              0.0000000000
     44829      1308  PVCL2     CA4           -21.0270252624      -25.0706607583      -12.3764818601  MEMB      48              0.0000000000
     44830      1308  PVCL2     H4A           -21.1634565534      -25.9992032849      -12.9710542998  MEMB      48              0.0000000000
     44831      1308  PVCL2     H4B           -22.0337116798      -24.8425537406      -11.9655440615  MEMB      48              0.0000000000
     44832      1308  PVCL2     CA5           -20.0798402809      -25.2487566149      -11.1352036845  MEMB      48              0.0000000000
     44833      1308  PVCL2     H5A           -20.0344851948      -24.1823999580      -10.8267437928  MEMB      48              0.0000000000
     44834      1308  PVCL2     H5B           -19.0771530517      -25.5011489907      -11.5416980155  MEMB      48              0.0000000000
     44835      1308  PVCL2     CA6           -20.6507035526      -26.1938687818      -10.0267683137  MEMB      48              0.0000000000
     44836      1308  PVCL2     H6A           -19.9878301760      -27.0296982390       -9.7164310322  MEMB      48              0.0000000000
     44837      1308  PVCL2     H6B           -21.6105978119      -26.6463019059      -10.3557491224  MEMB      48              0.0000000000
     44838      1308  PVCL2     CA7           -21.0095543702      -25.4387988302       -8.8018625326  MEMB      48              0.0000000000
     44839      1308  PVCL2     H7A           -21.6326616543      -24.5485761754       -9.0332974275  MEMB      48              0.0000000000
     44840      1308  PVCL2     H7B           -20.1122452995      -25.1392139931       -8.2192764338  MEMB      48              0.0000000000
     44841      1308  PVCL2     CA8           -21.7214386486      -26.2602132727       -7.7180005448  MEMB      48              0.0000000000
     44842      1308  PVCL2     H8A           -22.7982447631      -26.3046567414       -7.9878788662  MEMB      48              0.0000000000
     44843      1308  PVCL2     H8B           -21.6938398865      -25.7546703673       -6.7290689193  MEMB      48              0.0000000000
     44844      1308  PVCL2     CA9           -21.2277786970      -27.6010361436       -7.3660267131  MEMB      48              0.0000000000
     44845      1308  PVCL2     H9A           -21.2732511034      -28.2232992125       -8.2852891042  MEMB      48              0.0000000000
     44846      1308  PVCL2     H9B           -21.8995991843      -28.0992959727       -6.6347853479  MEMB      48              0.0000000000
     44847      1308  PVCL2     CA10          -19.8291441801      -27.5200918581       -6.7790064718  MEMB      48              0.0000000000
     44848      1308  PVCL2     H10A          -19.8348748624      -26.8792185550       -5.8714993942  MEMB      48              0.0000000000
     44849      1308  PVCL2     H10B          -19.1484242081      -27.1342127583       -7.5677008728  MEMB      48              0.0000000000
     44850      1308  PVCL2     CA11          -19.4083932301      -28.8979165772       -6.4826455364  MEMB      48              0.0000000000
     44851      1308  PVCL2     H11A          -19.8988400723      -29.5924859374       -7.1805244713  MEMB      48              0.0000000000
     44852      1308  PVCL2     CA12          -18.7307750197      -29.2822028502       -5.3841668222  MEMB      48              0.0000000000
     44853      1308  PVCL2     H12A          -18.7644085827      -30.3450269610       -5.1026111245  MEMB      48              0.0000000000
     44854      1308  PVCL2     CA13          -18.1804594974      -28.3871905999       -4.2643115298  MEMB      48              0.0000000000
     44855      1308  PVCL2     H13A          -18.2370374317      -27.3161521037       -4.5541332626  MEMB      48              0.0000000000
     44856      1308  PVCL2     H13B          -17.0710975857      -28.4425983972       -4.2404954535  MEMB      48              0.0000000000
     44857      1308  PVCL2     CA14          -18.8245012399      -28.5527818985       -2.8821932154  MEMB      48              0.0000000000
     44858      1308  PVCL2     H14A          -18.4464881400      -27.6704241382       -2.3228435814  MEMB      48              0.0000000000
     44859      1308  PVCL2     H14B          -18.4639753726      -29.3440056286       -2.1905956970  MEMB      48              0.0000000000
     44860      1308  PVCL2     CA15          -20.2993316888      -28.5974213748       -2.7452935959  MEMB      48              0.0000000000
     44861      1308  PVCL2     H15A          -20.6770185034      -29.6189686901       -2.9646443424  MEMB      48              0.0000000000
     44862      1308  PVCL2     H15B          -20.8112020682      -27.9127155045       -3.4548628334  MEMB      48              0.0000000000
     44863      1308  PVCL2     CA16          -20.8664914892      -28.1087152618       -1.4123984425  MEMB      48              0.0000000000
     44864      1308  PVCL2     H16A          -21.9285813518      -27.8096160723       -1.5421115704  MEMB      48              0.0000000000
     44865      1308  PVCL2     H16B          -20.2564440565      -27.2076279350       -1.1883346362  MEMB      48              0.0000000000
     44866      1308  PVCL2     CA17          -20.7676069796      -29.2462572728       -0.3555220795  MEMB      48              0.0000000000
     44867      1308  PVCL2     H17A          -20.7969895849      -28.8294456798        0.6739076210  MEMB      48              0.0000000000
     44868      1308  PVCL2     H17B          -19.8178131550      -29.7799003505       -0.5733249278  MEMB      48              0.0000000000
     44869      1308  PVCL2     CA18          -21.9160346885      -30.3430459012       -0.4438446140  MEMB      48              0.0000000000
     44870      1308  PVCL2     H18A          -22.9282969319      -29.9395028072       -0.2275144078  MEMB      48              0.0000000000
     44871      1308  PVCL2     H18B          -21.5867071267      -31.0846626095        0.3150157408  MEMB      48              0.0000000000
     44872      1308  PVCL2     H18C          -21.8909932233      -30.9116361914       -1.3979928151  MEMB      48              0.0000000000
     44873      1308  PVCL2     CB3           -23.5445661481      -27.2501253735      -18.2081345093  MEMB      48              0.0000000000
     44874      1308  PVCL2     H3D           -24.4106285505      -27.9445172760      -18.2537028651  MEMB      48              0.0000000000
     44875      1308  PVCL2     H3E           -23.8189419583      -26.1828098917      -18.0671481465  MEMB      48              0.0000000000
     44876      1308  PVCL2     CB4           -22.5472628886      -27.6841564150      -17.2084979898  MEMB      48              0.0000000000
     44877      1308  PVCL2     H4D           -21.9242532330      -26.8132789227      -16.9122680969  MEMB      48              0.0000000000
     44878      1308  PVCL2     H4E           -21.9299997435      -28.4993999493      -17.6428776081  MEMB      48              0.0000000000
     44879      1308  PVCL2     CB5           -23.1275170134      -28.1607701798      -15.8976886029  MEMB      48              0.0000000000
     44880      1308  PVCL2     H5D           -23.9059172165      -28.9097442580      -16.1574038202  MEMB      48              0.0000000000
     44881      1308  PVCL2     H5E           -23.6929538797      -27.3705690443      -15.3590006914  MEMB      48              0.0000000000
     44882      1308  PVCL2     CB6           -22.1167442388      -28.8760937339      -15.0172579688  MEMB      48              0.0000000000
     44883      1308  PVCL2     H6D           -21.3206064045      -28.1344527784      -14.7926376829  MEMB      48              0.0000000000
     44884      1308  PVCL2     H6E           -21.6707987221      -29.7069087530      -15.6047950527  MEMB      48              0.0000000000
     44885      1308  PVCL2     CB7           -22.5978010450      -29.4864309173      -13.6631912436  MEMB      48              0.0000000000
     44886      1308  PVCL2     H7D           -23.4500426866      -30.1685308615      -13.8699398306  MEMB      48              0.0000000000
     44887      1308  PVCL2     H7E           -23.0100638873      -28.6198668340      -13.1033460712  MEMB      48              0.0000000000
     44888      1308  PVCL2     CB8           -21.4055858456      -30.2063784359      -12.8707948610  MEMB      48              0.0000000000
     44889      1308  PVCL2     H8D           -20.5104700834      -29.6147304917      -13.1589635524  MEMB      48              0.0000000000
     44890      1308  PVCL2     H8E           -21.1941579371      -31.1961654747      -13.3289881930  MEMB      48              0.0000000000
     44891      1308  PVCL2     CB9           -21.6239289875      -30.3642746193      -11.3049911535  MEMB      48              0.0000000000
     44892      1308  PVCL2     H9D           -21.6351243769      -29.3180462186      -10.9313588853  MEMB      48              0.0000000000
     44893      1308  PVCL2     H9E           -20.7597459929      -30.9653436500      -10.9497102430  MEMB      48              0.0000000000
     44894      1308  PVCL2     CB10          -22.9306433573      -30.9783204367      -10.8498846929  MEMB      48              0.0000000000
     44895      1308  PVCL2     H10D          -23.0332830747      -32.0321090888      -11.1865078827  MEMB      48              0.0000000000
     44896      1308  PVCL2     H10E          -23.8017676553      -30.4756739708      -11.3219119307  MEMB      48              0.0000000000
     44897      1308  PVCL2     CB11          -23.3324914077      -30.9303932533       -9.3451963424  MEMB      48              0.0000000000
     44898      1308  PVCL2     H11D          -24.4170168856      -31.0596281207       -9.1416689711  MEMB      48              0.0000000000
     44899      1308  PVCL2     H11E          -22.9865014735      -29.9113906724       -9.0690701576  MEMB      48              0.0000000000
     44900      1308  PVCL2     CB12          -22.5470798919      -31.9688631198       -8.6294714393  MEMB      48              0.0000000000
     44901      1308  PVCL2     H12D          -21.4398130043      -31.9509874756       -8.7186991597  MEMB      48              0.0000000000
     44902      1308  PVCL2     H12E          -22.8347576425      -32.9803190413       -8.9879680507  MEMB      48              0.0000000000
     44903      1308  PVCL2     CB13          -22.7949429839      -31.8587947854       -7.1038870371  MEMB      48              0.0000000000
     44904      1308  PVCL2     H13D          -23.8102980529      -32.2529931349       -6.8848363547  MEMB      48              0.0000000000
     44905      1308  PVCL2     H13E          -22.7413450640      -30.7815606930       -6.8374018101  MEMB      48              0.0000000000
     44906      1308  PVCL2     CB14          -21.6258651954      -32.4944483686       -6.3436791531  MEMB      48              0.0000000000
     44907      1308  PVCL2     H14D          -20.6970760279      -31.9034776247       -6.4934317364  MEMB      48              0.0000000000
     44908      1308  PVCL2     H14E          -21.4031286257      -33.4832098178       -6.7987178701  MEMB      48              0.0000000000
     44909      1308  PVCL2     CB15          -21.7165447588      -32.7344228357       -4.8239889120  MEMB      48              0.0000000000
     44910      1308  PVCL2     H15D          -22.5633277162      -33.4272250287       -4.6308453421  MEMB      48              0.0000000000
     44911      1308  PVCL2     H15E          -21.9746553554      -31.7754096360       -4.3259993710  MEMB      48              0.0000000000
     44912      1308  PVCL2     CB16          -20.4659036208      -33.4970886257       -4.2841059982  MEMB      48              0.0000000000
     44913      1308  PVCL2     H16D          -20.5515284261      -33.7689537978       -3.2102903866  MEMB      48              0.0000000000
     44914      1308  PVCL2     H16E          -19.5427898348      -32.8963755965       -4.4301394899  MEMB      48              0.0000000000
     44915      1308  PVCL2     H16F          -20.2783521225      -34.3980266629       -4.9065656818  MEMB      48              0.0000000000
     44916      1308  PVCL2     CC3           -13.5014265497      -29.7635086909      -15.3633111259  MEMB      48              0.0000000000
     44917      1308  PVCL2     H3R           -12.6736104162      -29.1339121090      -14.9726073180  MEMB      48              0.0000000000
     44918      1308  PVCL2     H3S           -12.9480047466      -30.5907075486      -15.8570590540  MEMB      48              0.0000000000
     44919      1308  PVCL2     CC4           -14.1737441487      -30.3706705877      -14.1235070963  MEMB      48              0.0000000000
     44920      1308  PVCL2     H4R           -13.4716002137      -31.0924495676      -13.6540931636  MEMB      48              0.0000000000
     44921      1308  PVCL2     H4S           -15.0959119027      -30.9196129524      -14.4108917797  MEMB      48              0.0000000000
     44922      1308  PVCL2     CC5           -14.4793577993      -29.2444479840      -13.0205702124  MEMB      48              0.0000000000
     44923      1308  PVCL2     H5R           -15.2181117160      -28.6616499067      -13.6112562378  MEMB      48              0.0000000000
     44924      1308  PVCL2     H5S           -13.6215152924      -28.5767514316      -12.7912046204  MEMB      48              0.0000000000
     44925      1308  PVCL2     CC6           -14.8442036204      -29.6030770960      -11.5807321324  MEMB      48              0.0000000000
     44926      1308  PVCL2     H6R           -14.6657398544      -28.7019340678      -10.9559015940  MEMB      48              0.0000000000
     44927      1308  PVCL2     H6S           -14.0646347339      -30.3068108386      -11.2183064462  MEMB      48              0.0000000000
     44928      1308  PVCL2     CC7           -16.1951584699      -30.2600216977      -11.3903519210  MEMB      48              0.0000000000
     44929      1308  PVCL2     H7R           -16.2712024833      -31.1740900270      -12.0172631280  MEMB      48              0.0000000000
     44930      1308  PVCL2     H7S           -17.0020193918      -29.6162096765      -11.8012085855  MEMB      48              0.0000000000
     44931      1308  PVCL2     CC8           -16.6376341441      -30.3964368773       -9.9179535881  MEMB      48              0.0000000000
     44932      1308  PVCL2     H8R           -17.4967293313      -31.0978164156       -9.9838551838  MEMB      48              0.0000000000
     44933      1308  PVCL2     H8S           -16.9815070140      -29.3691145684       -9.6716178169  MEMB      48              0.0000000000
     44934      1308  PVCL2     CC9           -15.5710102097      -30.7721266831       -8.9045741541  MEMB      48              0.0000000000
     44935      1308  PVCL2     H9R           -14.7826801209      -30.0044344607       -9.0578894796  MEMB      48              0.0000000000
     44936      1308  PVCL2     H9S           -15.1031565628      -31.7562161789       -9.1213734883  MEMB      48              0.0000000000
     44937      1308  PVCL2     CC10          -15.8088055936      -30.7255517954       -7.3474186657  MEMB      48              0.0000000000
     44938      1308  PVCL2     H10R          -16.1260863505      -29.6866022762       -7.1145283962  MEMB      48              0.0000000000
     44939      1308  PVCL2     H10S          -14.8202255766      -30.8918729542       -6.8684954419  MEMB      48              0.0000000000
     44940      1308  PVCL2     CC11          -16.8293429054      -31.7817477398       -6.9663750524  MEMB      48              0.0000000000
     44941      1308  PVCL2     H11R          -17.8576078399      -31.6287282227       -7.3258970624  MEMB      48              0.0000000000
     44942      1308  PVCL2     CC12          -16.6368966337      -32.7246789503       -6.0379156784  MEMB      48              0.0000000000
     44943      1308  PVCL2     H12R          -17.5205266648      -33.3441883856       -5.8248282734  MEMB      48              0.0000000000
     44944      1308  PVCL2     CC13          -15.4484048821      -33.0543263837       -5.0803775576  MEMB      48              0.0000000000
     44945      1308  PVCL2     H13R          -14.5498178294      -33.1966573124       -5.7180334937  MEMB      48              0.0000000000
     44946      1308  PVCL2     H13S          -15.5485718712      -34.0768686471       -4.6576548725  MEMB      48              0.0000000000
     44947      1308  PVCL2     CC14          -14.9995141873      -32.0801639349       -4.0367804934  MEMB      48              0.0000000000
     44948      1308  PVCL2     H14R          -15.1604973159      -31.0173093259       -4.3173973284  MEMB      48              0.0000000000
     44949      1308  PVCL2     H14S          -13.9470254013      -32.2732603863       -3.7379456962  MEMB      48              0.0000000000
     44950      1308  PVCL2     CC15          -15.8664085684      -32.0536515202       -2.7270457355  MEMB      48              0.0000000000
     44951      1308  PVCL2     H15R          -15.8436759250      -33.1093755460       -2.3817180915  MEMB      48              0.0000000000
     44952      1308  PVCL2     H15S          -16.9191019298      -31.7479917483       -2.9079602424  MEMB      48              0.0000000000
     44953      1308  PVCL2     CC16          -15.2659306663      -31.1055422115       -1.6913920800  MEMB      48              0.0000000000
     44954      1308  PVCL2     H16R          -15.3472899801      -30.0495398443       -2.0268957465  MEMB      48              0.0000000000
     44955      1308  PVCL2     H16S          -14.1692987602      -31.2778013458       -1.7366280081  MEMB      48              0.0000000000
     44956      1308  PVCL2     CC17          -15.7704284665      -31.3851967420       -0.2689378650  MEMB      48              0.0000000000
     44957      1308  PVCL2     H17R          -14.9691547306      -31.1414581290        0.4610441450  MEMB      48              0.0000000000
     44958      1308  PVCL2     H17S          -15.8743609310      -32.4885801900       -0.1910694865  MEMB      48              0.0000000000
     44959      1308  PVCL2     CC18          -17.1561734867      -30.8890760021        0.1592050117  MEMB      48              0.0000000000
     44960      1308  PVCL2     H18R          -17.2752702651      -29.7844784467        0.1581506827  MEMB      48              0.0000000000
     44961      1308  PVCL2     H18S          -17.4068487519      -31.3539289924        1.1366477157  MEMB      48              0.0000000000
     44962      1308  PVCL2     H18T          -17.9687677666      -31.2618317553       -0.5003897591  MEMB      48              0.0000000000
     44963      1308  PVCL2     CD3           -15.4562956918      -24.7210952995      -13.8625724339  MEMB      48              0.0000000000
     44964      1308  PVCL2     H3X           -15.5641130369      -25.7510924792      -14.2648193046  MEMB      48              0.0000000000
     44965      1308  PVCL2     H3Y           -16.4655654805      -24.2567356158      -13.8544638738  MEMB      48              0.0000000000
     44966      1308  PVCL2     CD4           -14.8600568980      -24.6325437200      -12.4255503660  MEMB      48              0.0000000000
     44967      1308  PVCL2     H4X           -14.6877256503      -23.5411987373      -12.3089760131  MEMB      48              0.0000000000
     44968      1308  PVCL2     H4Y           -13.8803106585      -25.1100683016      -12.2101700838  MEMB      48              0.0000000000
     44969      1308  PVCL2     CD5           -15.8912740013      -24.9372332376      -11.2519217828  MEMB      48              0.0000000000
     44970      1308  PVCL2     H5X           -15.9240346735      -26.0433798649      -11.1534946599  MEMB      48              0.0000000000
     44971      1308  PVCL2     H5Y           -16.9286407861      -24.5877538555      -11.4418044889  MEMB      48              0.0000000000
     44972      1308  PVCL2     CD6           -15.4118702652      -24.1362924155      -10.0002791150  MEMB      48              0.0000000000
     44973      1308  PVCL2     H6X           -16.2264254997      -24.2456943871       -9.2527150090  MEMB      48              0.0000000000
     44974      1308  PVCL2     H6Y           -15.2980775735      -23.0636020134      -10.2661872796  MEMB      48              0.0000000000
     44975      1308  PVCL2     CD7           -14.1389341679      -24.6780269696       -9.2281441740  MEMB      48              0.0000000000
     44976      1308  PVCL2     H7X           -14.0849806878      -23.9888370288       -8.3584157382  MEMB      48              0.0000000000
     44977      1308  PVCL2     H7Y           -13.2858588947      -24.5464909430       -9.9276308577  MEMB      48              0.0000000000
     44978      1308  PVCL2     CD8           -14.2851710107      -26.1926668507       -8.7610166459  MEMB      48              0.0000000000
     44979      1308  PVCL2     H8X           -14.1054137364      -26.8751553605       -9.6190474602  MEMB      48              0.0000000000
     44980      1308  PVCL2     H8Y           -15.3389206295      -26.3371431542       -8.4399882577  MEMB      48              0.0000000000
     44981      1308  PVCL2     CD9           -13.4473988713      -26.4910159089       -7.5883815564  MEMB      48              0.0000000000
     44982      1308  PVCL2     H9X           -14.0768958100      -26.1600681958       -6.7348431942  MEMB      48              0.0000000000
     44983      1308  PVCL2     H9Y           -12.4379124122      -26.0281073030       -7.6195865001  MEMB      48              0.0000000000
     44984      1308  PVCL2     CD10          -13.1962741215      -27.9685629276       -7.5874311657  MEMB      48              0.0000000000
     44985      1308  PVCL2     H10X          -12.6264297316      -28.2432534531       -8.5007456804  MEMB      48              0.0000000000
     44986      1308  PVCL2     H10Y          -14.1321820297      -28.5533336060       -7.7156527741  MEMB      48              0.0000000000
     44987      1308  PVCL2     CD11          -12.3533613506      -28.5309237814       -6.4393579434  MEMB      48              0.0000000000
     44988      1308  PVCL2     H11X          -11.3714657608      -28.0147570948       -6.3779235521  MEMB      48              0.0000000000
     44989      1308  PVCL2     H11Y          -12.2283219094      -29.5607062829       -6.8371440851  MEMB      48              0.0000000000
     44990      1308  PVCL2     CD12          -13.1348577692      -28.8925534913       -5.1182302898  MEMB      48              0.0000000000
     44991      1308  PVCL2     H12X          -12.7021495063      -29.8410029071       -4.7341365364  MEMB      48              0.0000000000
     44992      1308  PVCL2     H12Y          -14.2096357992      -29.0210870759       -5.3685345937  MEMB      48              0.0000000000
     44993      1308  PVCL2     CD13          -12.9077080343      -27.8597377941       -3.9377703581  MEMB      48              0.0000000000
     44994      1308  PVCL2     H13X          -13.6935377152      -28.0250002844       -3.1699929788  MEMB      48              0.0000000000
     44995      1308  PVCL2     H13Y          -13.3862517642      -26.9537575292       -4.3673238383  MEMB      48              0.0000000000
     44996      1308  PVCL2     CD14          -11.5458017129      -27.5505154633       -3.4843836650  MEMB      48              0.0000000000
     44997      1308  PVCL2     H14X          -11.1144969802      -26.8263092734       -4.2081397553  MEMB      48              0.0000000000
     44998      1308  PVCL2     H14Y          -10.7764420725      -28.3351426673       -3.6479894903  MEMB      48              0.0000000000
     44999      1308  PVCL2     CD15          -11.4951453867      -27.0970563674       -2.0371797603  MEMB      48              0.0000000000
     45000      1308  PVCL2     H15X          -12.3902064844      -26.5843839477       -1.6244411964  MEMB      48              0.0000000000
     45001      1308  PVCL2     H15Y          -10.6284481752      -26.4027294352       -2.0698497239  MEMB      48              0.0000000000
     45002      1308  PVCL2     CD16          -11.3530471020      -28.2511449584       -1.0271274768  MEMB      48              0.0000000000
     45003      1308  PVCL2     H16X          -11.4004831980      -27.7956312076       -0.0149134674  MEMB      48              0.0000000000
     45004      1308  PVCL2     H16Y          -10.3088690827      -28.6269650593       -1.0797825701  MEMB      48              0.0000000000
     45005      1308  PVCL2     H16Z          -12.3003470159      -28.8224996977       -1.1295836483  MEMB      48              0.0000000000
     45006      1309  PPPE      N              13.3226754504       27.9968241376      -16.8029529634  MEMB      49              0.0000000000
     45007      1309  PPPE      HN1            12.8163783432       27.5726957617      -15.9995985210  MEMB      49              0.0000000000
     45008      1309  PPPE      HN2            14.3331101941       27.7818934727      -16.6828428552  MEMB      49              0.0000000000
     45009      1309  PPPE      HN3            13.2004178330       29.0258859681      -16.8906160910  MEMB      49              0.0000000000
     45010      1309  PPPE      C12            12.9872450281       27.2367210070      -18.0446048363  MEMB      49              0.0000000000
     45011      1309  PPPE      H12A           12.1261206047       27.6732536240      -18.5943547810  MEMB      49              0.0000000000
     45012      1309  PPPE      H12B           12.5674213433       26.3023367989      -17.6144941235  MEMB      49              0.0000000000
     45013      1309  PPPE      C11            14.2526883836       27.0004811037      -18.8772997824  MEMB      49              0.0000000000
     45014      1309  PPPE      H11A           14.1640727289       26.4478442259      -19.8370188803  MEMB      49              0.0000000000
     45015      1309  PPPE      H11B           14.9360295646       26.4575437384      -18.1898517133  MEMB      49              0.0000000000
     45016      1309  PPPE      P              16.5158201804       28.2432982506      -19.6220590847  MEMB      49              0.0000000000
     45017      1309  PPPE      O13            17.5181495047       27.5456980388      -18.7965663175  MEMB      49              0.0000000000
     45018      1309  PPPE      O14            16.4091209472       27.8084287543      -21.0164565949  MEMB      49              0.0000000000
     45019      1309  PPPE      O11            16.6800963940       29.8045527152      -19.7663008014  MEMB      49              0.0000000000
     45020      1309  PPPE      O12            14.9784752980       28.1990863847      -19.0737595824  MEMB      49              0.0000000000
     45021      1309  PPPE      C1             16.0366603383       30.6758294263      -18.8123477651  MEMB      49              0.0000000000
     45022      1309  PPPE      HA             14.9971800187       30.3886022763      -18.5453229922  MEMB      49              0.0000000000
     45023      1309  PPPE      HB             15.8994105308       31.6093986357      -19.3988049431  MEMB      49              0.0000000000
     45024      1309  PPPE      C2             17.0419793914       30.9458693809      -17.6759018890  MEMB      49              0.0000000000
     45025      1309  PPPE      HS             18.0738626291       30.9328450972      -18.0874457526  MEMB      49              0.0000000000
     45026      1309  PPPE      O21            16.9325789163       29.7970684990      -16.8120276797  MEMB      49              0.0000000000
     45027      1309  PPPE      C21            17.9301171794       29.5742940398      -15.9106897699  MEMB      49              0.0000000000
     45028      1309  PPPE      O22            18.8853814951       30.3329798235      -15.7889135135  MEMB      49              0.0000000000
     45029      1309  PPPE      C22            17.7340135130       28.2811579616      -15.0368670909  MEMB      49              0.0000000000
     45030      1309  PPPE      H2R            18.3012072730       28.4332642116      -14.0937467766  MEMB      49              0.0000000000
     45031      1309  PPPE      H2S            18.1793010266       27.3900312947      -15.5287342416  MEMB      49              0.0000000000
     45032      1309  PPPE      C3             16.7122356082       32.2331967493      -16.8975353367  MEMB      49              0.0000000000
     45033      1309  PPPE      HX             17.3944232238       32.4232917231      -16.0414950583  MEMB      49              0.0000000000
     45034      1309  PPPE      HY             16.7808390779       33.1417690093      -17.5332326012  MEMB      49              0.0000000000
     45035      1309  PPPE      O31            15.3770856681       32.1389369445      -16.3994958754  MEMB      49              0.0000000000
     45036      1309  PPPE      C31            15.1627404154       32.6943401730      -15.2545540728  MEMB      49              0.0000000000
     45037      1309  PPPE      O32            15.9673055014       33.2991017882      -14.5987097129  MEMB      49              0.0000000000
     45038      1309  PPPE      C32            13.7797945025       32.4093329818      -14.7838853063  MEMB      49              0.0000000000
     45039      1309  PPPE      H2X            13.3317194432       31.5438075038      -15.3171913986  MEMB      49              0.0000000000
     45040      1309  PPPE      H2Y            13.2044422448       33.3143213741      -15.0742071785  MEMB      49              0.0000000000
     45041      1309  PPPE      C23            16.2458936339       27.9316389421      -14.6942163394  MEMB      49              0.0000000000
     45042      1309  PPPE      H3R            15.6868946787       27.9690192798      -15.6536140038  MEMB      49              0.0000000000
     45043      1309  PPPE      H3S            15.7757364528       28.6773976069      -14.0181118807  MEMB      49              0.0000000000
     45044      1309  PPPE      C24            15.9696772989       26.4380849337      -14.3290173279  MEMB      49              0.0000000000
     45045      1309  PPPE      H4R            16.1132114175       25.8066578722      -15.2318012571  MEMB      49              0.0000000000
     45046      1309  PPPE      H4S            14.9097774131       26.2637316525      -14.0452319062  MEMB      49              0.0000000000
     45047      1309  PPPE      C25            16.9281219779       25.8682630385      -13.2092513985  MEMB      49              0.0000000000
     45048      1309  PPPE      H5R            17.9472267819       26.0942812051      -13.5895962247  MEMB      49              0.0000000000
     45049      1309  PPPE      H5S            16.8949008491       24.7605714969      -13.1302779522  MEMB      49              0.0000000000
     45050      1309  PPPE      C26            16.8083787646       26.4828536323      -11.8426885607  MEMB      49              0.0000000000
     45051      1309  PPPE      H6R            15.7472176544       26.8118385259      -11.8478883592  MEMB      49              0.0000000000
     45052      1309  PPPE      H6S            17.5179090831       27.3274796568      -11.7104213839  MEMB      49              0.0000000000
     45053      1309  PPPE      C27            16.9064288109       25.4723826593      -10.7514593619  MEMB      49              0.0000000000
     45054      1309  PPPE      H7R            17.9079400501       24.9949042040      -10.6939218748  MEMB      49              0.0000000000
     45055      1309  PPPE      H7S            16.2501880056       24.6215520893      -11.0338710236  MEMB      49              0.0000000000
     45056      1309  PPPE      C28            16.3892230046       26.0242970208       -9.4419353730  MEMB      49              0.0000000000
     45057      1309  PPPE      H8R            16.3153389156       25.2174716391       -8.6817413551  MEMB      49              0.0000000000
     45058      1309  PPPE      H8S            15.3820955876       26.4200271333       -9.6937548401  MEMB      49              0.0000000000
     45059      1309  PPPE      C29            17.2698028686       27.2213886582       -8.9290127252  MEMB      49              0.0000000000
     45060      1309  PPPE      H91            17.0637998613       28.1480364640       -9.4847884038  MEMB      49              0.0000000000
     45061      1309  PPPE      C210           18.0172733973       27.2555151813       -7.8283714748  MEMB      49              0.0000000000
     45062      1309  PPPE      H101           18.4490722238       28.2442104352       -7.6138220212  MEMB      49              0.0000000000
     45063      1309  PPPE      C211           18.2219206066       26.2056418571       -6.7971261332  MEMB      49              0.0000000000
     45064      1309  PPPE      H11R           19.2981820771       26.0077140001       -6.6052751224  MEMB      49              0.0000000000
     45065      1309  PPPE      H11S           17.7441104593       25.2350333481       -7.0499849587  MEMB      49              0.0000000000
     45066      1309  PPPE      C212           17.5893750051       26.6250217411       -5.4192064061  MEMB      49              0.0000000000
     45067      1309  PPPE      H12R           17.4959291324       25.6968609743       -4.8157940596  MEMB      49              0.0000000000
     45068      1309  PPPE      H12S           16.5605459749       27.0177440046       -5.5661793636  MEMB      49              0.0000000000
     45069      1309  PPPE      C213           18.4204467858       27.7513714121       -4.7415532460  MEMB      49              0.0000000000
     45070      1309  PPPE      H13R           18.4879585253       28.6880105030       -5.3352454041  MEMB      49              0.0000000000
     45071      1309  PPPE      H13S           19.4571392528       27.3790354648       -4.5967925075  MEMB      49              0.0000000000
     45072      1309  PPPE      C214           17.8108839242       28.0874590750       -3.3689189377  MEMB      49              0.0000000000
     45073      1309  PPPE      H14R           16.7121378376       28.2343584818       -3.4430714936  MEMB      49              0.0000000000
     45074      1309  PPPE      H14S           18.2741128241       29.0712841981       -3.1412610504  MEMB      49              0.0000000000
     45075      1309  PPPE      C215           18.2290484563       27.1306903939       -2.2695224373  MEMB      49              0.0000000000
     45076      1309  PPPE      H15R           19.3294674115       26.9851278757       -2.3165402672  MEMB      49              0.0000000000
     45077      1309  PPPE      H15S           17.7080440605       26.1495721477       -2.2863273913  MEMB      49              0.0000000000
     45078      1309  PPPE      C216           17.8497526155       27.7462539413       -0.8924496021  MEMB      49              0.0000000000
     45079      1309  PPPE      H16R           17.7503417068       26.9790127251       -0.0950918484  MEMB      49              0.0000000000
     45080      1309  PPPE      H16S           18.4483295379       28.6154438177       -0.5452671908  MEMB      49              0.0000000000
     45081      1309  PPPE      H16T           16.8397729657       28.2017463271       -0.9748437371  MEMB      49              0.0000000000
     45082      1309  PPPE      C33            13.7278145380       32.1250617455      -13.2479505573  MEMB      49              0.0000000000
     45083      1309  PPPE      H3X            12.6602650587       32.0091633313      -12.9629476333  MEMB      49              0.0000000000
     45084      1309  PPPE      H3Y            14.1945355276       32.9252393272      -12.6345922970  MEMB      49              0.0000000000
     45085      1309  PPPE      C34            14.3821379847       30.8189399270      -12.8511131422  MEMB      49              0.0000000000
     45086      1309  PPPE      H4X            15.4717042442       30.9956120533      -12.9774196187  MEMB      49              0.0000000000
     45087      1309  PPPE      H4Y            14.1122852293       29.9490417135      -13.4873344786  MEMB      49              0.0000000000
     45088      1309  PPPE      C35            14.1866181833       30.4396802502      -11.4158246710  MEMB      49              0.0000000000
     45089      1309  PPPE      H5X            13.7981017555       31.3157983884      -10.8538700523  MEMB      49              0.0000000000
     45090      1309  PPPE      H5Y            15.1046581054       30.0562782229      -10.9213283750  MEMB      49              0.0000000000
     45091      1309  PPPE      C36            13.1322523596       29.3537453919      -11.2779763666  MEMB      49              0.0000000000
     45092      1309  PPPE      H6X            13.5421645086       28.4497305546      -11.7770256668  MEMB      49              0.0000000000
     45093      1309  PPPE      H6Y            12.1655574512       29.6267536967      -11.7526219392  MEMB      49              0.0000000000
     45094      1309  PPPE      C37            12.9440000003       28.8863329690       -9.8455478253  MEMB      49              0.0000000000
     45095      1309  PPPE      H7X            13.9202000152       28.4058814549       -9.6207793365  MEMB      49              0.0000000000
     45096      1309  PPPE      H7Y            12.1678000596       28.1051342126       -9.6987038443  MEMB      49              0.0000000000
     45097      1309  PPPE      C38            12.7475077125       29.9930748741       -8.8040922707  MEMB      49              0.0000000000
     45098      1309  PPPE      H8X            11.8364263726       30.5386102479       -9.1306545893  MEMB      49              0.0000000000
     45099      1309  PPPE      H8Y            13.6497761735       30.6412174507       -8.8160849641  MEMB      49              0.0000000000
     45100      1309  PPPE      C39            12.5312702375       29.4078617702       -7.4393594590  MEMB      49              0.0000000000
     45101      1309  PPPE      H9X            11.6530601177       28.7305877087       -7.5054490281  MEMB      49              0.0000000000
     45102      1309  PPPE      H9Y            12.1459566588       30.1752967761       -6.7344495656  MEMB      49              0.0000000000
     45103      1309  PPPE      C310           13.7370715447       28.6537465285       -6.8062338835  MEMB      49              0.0000000000
     45104      1309  PPPE      H10X           14.5460937461       29.4146660609       -6.7778517979  MEMB      49              0.0000000000
     45105      1309  PPPE      H10Y           14.0109634086       27.8710643091       -7.5456341746  MEMB      49              0.0000000000
     45106      1309  PPPE      C311           13.4297263212       28.0322712955       -5.4153255802  MEMB      49              0.0000000000
     45107      1309  PPPE      H11X           14.3846259928       27.6246077965       -5.0199800493  MEMB      49              0.0000000000
     45108      1309  PPPE      H11Y           12.8836488895       27.0725794143       -5.5382561771  MEMB      49              0.0000000000
     45109      1309  PPPE      C312           12.8074418673       28.9102789519       -4.2926828858  MEMB      49              0.0000000000
     45110      1309  PPPE      H12X           11.8466976920       29.2835669075       -4.7073486931  MEMB      49              0.0000000000
     45111      1309  PPPE      H12Y           13.4471423974       29.7886357027       -4.0611798612  MEMB      49              0.0000000000
     45112      1309  PPPE      C313           12.6805454267       28.1654769895       -2.9278662772  MEMB      49              0.0000000000
     45113      1309  PPPE      H13X           13.5557096127       27.4816514742       -2.8997360050  MEMB      49              0.0000000000
     45114      1309  PPPE      H13Y           11.8499528171       27.4288714789       -2.9708690522  MEMB      49              0.0000000000
     45115      1309  PPPE      C314           12.8635933605       29.1774105101       -1.8005592562  MEMB      49              0.0000000000
     45116      1309  PPPE      H14X           12.0578392699       29.9358787266       -1.8995911200  MEMB      49              0.0000000000
     45117      1309  PPPE      H14Y           13.8088565071       29.7498653639       -1.9149883787  MEMB      49              0.0000000000
     45118      1309  PPPE      C315           13.1583634061       28.4771042294       -0.4738473573  MEMB      49              0.0000000000
     45119      1309  PPPE      H15X           13.4495867639       29.1896800062        0.3272429735  MEMB      49              0.0000000000
     45120      1309  PPPE      H15Y           14.0155782117       27.7711031607       -0.5065011189  MEMB      49              0.0000000000
     45121      1309  PPPE      C316           12.0365981840       27.6333201575        0.1373800134  MEMB      49              0.0000000000
     45122      1309  PPPE      H16X           11.1116280050       28.2443592403        0.0640151227  MEMB      49              0.0000000000
     45123      1309  PPPE      H16Y           11.8813729629       26.6879958506       -0.4252815950  MEMB      49              0.0000000000
     45124      1309  PPPE      H16Z           12.2744886033       27.4379739203        1.2048859834  MEMB      49              0.0000000000
     45125      1310  PPPE      N              30.0443831210       -4.9315299767      -21.0391969432  MEMB      50              0.0000000000
     45126      1310  PPPE      HN1            29.5194372927       -4.0348210025      -20.9950960030  MEMB      50              0.0000000000
     45127      1310  PPPE      HN2            31.0250124193       -4.6390129429      -21.2246692166  MEMB      50              0.0000000000
     45128      1310  PPPE      HN3            29.6808137003       -5.5624504032      -21.7817309100  MEMB      50              0.0000000000
     45129      1310  PPPE      C12            29.8326141281       -5.6711960335      -19.6883418452  MEMB      50              0.0000000000
     45130      1310  PPPE      H12A           28.8036988687       -6.0732163225      -19.8068073512  MEMB      50              0.0000000000
     45131      1310  PPPE      H12B           29.8221356354       -4.9264756561      -18.8639616170  MEMB      50              0.0000000000
     45132      1310  PPPE      C11            30.9458259231       -6.7798509536      -19.4822405710  MEMB      50              0.0000000000
     45133      1310  PPPE      H11A           30.6646412938       -7.5002603581      -20.2799037169  MEMB      50              0.0000000000
     45134      1310  PPPE      H11B           30.7153503680       -7.1977234646      -18.4789536813  MEMB      50              0.0000000000
     45135      1310  PPPE      P              32.8900076159       -5.6586081167      -18.3690324029  MEMB      50              0.0000000000
     45136      1310  PPPE      O13            34.2583003556       -5.1577326631      -18.7118023190  MEMB      50              0.0000000000
     45137      1310  PPPE      O14            31.9506787614       -4.6949009334      -17.6811160403  MEMB      50              0.0000000000
     45138      1310  PPPE      O11            33.1188550306       -6.9029960379      -17.3785783439  MEMB      50              0.0000000000
     45139      1310  PPPE      O12            32.2561102245       -6.3274734375      -19.6496918474  MEMB      50              0.0000000000
     45140      1310  PPPE      C1             33.6725862494       -8.1036237371      -17.9861483882  MEMB      50              0.0000000000
     45141      1310  PPPE      HA             34.5354765935       -7.8793057168      -18.6490380321  MEMB      50              0.0000000000
     45142      1310  PPPE      HB             32.8983458030       -8.6400607904      -18.5753071266  MEMB      50              0.0000000000
     45143      1310  PPPE      C2             34.0956677259       -9.1024911860      -16.8613671384  MEMB      50              0.0000000000
     45144      1310  PPPE      HS             34.4514901344      -10.0596851746      -17.2989640780  MEMB      50              0.0000000000
     45145      1310  PPPE      O21            33.0449077586       -9.3545379430      -15.9182700486  MEMB      50              0.0000000000
     45146      1310  PPPE      C21            33.3142657336      -10.4277278040      -15.0936705837  MEMB      50              0.0000000000
     45147      1310  PPPE      O22            34.2360646055      -11.2309301851      -15.2566027966  MEMB      50              0.0000000000
     45148      1310  PPPE      C22            32.3170902908      -10.6205794139      -13.8772299365  MEMB      50              0.0000000000
     45149      1310  PPPE      H2R            32.5509966811      -11.6115984239      -13.4328313289  MEMB      50              0.0000000000
     45150      1310  PPPE      H2S            31.3210263968      -10.6843989154      -14.3651897609  MEMB      50              0.0000000000
     45151      1310  PPPE      C3             35.3271289341       -8.4392544075      -16.1892657463  MEMB      50              0.0000000000
     45152      1310  PPPE      HX             35.8679602952       -9.1857567237      -15.5691393635  MEMB      50              0.0000000000
     45153      1310  PPPE      HY             35.9944977976       -8.1544842180      -17.0306014340  MEMB      50              0.0000000000
     45154      1310  PPPE      O31            34.9424088791       -7.2308507761      -15.4618047263  MEMB      50              0.0000000000
     45155      1310  PPPE      C31            35.6754387823       -6.9153348591      -14.3648417726  MEMB      50              0.0000000000
     45156      1310  PPPE      O32            36.6333571917       -7.5773036665      -13.9901754371  MEMB      50              0.0000000000
     45157      1310  PPPE      C32            35.2943460495       -5.5306610605      -13.9207458641  MEMB      50              0.0000000000
     45158      1310  PPPE      H2X            34.3453768774       -5.6428877510      -13.3540151695  MEMB      50              0.0000000000
     45159      1310  PPPE      H2Y            34.9859301857       -5.0055440527      -14.8499674647  MEMB      50              0.0000000000
     45160      1310  PPPE      C23            32.6412119059       -9.5404666627      -12.8515573794  MEMB      50              0.0000000000
     45161      1310  PPPE      H3R            31.8019092735       -9.4784550355      -12.1262666451  MEMB      50              0.0000000000
     45162      1310  PPPE      H3S            32.7026674113       -8.5609512368      -13.3722240208  MEMB      50              0.0000000000
     45163      1310  PPPE      C24            33.9233225747       -9.9498889255      -12.0861467896  MEMB      50              0.0000000000
     45164      1310  PPPE      H4R            34.7120279665      -10.1733637576      -12.8360293167  MEMB      50              0.0000000000
     45165      1310  PPPE      H4S            33.5947431482      -10.8570561469      -11.5353254094  MEMB      50              0.0000000000
     45166      1310  PPPE      C25            34.4716670160       -8.9405417373      -11.0265679057  MEMB      50              0.0000000000
     45167      1310  PPPE      H5R            34.2765859460       -7.9445709050      -11.4785706460  MEMB      50              0.0000000000
     45168      1310  PPPE      H5S            35.5572281416       -9.1366688182      -10.8946125687  MEMB      50              0.0000000000
     45169      1310  PPPE      C26            33.7282338793       -9.0603388836       -9.6927409747  MEMB      50              0.0000000000
     45170      1310  PPPE      H6R            33.9519550814      -10.0888042853       -9.3370321875  MEMB      50              0.0000000000
     45171      1310  PPPE      H6S            32.6310678525       -9.2109825792       -9.7813648239  MEMB      50              0.0000000000
     45172      1310  PPPE      C27            34.0843443218       -7.9392547479       -8.6599744966  MEMB      50              0.0000000000
     45173      1310  PPPE      H7R            33.4932532867       -8.0483648420       -7.7256151569  MEMB      50              0.0000000000
     45174      1310  PPPE      H7S            33.7413702043       -6.9668984920       -9.0737535031  MEMB      50              0.0000000000
     45175      1310  PPPE      C28            35.5645422272       -7.8564324525       -8.3006336647  MEMB      50              0.0000000000
     45176      1310  PPPE      H8R            35.7511391490       -6.8518128476       -7.8644662216  MEMB      50              0.0000000000
     45177      1310  PPPE      H8S            36.2443165767       -7.8437266426       -9.1793067530  MEMB      50              0.0000000000
     45178      1310  PPPE      C29            35.9133886218       -8.9890190988       -7.3053896899  MEMB      50              0.0000000000
     45179      1310  PPPE      H91            35.5088221051       -9.9702487085       -7.5943782481  MEMB      50              0.0000000000
     45180      1310  PPPE      C210           36.4924455887       -8.8715630688       -6.1024902355  MEMB      50              0.0000000000
     45181      1310  PPPE      H101           36.7147178673       -9.7837199259       -5.5292844242  MEMB      50              0.0000000000
     45182      1310  PPPE      C211           37.0010932123       -7.5653295379       -5.4567963109  MEMB      50              0.0000000000
     45183      1310  PPPE      H11R           37.4726533978       -7.0204634389       -6.3024161580  MEMB      50              0.0000000000
     45184      1310  PPPE      H11S           37.6809938487       -7.7581966108       -4.5995574779  MEMB      50              0.0000000000
     45185      1310  PPPE      C212           35.8373381443       -6.6796163350       -4.8964849270  MEMB      50              0.0000000000
     45186      1310  PPPE      H12R           35.1185804185       -6.4787593784       -5.7195066852  MEMB      50              0.0000000000
     45187      1310  PPPE      H12S           36.3594889071       -5.7224254779       -4.6832591216  MEMB      50              0.0000000000
     45188      1310  PPPE      C213           35.1753779541       -7.0918685701       -3.6094528045  MEMB      50              0.0000000000
     45189      1310  PPPE      H13R           34.8215090141       -8.1404971660       -3.7067967369  MEMB      50              0.0000000000
     45190      1310  PPPE      H13S           34.3492398634       -6.3765965961       -3.4089463000  MEMB      50              0.0000000000
     45191      1310  PPPE      C214           36.0812618439       -7.0324026629       -2.3788760276  MEMB      50              0.0000000000
     45192      1310  PPPE      H14R           36.4024400940       -5.9836735288       -2.2018654770  MEMB      50              0.0000000000
     45193      1310  PPPE      H14S           36.9655415781       -7.6637324313       -2.6108093695  MEMB      50              0.0000000000
     45194      1310  PPPE      C215           35.4956351548       -7.4982225808       -1.0852582108  MEMB      50              0.0000000000
     45195      1310  PPPE      H15R           34.6671556172       -6.8120821671       -0.8074921430  MEMB      50              0.0000000000
     45196      1310  PPPE      H15S           36.2376327314       -7.3043785418       -0.2814018276  MEMB      50              0.0000000000
     45197      1310  PPPE      C216           34.9285966922       -8.8529870269       -0.9509504280  MEMB      50              0.0000000000
     45198      1310  PPPE      H16R           34.1041043040       -8.9154035010       -0.2089009111  MEMB      50              0.0000000000
     45199      1310  PPPE      H16S           34.4113968231       -9.1597044915       -1.8851611603  MEMB      50              0.0000000000
     45200      1310  PPPE      H16T           35.7214393760       -9.6082162948       -0.7629338549  MEMB      50              0.0000000000
     45201      1310  PPPE      C33            36.4208962860       -4.9732180180      -13.0161528920  MEMB      50              0.0000000000
     45202      1310  PPPE      H3X            37.3945808435       -4.9757329867      -13.5511791131  MEMB      50              0.0000000000
     45203      1310  PPPE      H3Y            36.5174396890       -5.6010042228      -12.1046240376  MEMB      50              0.0000000000
     45204      1310  PPPE      C34            36.1486405788       -3.4865516248      -12.6841342944  MEMB      50              0.0000000000
     45205      1310  PPPE      H4X            35.9659444490       -3.0699178216      -13.6977216849  MEMB      50              0.0000000000
     45206      1310  PPPE      H4Y            37.0566427055       -3.0590346633      -12.2076026738  MEMB      50              0.0000000000
     45207      1310  PPPE      C35            34.9467219673       -3.2404127307      -11.7854866594  MEMB      50              0.0000000000
     45208      1310  PPPE      H5X            34.1180435891       -3.9788290546      -11.8340096253  MEMB      50              0.0000000000
     45209      1310  PPPE      H5Y            34.5594392543       -2.1992395243      -11.8025586972  MEMB      50              0.0000000000
     45210      1310  PPPE      C36            35.4601790617       -3.4694467322      -10.3603898649  MEMB      50              0.0000000000
     45211      1310  PPPE      H6X            36.1009828657       -2.5792359577      -10.1837086216  MEMB      50              0.0000000000
     45212      1310  PPPE      H6Y            36.1123752147       -4.3624400681      -10.2530395972  MEMB      50              0.0000000000
     45213      1310  PPPE      C37            34.2498311795       -3.5291124413       -9.3654604143  MEMB      50              0.0000000000
     45214      1310  PPPE      H7X            33.7261025870       -4.5075930534       -9.4165001361  MEMB      50              0.0000000000
     45215      1310  PPPE      H7Y            33.5683032259       -2.6983614300       -9.6477606191  MEMB      50              0.0000000000
     45216      1310  PPPE      C38            34.6943583771       -3.4940591662       -7.8642973237  MEMB      50              0.0000000000
     45217      1310  PPPE      H8X            35.4325116516       -2.6644028869       -7.8308129751  MEMB      50              0.0000000000
     45218      1310  PPPE      H8Y            35.2153916968       -4.4670491678       -7.7372708052  MEMB      50              0.0000000000
     45219      1310  PPPE      C39            33.5085885469       -3.3926463402       -6.8488980108  MEMB      50              0.0000000000
     45220      1310  PPPE      H9X            33.0629194220       -2.3900763081       -7.0236932105  MEMB      50              0.0000000000
     45221      1310  PPPE      H9Y            34.0594351358       -3.2067304267       -5.9021539542  MEMB      50              0.0000000000
     45222      1310  PPPE      C310           32.4579539411       -4.4724619265       -6.8903103493  MEMB      50              0.0000000000
     45223      1310  PPPE      H10X           32.9786314711       -5.4533379753       -6.9234477354  MEMB      50              0.0000000000
     45224      1310  PPPE      H10Y           31.7203839748       -4.3945726162       -7.7175012584  MEMB      50              0.0000000000
     45225      1310  PPPE      C311           31.6616158240       -4.6114386092       -5.4887852381  MEMB      50              0.0000000000
     45226      1310  PPPE      H11X           30.8427309927       -3.8775464123       -5.6473755159  MEMB      50              0.0000000000
     45227      1310  PPPE      H11Y           32.2921576948       -4.5492418873       -4.5761683870  MEMB      50              0.0000000000
     45228      1310  PPPE      C312           30.8783097403       -5.9621559601       -5.5443809168  MEMB      50              0.0000000000
     45229      1310  PPPE      H12X           31.6675332879       -6.7187884895       -5.7417496260  MEMB      50              0.0000000000
     45230      1310  PPPE      H12Y           30.1739865454       -6.0137396870       -6.4020457444  MEMB      50              0.0000000000
     45231      1310  PPPE      C313           30.1726521792       -6.3197566603       -4.1819676532  MEMB      50              0.0000000000
     45232      1310  PPPE      H13X           29.4582682905       -7.1699698653       -4.2153467756  MEMB      50              0.0000000000
     45233      1310  PPPE      H13Y           29.6455897499       -5.3817081803       -3.9052164205  MEMB      50              0.0000000000
     45234      1310  PPPE      C314           31.0775689214       -6.5801964898       -2.9757188523  MEMB      50              0.0000000000
     45235      1310  PPPE      H14X           31.8403496449       -5.7727362496       -2.9534808582  MEMB      50              0.0000000000
     45236      1310  PPPE      H14Y           31.6766870000       -7.5052231510       -3.1160905161  MEMB      50              0.0000000000
     45237      1310  PPPE      C315           30.4364501570       -6.7368362555       -1.6719851520  MEMB      50              0.0000000000
     45238      1310  PPPE      H15X           29.7420908113       -7.6041033441       -1.6778071921  MEMB      50              0.0000000000
     45239      1310  PPPE      H15Y           29.7848024343       -5.8609349433       -1.4658950341  MEMB      50              0.0000000000
     45240      1310  PPPE      C316           31.4586152711       -6.9288398815       -0.5078999027  MEMB      50              0.0000000000
     45241      1310  PPPE      H16X           32.0782904512       -6.0149950388       -0.3845659062  MEMB      50              0.0000000000
     45242      1310  PPPE      H16Y           30.8309220269       -7.2519756261        0.3499494324  MEMB      50              0.0000000000
     45243      1310  PPPE      H16Z           32.2009387810       -7.7357414678       -0.6873062483  MEMB      50              0.0000000000
     45244      1311  PPPE      N              27.2040215530       17.3903580623      -21.7552279293  MEMB      51              0.0000000000
     45245      1311  PPPE      HN1            27.0493965123       16.3956297300      -21.4940639162  MEMB      51              0.0000000000
     45246      1311  PPPE      HN2            26.4488547330       17.9184417414      -21.2730965138  MEMB      51              0.0000000000
     45247      1311  PPPE      HN3            27.1462379401       17.4894205159      -22.7888853602  MEMB      51              0.0000000000
     45248      1311  PPPE      C12            28.5482610166       17.7025925453      -21.2319957369  MEMB      51              0.0000000000
     45249      1311  PPPE      H12A           28.6663701897       18.8059582941      -21.1776335465  MEMB      51              0.0000000000
     45250      1311  PPPE      H12B           29.2887748925       17.4410174929      -22.0178320376  MEMB      51              0.0000000000
     45251      1311  PPPE      C11            28.9530564635       16.8983768107      -19.9942099607  MEMB      51              0.0000000000
     45252      1311  PPPE      H11A           29.9778128762       17.1862945780      -19.6759354661  MEMB      51              0.0000000000
     45253      1311  PPPE      H11B           29.0602854337       15.8102314385      -20.1910921508  MEMB      51              0.0000000000
     45254      1311  PPPE      P              27.8403445289       16.2634068551      -17.7940227570  MEMB      51              0.0000000000
     45255      1311  PPPE      O13            26.5686206486       16.5682490519      -16.9884503782  MEMB      51              0.0000000000
     45256      1311  PPPE      O14            27.8194241969       14.9369234764      -18.3957413958  MEMB      51              0.0000000000
     45257      1311  PPPE      O11            29.1421268462       16.3182009508      -16.8857716901  MEMB      51              0.0000000000
     45258      1311  PPPE      O12            28.0688431229       17.2931778482      -18.9545803980  MEMB      51              0.0000000000
     45259      1311  PPPE      C1             29.7720553372       17.5788300108      -16.7979115783  MEMB      51              0.0000000000
     45260      1311  PPPE      HA             29.1745705018       18.4992429202      -16.9716151982  MEMB      51              0.0000000000
     45261      1311  PPPE      HB             30.5893399181       17.6469628891      -17.5473946165  MEMB      51              0.0000000000
     45262      1311  PPPE      C2             30.4372035648       17.7584426408      -15.3302061400  MEMB      51              0.0000000000
     45263      1311  PPPE      HS             31.2941038362       18.4414597086      -15.5133197934  MEMB      51              0.0000000000
     45264      1311  PPPE      O21            30.8735709160       16.3983646654      -14.8820614600  MEMB      51              0.0000000000
     45265      1311  PPPE      C21            31.9258572138       16.3187480396      -14.0514402629  MEMB      51              0.0000000000
     45266      1311  PPPE      O22            32.6627735735       17.2093975149      -13.6904382854  MEMB      51              0.0000000000
     45267      1311  PPPE      C22            31.8848196642       14.9962180887      -13.3502075283  MEMB      51              0.0000000000
     45268      1311  PPPE      H2R            32.5154604447       14.9750402215      -12.4357871086  MEMB      51              0.0000000000
     45269      1311  PPPE      H2S            32.1792427636       14.2590927403      -14.1275634694  MEMB      51              0.0000000000
     45270      1311  PPPE      C3             29.4513213941       18.4171270280      -14.2813252419  MEMB      51              0.0000000000
     45271      1311  PPPE      HX             28.7176893626       18.9790142304      -14.8980811209  MEMB      51              0.0000000000
     45272      1311  PPPE      HY             28.9270166735       17.6148737678      -13.7193508061  MEMB      51              0.0000000000
     45273      1311  PPPE      O31            30.0614221375       19.3618207923      -13.4897344061  MEMB      51              0.0000000000
     45274      1311  PPPE      C31            29.4819943302       19.6804511955      -12.3652989669  MEMB      51              0.0000000000
     45275      1311  PPPE      O32            28.4373039225       19.2332505100      -11.9370254086  MEMB      51              0.0000000000
     45276      1311  PPPE      C32            30.2031611558       20.8606841021      -11.7550634021  MEMB      51              0.0000000000
     45277      1311  PPPE      H2X            29.4104647903       21.5018491893      -11.3136329963  MEMB      51              0.0000000000
     45278      1311  PPPE      H2Y            30.8546879936       21.3315511511      -12.5219519220  MEMB      51              0.0000000000
     45279      1311  PPPE      C23            30.4260057209       14.7221023259      -12.8815603183  MEMB      51              0.0000000000
     45280      1311  PPPE      H3R            30.3649679560       13.6252087127      -12.7159710901  MEMB      51              0.0000000000
     45281      1311  PPPE      H3S            29.6083099042       14.8863528173      -13.6155332928  MEMB      51              0.0000000000
     45282      1311  PPPE      C24            30.2256374724       15.5624656957      -11.5959601463  MEMB      51              0.0000000000
     45283      1311  PPPE      H4R            30.4670346875       16.6430553923      -11.6874713041  MEMB      51              0.0000000000
     45284      1311  PPPE      H4S            30.8728713202       15.1466000088      -10.7944209540  MEMB      51              0.0000000000
     45285      1311  PPPE      C25            28.7237770816       15.4381639865      -11.2155531077  MEMB      51              0.0000000000
     45286      1311  PPPE      H5R            28.5739871554       14.4034177650      -10.8398082004  MEMB      51              0.0000000000
     45287      1311  PPPE      H5S            28.0905465968       15.7779474812      -12.0628354277  MEMB      51              0.0000000000
     45288      1311  PPPE      C26            28.3473337871       16.2945835042      -10.0001261778  MEMB      51              0.0000000000
     45289      1311  PPPE      H6R            28.6842946838       17.3194743572      -10.2654129914  MEMB      51              0.0000000000
     45290      1311  PPPE      H6S            28.8912788579       15.9240086187       -9.1050736575  MEMB      51              0.0000000000
     45291      1311  PPPE      C27            26.7887208326       16.4628937814       -9.8365403513  MEMB      51              0.0000000000
     45292      1311  PPPE      H7R            26.3352278842       15.4552013485       -9.7215572808  MEMB      51              0.0000000000
     45293      1311  PPPE      H7S            26.3364213290       16.9876520392      -10.7050879493  MEMB      51              0.0000000000
     45294      1311  PPPE      C28            26.2903496169       17.3288638929       -8.6420759297  MEMB      51              0.0000000000
     45295      1311  PPPE      H8R            26.6147780921       16.8807961927       -7.6785913681  MEMB      51              0.0000000000
     45296      1311  PPPE      H8S            25.1893285196       17.1905988963       -8.6964481097  MEMB      51              0.0000000000
     45297      1311  PPPE      C29            26.6947864322       18.8477558731       -8.6375329758  MEMB      51              0.0000000000
     45298      1311  PPPE      H91            26.2200646817       19.5803567670       -9.3068125810  MEMB      51              0.0000000000
     45299      1311  PPPE      C210           27.6163620261       19.3368074933       -7.8321014942  MEMB      51              0.0000000000
     45300      1311  PPPE      H101           28.0197006417       20.3543620365       -7.9411918829  MEMB      51              0.0000000000
     45301      1311  PPPE      C211           28.4739985572       18.6396713705       -6.7694083396  MEMB      51              0.0000000000
     45302      1311  PPPE      H11R           29.5024464070       19.0156867288       -6.9571008294  MEMB      51              0.0000000000
     45303      1311  PPPE      H11S           28.5790341678       17.5578581568       -6.9995576201  MEMB      51              0.0000000000
     45304      1311  PPPE      C212           28.2655957311       18.9635093595       -5.3056098841  MEMB      51              0.0000000000
     45305      1311  PPPE      H12R           29.0853563571       18.3894208607       -4.8231827792  MEMB      51              0.0000000000
     45306      1311  PPPE      H12S           27.2502912025       18.5892638340       -5.0537805753  MEMB      51              0.0000000000
     45307      1311  PPPE      C213           28.4046560612       20.4084693333       -4.8392860894  MEMB      51              0.0000000000
     45308      1311  PPPE      H13R           27.7229714273       20.9422698798       -5.5354786175  MEMB      51              0.0000000000
     45309      1311  PPPE      H13S           29.4024175541       20.8272763876       -5.0910670547  MEMB      51              0.0000000000
     45310      1311  PPPE      C214           27.9974807073       20.7118015100       -3.3731617282  MEMB      51              0.0000000000
     45311      1311  PPPE      H14R           27.0010771389       20.2677842211       -3.1625683384  MEMB      51              0.0000000000
     45312      1311  PPPE      H14S           27.9593856037       21.8218828701       -3.3488895835  MEMB      51              0.0000000000
     45313      1311  PPPE      C215           29.0170372023       20.0658941530       -2.3690254719  MEMB      51              0.0000000000
     45314      1311  PPPE      H15R           30.0649092929       20.1570900794       -2.7267521617  MEMB      51              0.0000000000
     45315      1311  PPPE      H15S           28.9211293722       18.9590579587       -2.3629982811  MEMB      51              0.0000000000
     45316      1311  PPPE      C216           28.9239194570       20.5796189988       -0.9685848977  MEMB      51              0.0000000000
     45317      1311  PPPE      H16R           29.1636303432       21.6631133308       -0.9147358144  MEMB      51              0.0000000000
     45318      1311  PPPE      H16S           27.8773776307       20.3051435245       -0.7161281297  MEMB      51              0.0000000000
     45319      1311  PPPE      H16T           29.6817864725       20.0460399050       -0.3560067906  MEMB      51              0.0000000000
     45320      1311  PPPE      C33            31.0824068555       20.3139496781      -10.6001043342  MEMB      51              0.0000000000
     45321      1311  PPPE      H3X            30.5527870934       19.6104070653       -9.9227184030  MEMB      51              0.0000000000
     45322      1311  PPPE      H3Y            31.2893506486       21.2051475888       -9.9698174548  MEMB      51              0.0000000000
     45323      1311  PPPE      C34            32.4785135692       19.7743539742      -10.9569314025  MEMB      51              0.0000000000
     45324      1311  PPPE      H4X            33.0490776645       20.5855871284      -11.4576093257  MEMB      51              0.0000000000
     45325      1311  PPPE      H4Y            32.2698093522       18.9891514703      -11.7147048369  MEMB      51              0.0000000000
     45326      1311  PPPE      C35            33.3042331780       19.3200278533       -9.8059308736  MEMB      51              0.0000000000
     45327      1311  PPPE      H5X            33.7143690306       20.2150977306       -9.2911887079  MEMB      51              0.0000000000
     45328      1311  PPPE      H5Y            34.1331112137       18.7102939308      -10.2248661260  MEMB      51              0.0000000000
     45329      1311  PPPE      C36            32.6174679062       18.4914756108       -8.7164418005  MEMB      51              0.0000000000
     45330      1311  PPPE      H6X            32.2052349129       17.6679663822       -9.3379058055  MEMB      51              0.0000000000
     45331      1311  PPPE      H6Y            31.7577613791       18.9530509918       -8.1852414099  MEMB      51              0.0000000000
     45332      1311  PPPE      C37            33.5805860448       17.8744755400       -7.7081979897  MEMB      51              0.0000000000
     45333      1311  PPPE      H7X            34.4733378790       18.5307784053       -7.6270702413  MEMB      51              0.0000000000
     45334      1311  PPPE      H7Y            33.9722481127       17.0073705567       -8.2818274631  MEMB      51              0.0000000000
     45335      1311  PPPE      C38            32.9926209336       17.5740229313       -6.3065369515  MEMB      51              0.0000000000
     45336      1311  PPPE      H8X            32.3310299735       18.4172443656       -6.0139689863  MEMB      51              0.0000000000
     45337      1311  PPPE      H8Y            33.8910551996       17.6252657505       -5.6549918317  MEMB      51              0.0000000000
     45338      1311  PPPE      C39            32.1919010750       16.2383227026       -6.0602470082  MEMB      51              0.0000000000
     45339      1311  PPPE      H9X            32.9197408106       15.4097414743       -6.1944985155  MEMB      51              0.0000000000
     45340      1311  PPPE      H9Y            31.3455910043       16.2895641316       -6.7781986641  MEMB      51              0.0000000000
     45341      1311  PPPE      C310           31.5451999260       16.0686617346       -4.6385205383  MEMB      51              0.0000000000
     45342      1311  PPPE      H10X           31.1485213445       17.0538990286       -4.3125227204  MEMB      51              0.0000000000
     45343      1311  PPPE      H10Y           32.4017576182       15.9136667218       -3.9481536315  MEMB      51              0.0000000000
     45344      1311  PPPE      C311           30.6214173853       14.9046027855       -4.4632462632  MEMB      51              0.0000000000
     45345      1311  PPPE      H11X           30.9701619073       14.0025542061       -5.0100612399  MEMB      51              0.0000000000
     45346      1311  PPPE      H11Y           29.5917050685       15.0375098166       -4.8586565130  MEMB      51              0.0000000000
     45347      1311  PPPE      C312           30.3421931751       14.5277775630       -2.9411270932  MEMB      51              0.0000000000
     45348      1311  PPPE      H12X           29.9375626594       13.4969667909       -2.8515486468  MEMB      51              0.0000000000
     45349      1311  PPPE      H12Y           29.6042469365       15.2675040176       -2.5635544230  MEMB      51              0.0000000000
     45350      1311  PPPE      C313           31.5596286596       14.6599892176       -1.9626991112  MEMB      51              0.0000000000
     45351      1311  PPPE      H13X           31.9202039347       15.7073358985       -1.8768422473  MEMB      51              0.0000000000
     45352      1311  PPPE      H13Y           32.3431828038       14.0214616176       -2.4238351076  MEMB      51              0.0000000000
     45353      1311  PPPE      C314           31.1701721478       14.2040604443       -0.5357521588  MEMB      51              0.0000000000
     45354      1311  PPPE      H14X           32.0660848597       13.9264409042        0.0597214371  MEMB      51              0.0000000000
     45355      1311  PPPE      H14Y           30.6423444127       13.2265484689       -0.5495078900  MEMB      51              0.0000000000
     45356      1311  PPPE      C315           30.2964573677       15.1250957978        0.3098001300  MEMB      51              0.0000000000
     45357      1311  PPPE      H15X           29.7713254028       14.4614248453        1.0295905760  MEMB      51              0.0000000000
     45358      1311  PPPE      H15Y           29.4930124760       15.7168934748       -0.1786390326  MEMB      51              0.0000000000
     45359      1311  PPPE      C316           31.1491224567       16.1253823471        1.1275991542  MEMB      51              0.0000000000
     45360      1311  PPPE      H16X           31.9958591393       15.6122576888        1.6316438698  MEMB      51              0.0000000000
     45361      1311  PPPE      H16Y           31.5127412478       16.9527644940        0.4814249071  MEMB      51              0.0000000000
     45362      1311  PPPE      H16Z           30.4935071501       16.6474116404        1.8569653083  MEMB      51              0.0000000000
     45363      1312  PPPE      N             -32.3203097976      -14.8067631767      -19.3911035721  MEMB      52              0.0000000000
     45364      1312  PPPE      HN1           -32.7135463070      -15.0134791157      -18.4507666281  MEMB      52              0.0000000000
     45365      1312  PPPE      HN2           -32.0357213993      -13.8227797338      -19.5710647560  MEMB      52              0.0000000000
     45366      1312  PPPE      HN3           -32.8829747164      -15.2469445636      -20.1469134263  MEMB      52              0.0000000000
     45367      1312  PPPE      C12           -31.0171053007      -15.4908924831      -19.5451764555  MEMB      52              0.0000000000
     45368      1312  PPPE      H12A          -30.5536626262      -15.1507130654      -20.4958708602  MEMB      52              0.0000000000
     45369      1312  PPPE      H12B          -31.3065845403      -16.5628661939      -19.5825279381  MEMB      52              0.0000000000
     45370      1312  PPPE      C11           -30.1505920113      -15.1687078284      -18.3329429286  MEMB      52              0.0000000000
     45371      1312  PPPE      H11A          -29.3336552246      -15.9197669570      -18.3862858945  MEMB      52              0.0000000000
     45372      1312  PPPE      H11B          -30.5978837336      -15.4526709949      -17.3564102690  MEMB      52              0.0000000000
     45373      1312  PPPE      P             -28.3101546914      -13.6405215969      -18.9739087689  MEMB      52              0.0000000000
     45374      1312  PPPE      O13           -27.3017252903      -14.5263024534      -18.3808407458  MEMB      52              0.0000000000
     45375      1312  PPPE      O14           -28.4389662525      -13.7017023364      -20.4709204461  MEMB      52              0.0000000000
     45376      1312  PPPE      O11           -27.8021985781      -12.1495875463      -18.5835392382  MEMB      52              0.0000000000
     45377      1312  PPPE      O12           -29.7368656700      -13.8426337760      -18.3215679609  MEMB      52              0.0000000000
     45378      1312  PPPE      C1            -28.5783432518      -11.0921281515      -18.0585301579  MEMB      52              0.0000000000
     45379      1312  PPPE      HA            -29.5099126292      -10.9232878557      -18.6399013386  MEMB      52              0.0000000000
     45380      1312  PPPE      HB            -27.9601339910      -10.2325498714      -18.3950765740  MEMB      52              0.0000000000
     45381      1312  PPPE      C2            -28.5969573993      -11.1086086359      -16.5169996419  MEMB      52              0.0000000000
     45382      1312  PPPE      HS            -27.8297661319      -10.4188930756      -16.1046514818  MEMB      52              0.0000000000
     45383      1312  PPPE      O21           -28.4200705143      -12.4637152024      -16.1024862060  MEMB      52              0.0000000000
     45384      1312  PPPE      C21           -28.2135899334      -12.5974002724      -14.8370305136  MEMB      52              0.0000000000
     45385      1312  PPPE      O22           -27.9414649622      -11.6846647810      -14.0563743893  MEMB      52              0.0000000000
     45386      1312  PPPE      C22           -28.1479787233      -14.1140924660      -14.5333622892  MEMB      52              0.0000000000
     45387      1312  PPPE      H2R           -27.3848375333      -14.5522790911      -15.2115429478  MEMB      52              0.0000000000
     45388      1312  PPPE      H2S           -29.0295122154      -14.6727234575      -14.9143493197  MEMB      52              0.0000000000
     45389      1312  PPPE      C3            -29.8916101233      -10.4902771629      -15.9776403055  MEMB      52              0.0000000000
     45390      1312  PPPE      HX            -29.7001712869      -10.0933347657      -14.9577830090  MEMB      52              0.0000000000
     45391      1312  PPPE      HY            -30.0799947396       -9.6266706076      -16.6507049043  MEMB      52              0.0000000000
     45392      1312  PPPE      O31           -30.9325594785      -11.4241224467      -16.0412575185  MEMB      52              0.0000000000
     45393      1312  PPPE      C31           -31.6262010458      -11.7168263978      -14.9017720561  MEMB      52              0.0000000000
     45394      1312  PPPE      O32           -31.6946532145      -10.9449008794      -13.9187580415  MEMB      52              0.0000000000
     45395      1312  PPPE      C32           -32.3138851375      -13.1170808699      -14.9645987193  MEMB      52              0.0000000000
     45396      1312  PPPE      H2X           -31.8527841386      -13.7413185793      -15.7596044745  MEMB      52              0.0000000000
     45397      1312  PPPE      H2Y           -33.3621336384      -12.8984926382      -15.2607663498  MEMB      52              0.0000000000
     45398      1312  PPPE      C23           -28.0048255782      -14.4388123891      -13.0629746862  MEMB      52              0.0000000000
     45399      1312  PPPE      H3R           -28.8774678034      -13.9952353292      -12.5375644287  MEMB      52              0.0000000000
     45400      1312  PPPE      H3S           -27.1239171157      -13.9369291230      -12.6086240860  MEMB      52              0.0000000000
     45401      1312  PPPE      C24           -27.8588425305      -15.8699502886      -12.8300119551  MEMB      52              0.0000000000
     45402      1312  PPPE      H4R           -26.9523446014      -16.1661442528      -13.3999695325  MEMB      52              0.0000000000
     45403      1312  PPPE      H4S           -28.7250827675      -16.4025221362      -13.2775787983  MEMB      52              0.0000000000
     45404      1312  PPPE      C25           -27.4176282169      -16.1875211320      -11.3596781150  MEMB      52              0.0000000000
     45405      1312  PPPE      H5R           -27.2167950712      -15.2323135520      -10.8290506311  MEMB      52              0.0000000000
     45406      1312  PPPE      H5S           -26.4188358930      -16.6710327737      -11.3053514532  MEMB      52              0.0000000000
     45407      1312  PPPE      C26           -28.4284467265      -17.0049276797      -10.5269590014  MEMB      52              0.0000000000
     45408      1312  PPPE      H6R           -28.4766333416      -18.0034434145      -11.0116912755  MEMB      52              0.0000000000
     45409      1312  PPPE      H6S           -29.3883815682      -16.4488855207      -10.4664344848  MEMB      52              0.0000000000
     45410      1312  PPPE      C27           -27.9795733444      -17.4180983380       -9.1095648558  MEMB      52              0.0000000000
     45411      1312  PPPE      H7R           -26.9749102088      -17.8820194592       -9.2083078416  MEMB      52              0.0000000000
     45412      1312  PPPE      H7S           -28.7619602891      -18.1700923727       -8.8714542922  MEMB      52              0.0000000000
     45413      1312  PPPE      C28           -27.8404008592      -16.1811201224       -8.1968218879  MEMB      52              0.0000000000
     45414      1312  PPPE      H8R           -28.8839562221      -15.8046031721       -8.2563885776  MEMB      52              0.0000000000
     45415      1312  PPPE      H8S           -27.1219462636      -15.5212363840       -8.7285148877  MEMB      52              0.0000000000
     45416      1312  PPPE      C29           -27.4674844571      -16.6398220067       -6.8261825388  MEMB      52              0.0000000000
     45417      1312  PPPE      H91           -26.8629373308      -17.5544867866       -6.7372381038  MEMB      52              0.0000000000
     45418      1312  PPPE      C210          -27.5775961089      -15.8821286632       -5.7104772719  MEMB      52              0.0000000000
     45419      1312  PPPE      H101          -27.1261028287      -16.2341958681       -4.7712209165  MEMB      52              0.0000000000
     45420      1312  PPPE      C211          -28.0524398491      -14.4394238942       -5.5651336671  MEMB      52              0.0000000000
     45421      1312  PPPE      H11R          -27.8660455799      -13.8767213415       -6.5047846734  MEMB      52              0.0000000000
     45422      1312  PPPE      H11S          -27.4850656985      -13.8395633860       -4.8217798187  MEMB      52              0.0000000000
     45423      1312  PPPE      C212          -29.5995472330      -14.3313935214       -5.1985644018  MEMB      52              0.0000000000
     45424      1312  PPPE      H12R          -30.1883953314      -14.8803524650       -5.9642164084  MEMB      52              0.0000000000
     45425      1312  PPPE      H12S          -29.8279227501      -13.2469760002       -5.2773315466  MEMB      52              0.0000000000
     45426      1312  PPPE      C213          -29.9512962194      -14.7276137219       -3.7144442034  MEMB      52              0.0000000000
     45427      1312  PPPE      H13R          -29.8660230141      -15.8077613477       -3.4688213483  MEMB      52              0.0000000000
     45428      1312  PPPE      H13S          -31.0587244111      -14.6390032418       -3.7059599112  MEMB      52              0.0000000000
     45429      1312  PPPE      C214          -29.5622108303      -13.8180883844       -2.4708124226  MEMB      52              0.0000000000
     45430      1312  PPPE      H14R          -30.4166873915      -13.1081257274       -2.4828054218  MEMB      52              0.0000000000
     45431      1312  PPPE      H14S          -28.6067236226      -13.2852721111       -2.6643893192  MEMB      52              0.0000000000
     45432      1312  PPPE      C215          -29.5426782426      -14.6102291689       -1.1907110311  MEMB      52              0.0000000000
     45433      1312  PPPE      H15R          -29.1213264590      -15.6193235106       -1.3869565002  MEMB      52              0.0000000000
     45434      1312  PPPE      H15S          -30.6096997705      -14.7923377656       -0.9404661154  MEMB      52              0.0000000000
     45435      1312  PPPE      C216          -28.6281504692      -13.9947557517       -0.1160061105  MEMB      52              0.0000000000
     45436      1312  PPPE      H16R          -27.6140346018      -13.8891021569       -0.5572853026  MEMB      52              0.0000000000
     45437      1312  PPPE      H16S          -29.0209855405      -12.9677531761        0.0429508538  MEMB      52              0.0000000000
     45438      1312  PPPE      H16T          -28.6098951585      -14.6409952680        0.7875215488  MEMB      52              0.0000000000
     45439      1312  PPPE      C33           -32.3155800840      -13.7154971796      -13.5179874784  MEMB      52              0.0000000000
     45440      1312  PPPE      H3X           -32.8115132740      -12.9950563405      -12.8329062655  MEMB      52              0.0000000000
     45441      1312  PPPE      H3Y           -31.2353380609      -13.6836998573      -13.2603305320  MEMB      52              0.0000000000
     45442      1312  PPPE      C34           -32.8542810048      -15.1748090968      -13.4700399835  MEMB      52              0.0000000000
     45443      1312  PPPE      H4X           -32.2903619462      -15.7476392373      -14.2369701794  MEMB      52              0.0000000000
     45444      1312  PPPE      H4Y           -33.8943506448      -15.1739889962      -13.8606490864  MEMB      52              0.0000000000
     45445      1312  PPPE      C35           -32.5758425990      -15.9341756304      -12.2262403047  MEMB      52              0.0000000000
     45446      1312  PPPE      H5X           -33.3156587001      -15.4923775816      -11.5249503356  MEMB      52              0.0000000000
     45447      1312  PPPE      H5Y           -31.6159406884      -15.6716720000      -11.7322755629  MEMB      52              0.0000000000
     45448      1312  PPPE      C36           -32.9269717347      -17.4181186863      -12.4065076409  MEMB      52              0.0000000000
     45449      1312  PPPE      H6X           -32.5290291826      -17.8640244824      -13.3430602267  MEMB      52              0.0000000000
     45450      1312  PPPE      H6Y           -34.0200041102      -17.5227918669      -12.5757552456  MEMB      52              0.0000000000
     45451      1312  PPPE      C37           -32.3302461320      -18.2830868403      -11.2945598969  MEMB      52              0.0000000000
     45452      1312  PPPE      H7X           -31.2467486577      -18.1445595807      -11.0916697262  MEMB      52              0.0000000000
     45453      1312  PPPE      H7Y           -32.3068434064      -19.3620427340      -11.5584301149  MEMB      52              0.0000000000
     45454      1312  PPPE      C38           -33.1295787319      -18.2081930240      -10.0198979246  MEMB      52              0.0000000000
     45455      1312  PPPE      H8X           -33.7475201909      -19.0812280269       -9.7194328902  MEMB      52              0.0000000000
     45456      1312  PPPE      H8Y           -33.8048734068      -17.3323967768      -10.1261007282  MEMB      52              0.0000000000
     45457      1312  PPPE      C39           -32.3488144623      -17.6278637891       -8.8322370037  MEMB      52              0.0000000000
     45458      1312  PPPE      H9X           -31.8566376999      -16.6848496468       -9.1528728750  MEMB      52              0.0000000000
     45459      1312  PPPE      H9Y           -31.5944473811      -18.4297097740       -8.6829241669  MEMB      52              0.0000000000
     45460      1312  PPPE      C310          -33.0953635498      -17.3783350100       -7.4921976413  MEMB      52              0.0000000000
     45461      1312  PPPE      H10X          -33.3780540772      -18.3794845755       -7.1021891627  MEMB      52              0.0000000000
     45462      1312  PPPE      H10Y          -34.0243147776      -16.8038074223       -7.6953937708  MEMB      52              0.0000000000
     45463      1312  PPPE      C311          -32.2164148501      -16.6512063050       -6.4324619586  MEMB      52              0.0000000000
     45464      1312  PPPE      H11X          -32.1246623206      -15.5635893197       -6.6398065188  MEMB      52              0.0000000000
     45465      1312  PPPE      H11Y          -31.2005230965      -17.0079221840       -6.7063939332  MEMB      52              0.0000000000
     45466      1312  PPPE      C312          -32.4762236701      -16.9814118339       -4.9439841647  MEMB      52              0.0000000000
     45467      1312  PPPE      H12X          -31.4815110165      -16.7519778041       -4.5055462983  MEMB      52              0.0000000000
     45468      1312  PPPE      H12Y          -32.6773262764      -18.0712073787       -4.8650892195  MEMB      52              0.0000000000
     45469      1312  PPPE      C313          -33.6442710663      -16.1162914776       -4.4597639289  MEMB      52              0.0000000000
     45470      1312  PPPE      H13X          -34.5925890864      -16.5473160587       -4.8460691752  MEMB      52              0.0000000000
     45471      1312  PPPE      H13Y          -33.5341939245      -15.0823127343       -4.8510336327  MEMB      52              0.0000000000
     45472      1312  PPPE      C314          -33.7972751414      -16.0218094679       -2.9440415303  MEMB      52              0.0000000000
     45473      1312  PPPE      H14X          -32.8182330222      -15.7467026457       -2.4967007594  MEMB      52              0.0000000000
     45474      1312  PPPE      H14Y          -33.9345125704      -16.9883440256       -2.4136663454  MEMB      52              0.0000000000
     45475      1312  PPPE      C315          -34.8651022609      -15.0364156499       -2.4225713143  MEMB      52              0.0000000000
     45476      1312  PPPE      H15X          -35.8173648511      -15.5918352308       -2.2846363717  MEMB      52              0.0000000000
     45477      1312  PPPE      H15Y          -35.0755743788      -14.3055292327       -3.2324031071  MEMB      52              0.0000000000
     45478      1312  PPPE      C316          -34.4791259089      -14.2472363075       -1.2051984624  MEMB      52              0.0000000000
     45479      1312  PPPE      H16X          -33.6322608083      -13.5882242133       -1.4930240364  MEMB      52              0.0000000000
     45480      1312  PPPE      H16Y          -35.3820485421      -13.6578276676       -0.9375248293  MEMB      52              0.0000000000
     45481      1312  PPPE      H16Z          -34.2551468704      -14.9992577506       -0.4186756468  MEMB      52              0.0000000000
     45482      1313  PPPE      N              15.2045996273      -31.3937995824      -19.8544804328  MEMB      53              0.0000000000
     45483      1313  PPPE      HN1            14.4818356727      -32.0640327110      -20.1861426393  MEMB      53              0.0000000000
     45484      1313  PPPE      HN2            15.2044395951      -30.5155001083      -20.4114274755  MEMB      53              0.0000000000
     45485      1313  PPPE      HN3            16.1265133207      -31.8683043271      -19.9352293582  MEMB      53              0.0000000000
     45486      1313  PPPE      C12            14.9840315233      -31.0156923262      -18.3834154224  MEMB      53              0.0000000000
     45487      1313  PPPE      H12A           15.9579853409      -30.5356629208      -18.1482415907  MEMB      53              0.0000000000
     45488      1313  PPPE      H12B           14.8621698216      -31.9366792073      -17.7741093495  MEMB      53              0.0000000000
     45489      1313  PPPE      C11            13.8270363580      -30.1088367556      -18.0188688900  MEMB      53              0.0000000000
     45490      1313  PPPE      H11A           13.9086444726      -29.0253106306      -18.2504552709  MEMB      53              0.0000000000
     45491      1313  PPPE      H11B           13.8097730801      -30.0729306568      -16.9085834622  MEMB      53              0.0000000000
     45492      1313  PPPE      P              11.6174177805      -29.9831494657      -19.2206071064  MEMB      53              0.0000000000
     45493      1313  PPPE      O13            12.0139604076      -29.6441476612      -20.5853071537  MEMB      53              0.0000000000
     45494      1313  PPPE      O14            10.3051208873      -30.6165683785      -19.0263923404  MEMB      53              0.0000000000
     45495      1313  PPPE      O11            11.5995891755      -28.5871859011      -18.4253480944  MEMB      53              0.0000000000
     45496      1313  PPPE      O12            12.6861042853      -30.7884455414      -18.4855803272  MEMB      53              0.0000000000
     45497      1313  PPPE      C1             10.5183076208      -27.6877732771      -18.7371612401  MEMB      53              0.0000000000
     45498      1313  PPPE      HA              9.5407330145      -28.1927747205      -18.8909221951  MEMB      53              0.0000000000
     45499      1313  PPPE      HB             10.7731177889      -27.0862632811      -19.6358149570  MEMB      53              0.0000000000
     45500      1313  PPPE      C2             10.3501445791      -26.6679978103      -17.6279448436  MEMB      53              0.0000000000
     45501      1313  PPPE      HS              9.7633302396      -25.8057417669      -18.0106777096  MEMB      53              0.0000000000
     45502      1313  PPPE      O21            11.6283723337      -26.1419937889      -17.2010673349  MEMB      53              0.0000000000
     45503      1313  PPPE      C21            11.5605414355      -25.2019549334      -16.2502728646  MEMB      53              0.0000000000
     45504      1313  PPPE      O22            10.6009276276      -24.5051486077      -15.9663881076  MEMB      53              0.0000000000
     45505      1313  PPPE      C22            12.8898280554      -25.0726282176      -15.4450438255  MEMB      53              0.0000000000
     45506      1313  PPPE      H2R            12.6658586946      -25.0200617617      -14.3581236383  MEMB      53              0.0000000000
     45507      1313  PPPE      H2S            13.3733481842      -24.1175759498      -15.7423726852  MEMB      53              0.0000000000
     45508      1313  PPPE      C3              9.4911204414      -27.2721413050      -16.4435663447  MEMB      53              0.0000000000
     45509      1313  PPPE      HX              9.2677973698      -26.5022299862      -15.6743561218  MEMB      53              0.0000000000
     45510      1313  PPPE      HY              8.5106495838      -27.6257646202      -16.8282070190  MEMB      53              0.0000000000
     45511      1313  PPPE      O31            10.1114916507      -28.4332569221      -15.8669923455  MEMB      53              0.0000000000
     45512      1313  PPPE      C31             9.6967799517      -28.7810825790      -14.5810159705  MEMB      53              0.0000000000
     45513      1313  PPPE      O32             8.8453237444      -28.1894023242      -13.9333055905  MEMB      53              0.0000000000
     45514      1313  PPPE      C32            10.5161856644      -29.9772096677      -14.0862681049  MEMB      53              0.0000000000
     45515      1313  PPPE      H2X            11.4295224020      -30.1979992223      -14.6790488201  MEMB      53              0.0000000000
     45516      1313  PPPE      H2Y             9.8542387644      -30.8253218035      -14.3634920337  MEMB      53              0.0000000000
     45517      1313  PPPE      C23            13.9601312836      -26.1151314681      -15.7027180358  MEMB      53              0.0000000000
     45518      1313  PPPE      H3R            14.2887884184      -25.8643652980      -16.7339414916  MEMB      53              0.0000000000
     45519      1313  PPPE      H3S            13.5015948021      -27.1260416346      -15.7488258490  MEMB      53              0.0000000000
     45520      1313  PPPE      C24            15.1820662304      -26.1062647448      -14.8307655559  MEMB      53              0.0000000000
     45521      1313  PPPE      H4R            15.6070949981      -25.0965894871      -14.6457590137  MEMB      53              0.0000000000
     45522      1313  PPPE      H4S            15.9762561927      -26.6746168377      -15.3604439510  MEMB      53              0.0000000000
     45523      1313  PPPE      C25            15.0724500358      -26.8086525662      -13.4431984720  MEMB      53              0.0000000000
     45524      1313  PPPE      H5R            16.1211800879      -26.8894235494      -13.0854802504  MEMB      53              0.0000000000
     45525      1313  PPPE      H5S            14.6262500315      -27.8236775923      -13.5135600557  MEMB      53              0.0000000000
     45526      1313  PPPE      C26            14.3353343389      -26.0189059234      -12.3627331798  MEMB      53              0.0000000000
     45527      1313  PPPE      H6R            13.2811735561      -25.9838833603      -12.7117882813  MEMB      53              0.0000000000
     45528      1313  PPPE      H6S            14.7133964429      -24.9835159720      -12.2236012492  MEMB      53              0.0000000000
     45529      1313  PPPE      C27            14.4898885936      -26.7353256467      -11.0795277169  MEMB      53              0.0000000000
     45530      1313  PPPE      H7R            15.5264628392      -26.7810668117      -10.6823595165  MEMB      53              0.0000000000
     45531      1313  PPPE      H7S            14.2856954374      -27.8144498872      -11.2472090471  MEMB      53              0.0000000000
     45532      1313  PPPE      C28            13.5424350392      -26.2413760525       -9.9085168434  MEMB      53              0.0000000000
     45533      1313  PPPE      H8R            13.4326692796      -26.9879582303       -9.0931104846  MEMB      53              0.0000000000
     45534      1313  PPPE      H8S            12.5289624697      -26.2711970899      -10.3627250076  MEMB      53              0.0000000000
     45535      1313  PPPE      C29            13.6982597951      -24.8493204075       -9.2586110905  MEMB      53              0.0000000000
     45536      1313  PPPE      H91            14.3582978775      -24.1315030504       -9.7676179387  MEMB      53              0.0000000000
     45537      1313  PPPE      C210           13.1039136193      -24.3415945423       -8.1312098363  MEMB      53              0.0000000000
     45538      1313  PPPE      H101           13.4330976983      -23.3321406320       -7.8437369762  MEMB      53              0.0000000000
     45539      1313  PPPE      C211           12.0812946627      -25.0652611985       -7.2482011378  MEMB      53              0.0000000000
     45540      1313  PPPE      H11R           11.6764420015      -25.9407857380       -7.7994470934  MEMB      53              0.0000000000
     45541      1313  PPPE      H11S           11.2025774710      -24.4257469853       -7.0175527733  MEMB      53              0.0000000000
     45542      1313  PPPE      C212           12.3768873962      -25.6088625795       -5.8331721985  MEMB      53              0.0000000000
     45543      1313  PPPE      H12R           12.6705635022      -26.6461852763       -6.1015692319  MEMB      53              0.0000000000
     45544      1313  PPPE      H12S           11.5012444237      -25.5922730714       -5.1495822826  MEMB      53              0.0000000000
     45545      1313  PPPE      C213           13.4240298268      -24.8253934639       -5.1830959704  MEMB      53              0.0000000000
     45546      1313  PPPE      H13R           13.1916147948      -23.7404734336       -5.1260628167  MEMB      53              0.0000000000
     45547      1313  PPPE      H13S           14.3790976127      -25.0060104227       -5.7211889351  MEMB      53              0.0000000000
     45548      1313  PPPE      C214           13.6504770814      -25.1994740273       -3.6774517435  MEMB      53              0.0000000000
     45549      1313  PPPE      H14R           14.6991778254      -24.9832254074       -3.3811676167  MEMB      53              0.0000000000
     45550      1313  PPPE      H14S           13.5406015331      -26.2944442361       -3.5248456950  MEMB      53              0.0000000000
     45551      1313  PPPE      C215           12.7247568402      -24.4548567137       -2.6394456636  MEMB      53              0.0000000000
     45552      1313  PPPE      H15R           11.6808987008      -24.3734415603       -3.0110001788  MEMB      53              0.0000000000
     45553      1313  PPPE      H15S           13.1049669356      -23.4126049396       -2.5805175490  MEMB      53              0.0000000000
     45554      1313  PPPE      C216           12.7305456251      -25.0614471890       -1.2097811536  MEMB      53              0.0000000000
     45555      1313  PPPE      H16R           12.5438467137      -26.1507870497       -1.3229323114  MEMB      53              0.0000000000
     45556      1313  PPPE      H16S           13.7348417656      -24.9910654455       -0.7399336546  MEMB      53              0.0000000000
     45557      1313  PPPE      H16T           11.9080701443      -24.5427160096       -0.6724050776  MEMB      53              0.0000000000
     45558      1313  PPPE      C33            10.7606135397      -29.7419996214      -12.5664187276  MEMB      53              0.0000000000
     45559      1313  PPPE      H3X            10.0976731754      -29.0244968642      -12.0372487485  MEMB      53              0.0000000000
     45560      1313  PPPE      H3Y            11.8182469900      -29.4030979770      -12.5367849583  MEMB      53              0.0000000000
     45561      1313  PPPE      C34            10.6779086622      -30.9939417287      -11.7184139038  MEMB      53              0.0000000000
     45562      1313  PPPE      H4X            11.0639333720      -31.8527884173      -12.3080648929  MEMB      53              0.0000000000
     45563      1313  PPPE      H4Y             9.6123434221      -31.2114869608      -11.4913328805  MEMB      53              0.0000000000
     45564      1313  PPPE      C35            11.3344064300      -31.0116498583      -10.3120116349  MEMB      53              0.0000000000
     45565      1313  PPPE      H5X            12.4100798486      -31.2889677297      -10.3305182497  MEMB      53              0.0000000000
     45566      1313  PPPE      H5Y            11.0099000657      -31.7971656583       -9.5964827763  MEMB      53              0.0000000000
     45567      1313  PPPE      C36            11.0881083502      -29.6789148513       -9.4133166425  MEMB      53              0.0000000000
     45568      1313  PPPE      H6X            11.5815800744      -28.8120928828       -9.9026287436  MEMB      53              0.0000000000
     45569      1313  PPPE      H6Y            11.6285064670      -30.0038469498       -8.4985981030  MEMB      53              0.0000000000
     45570      1313  PPPE      C37             9.6469375697      -29.5049511037       -8.8496397739  MEMB      53              0.0000000000
     45571      1313  PPPE      H7X             9.3128182375      -30.5293816094       -8.5790341366  MEMB      53              0.0000000000
     45572      1313  PPPE      H7Y             9.0811756130      -29.2974779380       -9.7830149899  MEMB      53              0.0000000000
     45573      1313  PPPE      C38             9.2569923709      -28.4159896989       -7.8731478244  MEMB      53              0.0000000000
     45574      1313  PPPE      H8X             8.1524797289      -28.5358699103       -7.8718993444  MEMB      53              0.0000000000
     45575      1313  PPPE      H8Y             9.4896069379      -27.3992936876       -8.2559541511  MEMB      53              0.0000000000
     45576      1313  PPPE      C39             9.8497326095      -28.5371887713       -6.4734664068  MEMB      53              0.0000000000
     45577      1313  PPPE      H9X            10.9493717873      -28.3918545030       -6.5366536606  MEMB      53              0.0000000000
     45578      1313  PPPE      H9Y             9.7284634163      -29.5783253805       -6.1051603603  MEMB      53              0.0000000000
     45579      1313  PPPE      C310            9.1862548764      -27.5182385965       -5.5765699433  MEMB      53              0.0000000000
     45580      1313  PPPE      H10X            8.0813662245      -27.6134030570       -5.6435460012  MEMB      53              0.0000000000
     45581      1313  PPPE      H10Y            9.4991492593      -26.5413854908       -6.0033908835  MEMB      53              0.0000000000
     45582      1313  PPPE      C311            9.6334822554      -27.5239030488       -4.0708697679  MEMB      53              0.0000000000
     45583      1313  PPPE      H11X            9.1248707503      -26.6682956474       -3.5773403245  MEMB      53              0.0000000000
     45584      1313  PPPE      H11Y           10.7425496875      -27.4584722403       -4.0678299658  MEMB      53              0.0000000000
     45585      1313  PPPE      C312            9.3276543320      -28.8216976927       -3.2866486540  MEMB      53              0.0000000000
     45586      1313  PPPE      H12X            9.3150602969      -29.7743926445       -3.8580808189  MEMB      53              0.0000000000
     45587      1313  PPPE      H12Y            8.3356203404      -28.7904057957       -2.7874389019  MEMB      53              0.0000000000
     45588      1313  PPPE      C313           10.2627125442      -29.0009154698       -2.0672366672  MEMB      53              0.0000000000
     45589      1313  PPPE      H13X            9.7495278900      -29.5161511328       -1.2272993348  MEMB      53              0.0000000000
     45590      1313  PPPE      H13Y           10.5376755399      -27.9719697567       -1.7510293457  MEMB      53              0.0000000000
     45591      1313  PPPE      C314           11.5229543671      -29.7476309724       -2.4243462420  MEMB      53              0.0000000000
     45592      1313  PPPE      H14X           12.1426579077      -29.0273466873       -3.0000884328  MEMB      53              0.0000000000
     45593      1313  PPPE      H14Y           11.3544854724      -30.6865068190       -2.9939525765  MEMB      53              0.0000000000
     45594      1313  PPPE      C315           12.1857020578      -30.1171052208       -1.1005321640  MEMB      53              0.0000000000
     45595      1313  PPPE      H15X           11.5026213095      -30.8600542133       -0.6360448271  MEMB      53              0.0000000000
     45596      1313  PPPE      H15Y           12.2114419577      -29.2981368568       -0.3502327063  MEMB      53              0.0000000000
     45597      1313  PPPE      C316           13.6319575590      -30.6790849583       -1.2535853516  MEMB      53              0.0000000000
     45598      1313  PPPE      H16X           14.2863874902      -29.8301765219       -1.5458128859  MEMB      53              0.0000000000
     45599      1313  PPPE      H16Y           13.9337443312      -31.2042341124       -0.3222078180  MEMB      53              0.0000000000
     45600      1313  PPPE      H16Z           13.7497305233      -31.4682788776       -2.0266464660  MEMB      53              0.0000000000
     45601      1314  PPPE      N              29.8419332444      -16.6261924713      -21.5306459712  MEMB      54              0.0000000000
     45602      1314  PPPE      HN1            30.7027626931      -16.0523255243      -21.6367091013  MEMB      54              0.0000000000
     45603      1314  PPPE      HN2            29.9316511240      -17.5504327889      -21.9989733538  MEMB      54              0.0000000000
     45604      1314  PPPE      HN3            29.0001059443      -16.1112427693      -21.8589044079  MEMB      54              0.0000000000
     45605      1314  PPPE      C12            29.7859601292      -16.8663354400      -20.0980655339  MEMB      54              0.0000000000
     45606      1314  PPPE      H12A           30.7682494075      -16.9391411785      -19.5841315907  MEMB      54              0.0000000000
     45607      1314  PPPE      H12B           29.2540912500      -17.8400314884      -20.0401647491  MEMB      54              0.0000000000
     45608      1314  PPPE      C11            29.0827271840      -15.6430781070      -19.4379270286  MEMB      54              0.0000000000
     45609      1314  PPPE      H11A           28.5592168324      -16.0182614874      -18.5326672079  MEMB      54              0.0000000000
     45610      1314  PPPE      H11B           28.3363611767      -15.1660467027      -20.1085236454  MEMB      54              0.0000000000
     45611      1314  PPPE      P              29.6219233676      -13.4087075692      -18.1725559961  MEMB      54              0.0000000000
     45612      1314  PPPE      O13            30.9069799800      -12.9004054646      -17.6209466872  MEMB      54              0.0000000000
     45613      1314  PPPE      O14            28.8044096781      -12.5374911643      -19.0466201174  MEMB      54              0.0000000000
     45614      1314  PPPE      O11            28.7511199572      -14.0250835975      -17.0488478093  MEMB      54              0.0000000000
     45615      1314  PPPE      O12            30.0709304735      -14.6538158273      -19.0443909466  MEMB      54              0.0000000000
     45616      1314  PPPE      C1             27.3146861040      -13.9366103872      -17.1445398028  MEMB      54              0.0000000000
     45617      1314  PPPE      HA             26.8713308222      -14.7577371372      -16.5416235943  MEMB      54              0.0000000000
     45618      1314  PPPE      HB             26.9087308741      -14.0482446892      -18.1726736141  MEMB      54              0.0000000000
     45619      1314  PPPE      C2             26.9399328288      -12.6186879905      -16.4371717959  MEMB      54              0.0000000000
     45620      1314  PPPE      HS             27.2065162486      -11.7701218852      -17.1028968483  MEMB      54              0.0000000000
     45621      1314  PPPE      O21            27.7180127270      -12.5838507915      -15.2035217063  MEMB      54              0.0000000000
     45622      1314  PPPE      C21            27.6397381725      -11.4857165459      -14.5471091050  MEMB      54              0.0000000000
     45623      1314  PPPE      O22            27.1854625041      -10.4419719908      -14.9217737453  MEMB      54              0.0000000000
     45624      1314  PPPE      C22            28.3119214049      -11.6398877252      -13.1890274049  MEMB      54              0.0000000000
     45625      1314  PPPE      H2R            27.6690125729      -11.0703710398      -12.4843005224  MEMB      54              0.0000000000
     45626      1314  PPPE      H2S            29.2794768256      -11.1013724868      -13.2793537340  MEMB      54              0.0000000000
     45627      1314  PPPE      C3             25.4184334894      -12.5460172952      -16.1152055097  MEMB      54              0.0000000000
     45628      1314  PPPE      HX             25.1423992567      -11.5629902315      -15.6772741289  MEMB      54              0.0000000000
     45629      1314  PPPE      HY             24.8492331229      -12.6759220195      -17.0604338976  MEMB      54              0.0000000000
     45630      1314  PPPE      O31            25.1469175824      -13.7424912390      -15.2664091767  MEMB      54              0.0000000000
     45631      1314  PPPE      C31            24.8870454780      -13.4718064166      -13.9761708914  MEMB      54              0.0000000000
     45632      1314  PPPE      O32            24.7748533073      -12.3644978408      -13.5513232153  MEMB      54              0.0000000000
     45633      1314  PPPE      C32            24.9533076208      -14.7665835357      -13.1395048099  MEMB      54              0.0000000000
     45634      1314  PPPE      H2X            25.8618153369      -15.2135858780      -13.5968051878  MEMB      54              0.0000000000
     45635      1314  PPPE      H2Y            24.0709830338      -15.4046634807      -13.3601364187  MEMB      54              0.0000000000
     45636      1314  PPPE      C23            28.4779321544      -12.9909485495      -12.6171582976  MEMB      54              0.0000000000
     45637      1314  PPPE      H3R            29.1457493668      -13.6174281865      -13.2463358839  MEMB      54              0.0000000000
     45638      1314  PPPE      H3S            27.5195543540      -13.5527312288      -12.6018869868  MEMB      54              0.0000000000
     45639      1314  PPPE      C24            29.1421774031      -13.0234799256      -11.1965184949  MEMB      54              0.0000000000
     45640      1314  PPPE      H4R            28.5889624227      -12.2989220478      -10.5614672630  MEMB      54              0.0000000000
     45641      1314  PPPE      H4S            30.1574622546      -12.5958604401      -11.3402517409  MEMB      54              0.0000000000
     45642      1314  PPPE      C25            29.3013989101      -14.3171714656      -10.4380604646  MEMB      54              0.0000000000
     45643      1314  PPPE      H5R            29.9600889354      -14.9605239201      -11.0597887572  MEMB      54              0.0000000000
     45644      1314  PPPE      H5S            28.3526497842      -14.8927653367      -10.3843222881  MEMB      54              0.0000000000
     45645      1314  PPPE      C26            29.9497722227      -14.1776172870       -9.0304481953  MEMB      54              0.0000000000
     45646      1314  PPPE      H6R            29.1310763394      -13.7899200682       -8.3872150204  MEMB      54              0.0000000000
     45647      1314  PPPE      H6S            30.7658609194      -13.4385137390       -8.8819686201  MEMB      54              0.0000000000
     45648      1314  PPPE      C27            30.2903703446      -15.4401201788       -8.2450635359  MEMB      54              0.0000000000
     45649      1314  PPPE      H7R            30.6729048802      -15.1112129512       -7.2552108374  MEMB      54              0.0000000000
     45650      1314  PPPE      H7S            31.1599948301      -15.8734838368       -8.7838308273  MEMB      54              0.0000000000
     45651      1314  PPPE      C28            29.0716278895      -16.3856495529       -8.0737222485  MEMB      54              0.0000000000
     45652      1314  PPPE      H8R            28.6515842725      -16.5882324777       -9.0821093360  MEMB      54              0.0000000000
     45653      1314  PPPE      H8S            28.2212168976      -15.8131998034       -7.6454426330  MEMB      54              0.0000000000
     45654      1314  PPPE      C29            29.4039223009      -17.6164287831       -7.3635440246  MEMB      54              0.0000000000
     45655      1314  PPPE      H91            29.7417826365      -18.4172598875       -8.0377249616  MEMB      54              0.0000000000
     45656      1314  PPPE      C210           29.1362294060      -17.8130722301       -5.9993071104  MEMB      54              0.0000000000
     45657      1314  PPPE      H101           29.4700988942      -18.7621747684       -5.5546324688  MEMB      54              0.0000000000
     45658      1314  PPPE      C211           28.5354142679      -16.8744558095       -4.9608718560  MEMB      54              0.0000000000
     45659      1314  PPPE      H11R           27.4702570696      -16.8334955681       -5.2740545528  MEMB      54              0.0000000000
     45660      1314  PPPE      H11S           28.8410839658      -15.8063327083       -4.9605955326  MEMB      54              0.0000000000
     45661      1314  PPPE      C212           28.5385064275      -17.4694287082       -3.6355421201  MEMB      54              0.0000000000
     45662      1314  PPPE      H12R           29.6288948231      -17.5917692168       -3.4611662425  MEMB      54              0.0000000000
     45663      1314  PPPE      H12S           28.2064939442      -18.5277315294       -3.6994471245  MEMB      54              0.0000000000
     45664      1314  PPPE      C213           27.9458541684      -16.5820058723       -2.5373191482  MEMB      54              0.0000000000
     45665      1314  PPPE      H13R           26.8735711034      -16.7560182964       -2.7702348081  MEMB      54              0.0000000000
     45666      1314  PPPE      H13S           28.2333401599      -15.5256774534       -2.7266418259  MEMB      54              0.0000000000
     45667      1314  PPPE      C214           28.1640917077      -16.9767798352       -1.0376521095  MEMB      54              0.0000000000
     45668      1314  PPPE      H14R           29.2521688301      -16.8750456439       -0.8375038392  MEMB      54              0.0000000000
     45669      1314  PPPE      H14S           28.0897144347      -18.0852649303       -1.0305941194  MEMB      54              0.0000000000
     45670      1314  PPPE      C215           27.4373139210      -16.1136198741        0.0920816043  MEMB      54              0.0000000000
     45671      1314  PPPE      H15R           27.7670108196      -16.5649291796        1.0522591221  MEMB      54              0.0000000000
     45672      1314  PPPE      H15S           26.3500656841      -16.2747351221       -0.0699497139  MEMB      54              0.0000000000
     45673      1314  PPPE      C216           27.7390322999      -14.6138407277       -0.0622763501  MEMB      54              0.0000000000
     45674      1314  PPPE      H16R           27.4221183238      -14.0338718621        0.8307648845  MEMB      54              0.0000000000
     45675      1314  PPPE      H16S           28.8385930438      -14.4760794307        0.0171528360  MEMB      54              0.0000000000
     45676      1314  PPPE      H16T           27.4511096164      -14.1191079564       -1.0144638387  MEMB      54              0.0000000000
     45677      1314  PPPE      C33            24.8474042692      -14.3261667626      -11.6666304233  MEMB      54              0.0000000000
     45678      1314  PPPE      H3X            23.9573558600      -13.6704689850      -11.5561983000  MEMB      54              0.0000000000
     45679      1314  PPPE      H3Y            25.8250040392      -13.8212689875      -11.5126891151  MEMB      54              0.0000000000
     45680      1314  PPPE      C34            24.6684504614      -15.4214304429      -10.6170024898  MEMB      54              0.0000000000
     45681      1314  PPPE      H4X            25.2861809971      -16.3250371193      -10.8073310466  MEMB      54              0.0000000000
     45682      1314  PPPE      H4Y            23.5780645733      -15.6335783889      -10.5976928001  MEMB      54              0.0000000000
     45683      1314  PPPE      C35            25.2008739373      -14.8915529530       -9.2276181918  MEMB      54              0.0000000000
     45684      1314  PPPE      H5X            26.3077569142      -14.8540623880       -9.3155132023  MEMB      54              0.0000000000
     45685      1314  PPPE      H5Y            24.9999411094      -15.6864367951       -8.4778804536  MEMB      54              0.0000000000
     45686      1314  PPPE      C36            24.6175102810      -13.5519780322       -8.7424766690  MEMB      54              0.0000000000
     45687      1314  PPPE      H6X            23.5679766052      -13.5115644275       -9.1046462481  MEMB      54              0.0000000000
     45688      1314  PPPE      H6Y            25.0863176928      -12.6660451621       -9.2217089303  MEMB      54              0.0000000000
     45689      1314  PPPE      C37            24.5225145306      -13.0718112727       -7.2673929555  MEMB      54              0.0000000000
     45690      1314  PPPE      H7X            23.7991517830      -13.6843076260       -6.6878107329  MEMB      54              0.0000000000
     45691      1314  PPPE      H7Y            24.2077380241      -12.0063459734       -7.2628711227  MEMB      54              0.0000000000
     45692      1314  PPPE      C38            25.8242713238      -12.9666800671       -6.4405955995  MEMB      54              0.0000000000
     45693      1314  PPPE      H8X            26.2307282481      -13.9628341191       -6.1634839375  MEMB      54              0.0000000000
     45694      1314  PPPE      H8Y            25.5559341387      -12.4974851331       -5.4699400123  MEMB      54              0.0000000000
     45695      1314  PPPE      C39            27.0612723367      -12.2069758693       -6.9733360181  MEMB      54              0.0000000000
     45696      1314  PPPE      H9X            26.9384226130      -11.1098471908       -7.0979859614  MEMB      54              0.0000000000
     45697      1314  PPPE      H9Y            27.2866545237      -12.6173248194       -7.9808763939  MEMB      54              0.0000000000
     45698      1314  PPPE      C310           28.3057087432      -12.4395743108       -6.0131308596  MEMB      54              0.0000000000
     45699      1314  PPPE      H10X           29.2478367171      -12.4323704456       -6.6019126402  MEMB      54              0.0000000000
     45700      1314  PPPE      H10Y           28.1795160269      -13.4475967754       -5.5633674671  MEMB      54              0.0000000000
     45701      1314  PPPE      C311           28.5213256708      -11.4400055862       -4.8553110679  MEMB      54              0.0000000000
     45702      1314  PPPE      H11X           27.6914415203      -11.7030552517       -4.1650805483  MEMB      54              0.0000000000
     45703      1314  PPPE      H11Y           28.3626043021      -10.4038000796       -5.2232875279  MEMB      54              0.0000000000
     45704      1314  PPPE      C312           29.9656451953      -11.4487068210       -4.1675327059  MEMB      54              0.0000000000
     45705      1314  PPPE      H12X           29.9434663400      -10.6691513005       -3.3762538114  MEMB      54              0.0000000000
     45706      1314  PPPE      H12Y           30.8290454330      -11.1717979988       -4.8095471401  MEMB      54              0.0000000000
     45707      1314  PPPE      C313           30.0023229334      -12.7960093378       -3.4237862623  MEMB      54              0.0000000000
     45708      1314  PPPE      H13X           30.5506542461      -13.5307252615       -4.0513579977  MEMB      54              0.0000000000
     45709      1314  PPPE      H13Y           28.9357009012      -13.0677584675       -3.2728198720  MEMB      54              0.0000000000
     45710      1314  PPPE      C314           30.5969693638      -12.7022991683       -1.9817075590  MEMB      54              0.0000000000
     45711      1314  PPPE      H14X           31.6397976322      -12.3268436126       -2.0582799305  MEMB      54              0.0000000000
     45712      1314  PPPE      H14Y           30.5999059203      -13.7013558754       -1.4957054268  MEMB      54              0.0000000000
     45713      1314  PPPE      C315           29.9359669780      -11.8473715264       -0.9605604070  MEMB      54              0.0000000000
     45714      1314  PPPE      H15X           28.9700423913      -12.3933814083       -0.9041343337  MEMB      54              0.0000000000
     45715      1314  PPPE      H15Y           29.7566963841      -10.8344675034       -1.3803323623  MEMB      54              0.0000000000
     45716      1314  PPPE      C316           30.5139675448      -11.8977469902        0.4668407411  MEMB      54              0.0000000000
     45717      1314  PPPE      H16X           29.6897361792      -11.4860146734        1.0876790094  MEMB      54              0.0000000000
     45718      1314  PPPE      H16Y           30.9256947413      -12.8607342186        0.8375931028  MEMB      54              0.0000000000
     45719      1314  PPPE      H16Z           31.3287030493      -11.1424236515        0.4705436414  MEMB      54              0.0000000000
     45720      1315  PPPE      N              35.3096382214        1.4839978547      -17.5448577737  MEMB      55              0.0000000000
     45721      1315  PPPE      HN1            36.1706905298        1.7944637739      -17.0510968647  MEMB      55              0.0000000000
     45722      1315  PPPE      HN2            34.5688735198        2.0857945865      -17.1316891029  MEMB      55              0.0000000000
     45723      1315  PPPE      HN3            35.0043081984        0.5432891703      -17.2232357159  MEMB      55              0.0000000000
     45724      1315  PPPE      C12            35.2718651090        1.3017828745      -19.0339805596  MEMB      55              0.0000000000
     45725      1315  PPPE      H12A           35.5549066320        0.2431288100      -19.2169014935  MEMB      55              0.0000000000
     45726      1315  PPPE      H12B           36.0234163762        1.9640873352      -19.5144433514  MEMB      55              0.0000000000
     45727      1315  PPPE      C11            33.8741549429        1.5771818702      -19.7717821455  MEMB      55              0.0000000000
     45728      1315  PPPE      H11A           33.1168171791        0.8250663476      -19.4634272323  MEMB      55              0.0000000000
     45729      1315  PPPE      H11B           34.0574230114        1.4272595473      -20.8572576691  MEMB      55              0.0000000000
     45730      1315  PPPE      P              31.9980131434        3.2204491279      -19.1401627920  MEMB      55              0.0000000000
     45731      1315  PPPE      O13            30.9895694642        3.3607919932      -20.2213479192  MEMB      55              0.0000000000
     45732      1315  PPPE      O14            31.7956867349        2.2158049828      -18.0502423277  MEMB      55              0.0000000000
     45733      1315  PPPE      O11            32.2820166974        4.6745579508      -18.4623229362  MEMB      55              0.0000000000
     45734      1315  PPPE      O12            33.3951572754        2.9215878122      -19.7753031504  MEMB      55              0.0000000000
     45735      1315  PPPE      C1             33.5151694537        5.3137221033      -18.2261554084  MEMB      55              0.0000000000
     45736      1315  PPPE      HA             33.5733764259        6.2709192821      -18.7871424932  MEMB      55              0.0000000000
     45737      1315  PPPE      HB             34.3366644310        4.6592146623      -18.5882148123  MEMB      55              0.0000000000
     45738      1315  PPPE      C2             33.7481170638        5.7509721422      -16.7829036285  MEMB      55              0.0000000000
     45739      1315  PPPE      HS             34.6934158603        6.2964886458      -16.5751948666  MEMB      55              0.0000000000
     45740      1315  PPPE      O21            33.7328981663        4.6434684922      -15.9305988261  MEMB      55              0.0000000000
     45741      1315  PPPE      C21            34.2951955585        4.8147279828      -14.6667792906  MEMB      55              0.0000000000
     45742      1315  PPPE      O22            34.8604429552        5.8085991664      -14.3649347773  MEMB      55              0.0000000000
     45743      1315  PPPE      C22            34.1068474236        3.6465793573      -13.8322221706  MEMB      55              0.0000000000
     45744      1315  PPPE      H2R            35.0681431454        3.1312727426      -14.0436237507  MEMB      55              0.0000000000
     45745      1315  PPPE      H2S            33.2708673257        3.0711962091      -14.2843200677  MEMB      55              0.0000000000
     45746      1315  PPPE      C3             32.6279138496        6.6745252964      -16.2996669794  MEMB      55              0.0000000000
     45747      1315  PPPE      HX             32.3508895202        7.2847498550      -17.1857846402  MEMB      55              0.0000000000
     45748      1315  PPPE      HY             31.7421352493        6.0149613923      -16.1784534167  MEMB      55              0.0000000000
     45749      1315  PPPE      O31            32.9316360527        7.5856399620      -15.2031698185  MEMB      55              0.0000000000
     45750      1315  PPPE      C31            31.8414052487        8.1591639652      -14.7098181533  MEMB      55              0.0000000000
     45751      1315  PPPE      O32            30.7126271409        8.0193337680      -15.1668688587  MEMB      55              0.0000000000
     45752      1315  PPPE      C32            32.2406509568        8.9387762391      -13.4957317693  MEMB      55              0.0000000000
     45753      1315  PPPE      H2X            31.2883823139        9.3430413155      -13.0906698236  MEMB      55              0.0000000000
     45754      1315  PPPE      H2Y            32.9697408565        9.7672223542      -13.6238955423  MEMB      55              0.0000000000
     45755      1315  PPPE      C23            33.9942775457        3.9989852757      -12.3032745075  MEMB      55              0.0000000000
     45756      1315  PPPE      H3R            33.7555737976        5.0658765505      -12.1055764331  MEMB      55              0.0000000000
     45757      1315  PPPE      H3S            35.0549074073        3.8232467827      -12.0230937110  MEMB      55              0.0000000000
     45758      1315  PPPE      C24            33.0843411224        3.1119115571      -11.5814825444  MEMB      55              0.0000000000
     45759      1315  PPPE      H4R            33.3160734105        2.0602954284      -11.8548406695  MEMB      55              0.0000000000
     45760      1315  PPPE      H4S            32.0317846135        3.3706407738      -11.8254189864  MEMB      55              0.0000000000
     45761      1315  PPPE      C25            33.4250672092        3.2387265673      -10.0518106456  MEMB      55              0.0000000000
     45762      1315  PPPE      H5R            33.5951719715        4.3094474136       -9.8090304177  MEMB      55              0.0000000000
     45763      1315  PPPE      H5S            34.4320342190        2.8214633134       -9.8367994411  MEMB      55              0.0000000000
     45764      1315  PPPE      C26            32.3425048816        2.4292700462       -9.2043316222  MEMB      55              0.0000000000
     45765      1315  PPPE      H6R            32.7091064472        2.2883429087       -8.1650704260  MEMB      55              0.0000000000
     45766      1315  PPPE      H6S            32.2167516596        1.4161227341       -9.6425549112  MEMB      55              0.0000000000
     45767      1315  PPPE      C27            30.9427733678        3.1130536239       -9.0662260466  MEMB      55              0.0000000000
     45768      1315  PPPE      H7R            30.3119686146        2.6099647819       -8.3024800283  MEMB      55              0.0000000000
     45769      1315  PPPE      H7S            30.3174799143        3.0880703949       -9.9842156628  MEMB      55              0.0000000000
     45770      1315  PPPE      C28            31.0494425693        4.5768217943       -8.5800408593  MEMB      55              0.0000000000
     45771      1315  PPPE      H8R            31.7775996295        5.0474901892       -9.2747203233  MEMB      55              0.0000000000
     45772      1315  PPPE      H8S            31.4103172722        4.5550384183       -7.5295095969  MEMB      55              0.0000000000
     45773      1315  PPPE      C29            29.8010043884        5.4322376773       -8.5341832202  MEMB      55              0.0000000000
     45774      1315  PPPE      H91            29.3787214877        5.5473302232       -9.5433565738  MEMB      55              0.0000000000
     45775      1315  PPPE      C210           29.2562781691        6.0343401995       -7.4467568634  MEMB      55              0.0000000000
     45776      1315  PPPE      H101           28.4875619769        6.8149636194       -7.5452580920  MEMB      55              0.0000000000
     45777      1315  PPPE      C211           29.8001106460        5.9406131057       -6.0373497881  MEMB      55              0.0000000000
     45778      1315  PPPE      H11R           30.1230427357        6.9516925923       -5.7090905351  MEMB      55              0.0000000000
     45779      1315  PPPE      H11S           30.6725483858        5.2895488007       -5.8153392903  MEMB      55              0.0000000000
     45780      1315  PPPE      C212           28.6572630899        5.6530889246       -4.9993979131  MEMB      55              0.0000000000
     45781      1315  PPPE      H12R           28.1488906363        4.7588868924       -5.4192564295  MEMB      55              0.0000000000
     45782      1315  PPPE      H12S           27.8866602196        6.4505338914       -5.0670273520  MEMB      55              0.0000000000
     45783      1315  PPPE      C213           29.0032209772        5.4094413029       -3.5202273739  MEMB      55              0.0000000000
     45784      1315  PPPE      H13R           28.0580981336        5.4635777199       -2.9387352768  MEMB      55              0.0000000000
     45785      1315  PPPE      H13S           29.6577658516        6.2799808771       -3.3010177548  MEMB      55              0.0000000000
     45786      1315  PPPE      C214           29.6974643487        4.0643432210       -3.1537109985  MEMB      55              0.0000000000
     45787      1315  PPPE      H14R           30.7044678216        4.0995913029       -3.6217094795  MEMB      55              0.0000000000
     45788      1315  PPPE      H14S           29.0993579605        3.3012065522       -3.6961242849  MEMB      55              0.0000000000
     45789      1315  PPPE      C215           29.8895608800        3.8110725037       -1.7268714691  MEMB      55              0.0000000000
     45790      1315  PPPE      H15R           29.9690496979        2.7108115087       -1.5948552930  MEMB      55              0.0000000000
     45791      1315  PPPE      H15S           28.9244587062        4.1096002383       -1.2645079910  MEMB      55              0.0000000000
     45792      1315  PPPE      C216           31.0688696638        4.5460756025       -1.0652703077  MEMB      55              0.0000000000
     45793      1315  PPPE      H16R           31.4163318373        4.2111752124       -0.0645541808  MEMB      55              0.0000000000
     45794      1315  PPPE      H16S           31.9099723522        4.4945653365       -1.7892965227  MEMB      55              0.0000000000
     45795      1315  PPPE      H16T           30.8537853152        5.6326560414       -0.9792315210  MEMB      55              0.0000000000
     45796      1315  PPPE      C33            32.6819075719        7.9165339999      -12.3855357198  MEMB      55              0.0000000000
     45797      1315  PPPE      H3X            33.4820855911        7.2181983325      -12.7116697921  MEMB      55              0.0000000000
     45798      1315  PPPE      H3Y            31.8637851563        7.2344498440      -12.0696909519  MEMB      55              0.0000000000
     45799      1315  PPPE      C34            33.2732849901        8.6442579970      -11.1553335620  MEMB      55              0.0000000000
     45800      1315  PPPE      H4X            32.3797182668        9.2070580818      -10.8102023182  MEMB      55              0.0000000000
     45801      1315  PPPE      H4Y            34.0758026972        9.3546813445      -11.4478826985  MEMB      55              0.0000000000
     45802      1315  PPPE      C35            33.7765800487        7.6323044138      -10.1492533576  MEMB      55              0.0000000000
     45803      1315  PPPE      H5X            34.7983285086        7.3478329920      -10.4800510224  MEMB      55              0.0000000000
     45804      1315  PPPE      H5Y            33.3383172899        6.6163897137      -10.0484363134  MEMB      55              0.0000000000
     45805      1315  PPPE      C36            33.7617028593        8.2962126282       -8.7093881269  MEMB      55              0.0000000000
     45806      1315  PPPE      H6X            32.7872333406        8.8127424051       -8.5754958318  MEMB      55              0.0000000000
     45807      1315  PPPE      H6Y            34.5970433945        9.0286361696       -8.7002806489  MEMB      55              0.0000000000
     45808      1315  PPPE      C37            33.9934651479        7.4130968494       -7.4818750309  MEMB      55              0.0000000000
     45809      1315  PPPE      H7X            35.0459410081        7.1215734666       -7.6859085602  MEMB      55              0.0000000000
     45810      1315  PPPE      H7Y            33.1988841878        6.6367309892       -7.4671051652  MEMB      55              0.0000000000
     45811      1315  PPPE      C38            33.8129729638        8.1269597588       -6.0853675226  MEMB      55              0.0000000000
     45812      1315  PPPE      H8X            32.8531363320        8.6816216303       -6.1587490499  MEMB      55              0.0000000000
     45813      1315  PPPE      H8Y            34.5955158409        8.8903202285       -5.8873058188  MEMB      55              0.0000000000
     45814      1315  PPPE      C39            33.7078118538        7.0726303763       -5.0165116390  MEMB      55              0.0000000000
     45815      1315  PPPE      H9X            34.5532077245        6.3738666041       -5.1935879284  MEMB      55              0.0000000000
     45816      1315  PPPE      H9Y            32.7628588094        6.5202267423       -5.2068664893  MEMB      55              0.0000000000
     45817      1315  PPPE      C310           33.8857062600        7.5898314107       -3.5571042605  MEMB      55              0.0000000000
     45818      1315  PPPE      H10X           32.9315549717        8.0650524616       -3.2439249641  MEMB      55              0.0000000000
     45819      1315  PPPE      H10Y           34.6561183981        8.3900242691       -3.5352518730  MEMB      55              0.0000000000
     45820      1315  PPPE      C311           34.1183101009        6.4784753007       -2.4506495509  MEMB      55              0.0000000000
     45821      1315  PPPE      H11X           34.8867386901        5.7239587412       -2.7236756757  MEMB      55              0.0000000000
     45822      1315  PPPE      H11Y           33.2097809928        5.8391960283       -2.4358890746  MEMB      55              0.0000000000
     45823      1315  PPPE      C312           34.5558873962        7.1185492466       -1.0981747743  MEMB      55              0.0000000000
     45824      1315  PPPE      H12X           33.6861569384        7.7615426474       -0.8443058762  MEMB      55              0.0000000000
     45825      1315  PPPE      H12Y           35.4723834597        7.7442678638       -1.1513929814  MEMB      55              0.0000000000
     45826      1315  PPPE      C313           34.8256591995        6.0538896253       -0.0514923699  MEMB      55              0.0000000000
     45827      1315  PPPE      H13X           33.8545684308        5.5197865418       -0.1291944618  MEMB      55              0.0000000000
     45828      1315  PPPE      H13Y           34.9124618036        6.5029748314        0.9609841907  MEMB      55              0.0000000000
     45829      1315  PPPE      C314           35.9429907415        5.0175429113       -0.3124387154  MEMB      55              0.0000000000
     45830      1315  PPPE      H14X           36.9353061566        5.5113865187       -0.3882648887  MEMB      55              0.0000000000
     45831      1315  PPPE      H14Y           35.6712788829        4.5485171605       -1.2822368959  MEMB      55              0.0000000000
     45832      1315  PPPE      C315           35.9755316377        3.8771591892        0.7144504581  MEMB      55              0.0000000000
     45833      1315  PPPE      H15X           36.5959494733        4.2401841909        1.5615723840  MEMB      55              0.0000000000
     45834      1315  PPPE      H15Y           36.6302152527        3.0384392381        0.3946705216  MEMB      55              0.0000000000
     45835      1315  PPPE      C316           34.6907482073        3.2667801970        1.2227863995  MEMB      55              0.0000000000
     45836      1315  PPPE      H16X           34.1800395981        2.9625427120        0.2842038143  MEMB      55              0.0000000000
     45837      1315  PPPE      H16Y           34.7454542528        2.3898862426        1.9027755474  MEMB      55              0.0000000000
     45838      1315  PPPE      H16Z           34.0989151899        4.0675170835        1.7156100170  MEMB      55              0.0000000000
     45839      1316  PPPE      N             -33.1976278715        7.2494348547      -21.4825680718  MEMB      56              0.0000000000
     45840      1316  PPPE      HN1           -33.1815925769        6.6074397066      -20.6645307260  MEMB      56              0.0000000000
     45841      1316  PPPE      HN2           -33.8921938502        6.9470600194      -22.1951321461  MEMB      56              0.0000000000
     45842      1316  PPPE      HN3           -32.2439768293        7.2446735317      -21.8974500063  MEMB      56              0.0000000000
     45843      1316  PPPE      C12           -33.6199483342        8.6137840933      -20.9758143843  MEMB      56              0.0000000000
     45844      1316  PPPE      H12A          -34.5182401035        8.5878833692      -20.3225747271  MEMB      56              0.0000000000
     45845      1316  PPPE      H12B          -33.8629844021        9.1174772348      -21.9357871385  MEMB      56              0.0000000000
     45846      1316  PPPE      C11           -32.3965364686        9.2934444262      -20.2765134839  MEMB      56              0.0000000000
     45847      1316  PPPE      H11A          -32.5672105738       10.3231392395      -19.8958299658  MEMB      56              0.0000000000
     45848      1316  PPPE      H11B          -31.6768846444        9.4245943096      -21.1127084134  MEMB      56              0.0000000000
     45849      1316  PPPE      P             -32.2909547392        8.5281233397      -17.8405812837  MEMB      56              0.0000000000
     45850      1316  PPPE      O13           -31.5252134742        9.6161693536      -17.1142454587  MEMB      56              0.0000000000
     45851      1316  PPPE      O14           -33.7462503161        8.5866139720      -17.7804976318  MEMB      56              0.0000000000
     45852      1316  PPPE      O11           -31.7525668920        7.1372892526      -17.2548233470  MEMB      56              0.0000000000
     45853      1316  PPPE      O12           -31.7829675151        8.5142112657      -19.2749560713  MEMB      56              0.0000000000
     45854      1316  PPPE      C1            -31.9692038653        5.9679849136      -18.0333041000  MEMB      56              0.0000000000
     45855      1316  PPPE      HA            -31.0811766956        5.8024505390      -18.6800862247  MEMB      56              0.0000000000
     45856      1316  PPPE      HB            -32.8409240684        6.0539492075      -18.7167037106  MEMB      56              0.0000000000
     45857      1316  PPPE      C2            -32.1801593739        4.7264339940      -17.0544802478  MEMB      56              0.0000000000
     45858      1316  PPPE      HS            -32.3001097916        3.7871081957      -17.6355137597  MEMB      56              0.0000000000
     45859      1316  PPPE      O21           -33.3421380873        4.8185831461      -16.2234137680  MEMB      56              0.0000000000
     45860      1316  PPPE      C21           -34.5388999570        4.9818845009      -16.8599973038  MEMB      56              0.0000000000
     45861      1316  PPPE      O22           -34.7503597197        4.8612459488      -18.0126307902  MEMB      56              0.0000000000
     45862      1316  PPPE      C22           -35.6995595631        5.2526906449      -15.8144953490  MEMB      56              0.0000000000
     45863      1316  PPPE      H2R           -36.0722246694        4.2923288188      -15.3983861306  MEMB      56              0.0000000000
     45864      1316  PPPE      H2S           -36.5477589338        5.6239586106      -16.4285303033  MEMB      56              0.0000000000
     45865      1316  PPPE      C3            -30.9272172365        4.5857565762      -16.1746297010  MEMB      56              0.0000000000
     45866      1316  PPPE      HX            -30.8710820307        3.5361349213      -15.8148183334  MEMB      56              0.0000000000
     45867      1316  PPPE      HY            -30.1158891655        4.4946112923      -16.9281284061  MEMB      56              0.0000000000
     45868      1316  PPPE      O31           -30.8582281652        5.7019285080      -15.1556184566  MEMB      56              0.0000000000
     45869      1316  PPPE      C31           -31.4835352227        5.5512837026      -14.0295450707  MEMB      56              0.0000000000
     45870      1316  PPPE      O32           -32.0401176413        4.5318092315      -13.6601435508  MEMB      56              0.0000000000
     45871      1316  PPPE      C32           -31.3567341808        6.8400910073      -13.1379932600  MEMB      56              0.0000000000
     45872      1316  PPPE      H2X           -30.3862042860        6.7347067571      -12.6076284014  MEMB      56              0.0000000000
     45873      1316  PPPE      H2Y           -32.1676473087        6.7881349922      -12.3803380142  MEMB      56              0.0000000000
     45874      1316  PPPE      C23           -35.3247623835        6.3489431848      -14.9017721819  MEMB      56              0.0000000000
     45875      1316  PPPE      H3R           -35.3359568422        7.3708397609      -15.3375738249  MEMB      56              0.0000000000
     45876      1316  PPPE      H3S           -34.2885568088        6.1925365172      -14.5328061110  MEMB      56              0.0000000000
     45877      1316  PPPE      C24           -36.2843462503        6.4564192935      -13.6893661762  MEMB      56              0.0000000000
     45878      1316  PPPE      H4R           -36.6250260131        5.4347598564      -13.4164737182  MEMB      56              0.0000000000
     45879      1316  PPPE      H4S           -37.1458878947        7.0968865988      -13.9754931162  MEMB      56              0.0000000000
     45880      1316  PPPE      C25           -35.5752881667        7.0994187593      -12.4749417927  MEMB      56              0.0000000000
     45881      1316  PPPE      H5R           -35.1120183953        8.0480608336      -12.8210347479  MEMB      56              0.0000000000
     45882      1316  PPPE      H5S           -34.7592574702        6.4535425012      -12.0860217987  MEMB      56              0.0000000000
     45883      1316  PPPE      C26           -36.3143814300        7.7073174421      -11.2225468759  MEMB      56              0.0000000000
     45884      1316  PPPE      H6R           -36.7409937025        6.7919289005      -10.7595276679  MEMB      56              0.0000000000
     45885      1316  PPPE      H6S           -37.0491002777        8.4775985230      -11.5406290525  MEMB      56              0.0000000000
     45886      1316  PPPE      C27           -35.3276168741        8.1494517366      -10.1899482252  MEMB      56              0.0000000000
     45887      1316  PPPE      H7R           -34.6495529461        8.9947672861      -10.4348807289  MEMB      56              0.0000000000
     45888      1316  PPPE      H7S           -34.6249424105        7.3105942979       -9.9978862673  MEMB      56              0.0000000000
     45889      1316  PPPE      C28           -36.0615164320        8.4606921144       -8.9018679017  MEMB      56              0.0000000000
     45890      1316  PPPE      H8R           -36.4744926044        7.5506586113       -8.4164704313  MEMB      56              0.0000000000
     45891      1316  PPPE      H8S           -36.8523014722        9.1995051241       -9.1531354018  MEMB      56              0.0000000000
     45892      1316  PPPE      C29           -35.1192170662        9.0931974680       -7.9194688715  MEMB      56              0.0000000000
     45893      1316  PPPE      H91           -34.5083871285        9.9139314438       -8.3235512000  MEMB      56              0.0000000000
     45894      1316  PPPE      C210          -34.8104273188        8.6227038189       -6.7056326288  MEMB      56              0.0000000000
     45895      1316  PPPE      H101          -34.1522379220        9.2683595434       -6.1057031300  MEMB      56              0.0000000000
     45896      1316  PPPE      C211          -35.3164961135        7.3053329143       -6.1726431817  MEMB      56              0.0000000000
     45897      1316  PPPE      H11R          -35.5747401628        6.6158133835       -7.0046250491  MEMB      56              0.0000000000
     45898      1316  PPPE      H11S          -36.1790222251        7.4121288748       -5.4805706930  MEMB      56              0.0000000000
     45899      1316  PPPE      C212          -34.1356803380        6.5547427928       -5.5561079369  MEMB      56              0.0000000000
     45900      1316  PPPE      H12R          -33.2748647861        6.5730293773       -6.2582355511  MEMB      56              0.0000000000
     45901      1316  PPPE      H12S          -34.5213933025        5.5253271775       -5.3953285848  MEMB      56              0.0000000000
     45902      1316  PPPE      C213          -33.7410412090        7.1092149315       -4.2083760546  MEMB      56              0.0000000000
     45903      1316  PPPE      H13R          -34.5945106030        7.2745781010       -3.5165913946  MEMB      56              0.0000000000
     45904      1316  PPPE      H13S          -33.1487818059        8.0339379899       -4.3770089835  MEMB      56              0.0000000000
     45905      1316  PPPE      C214          -32.9024083610        6.0376264573       -3.4888886786  MEMB      56              0.0000000000
     45906      1316  PPPE      H14R          -32.2199068146        5.5107524414       -4.1895429518  MEMB      56              0.0000000000
     45907      1316  PPPE      H14S          -33.6920837785        5.2731868587       -3.3265130803  MEMB      56              0.0000000000
     45908      1316  PPPE      C215          -32.2540614814        6.5003240034       -2.1756646366  MEMB      56              0.0000000000
     45909      1316  PPPE      H15R          -31.5886825327        7.3355234207       -2.4823139283  MEMB      56              0.0000000000
     45910      1316  PPPE      H15S          -31.6179696286        5.6336844263       -1.8952292643  MEMB      56              0.0000000000
     45911      1316  PPPE      C216          -33.1099740121        6.8445832862       -0.9490040864  MEMB      56              0.0000000000
     45912      1316  PPPE      H16R          -33.8902931511        6.0857437021       -0.7263260072  MEMB      56              0.0000000000
     45913      1316  PPPE      H16S          -32.3882491077        6.9712534283       -0.1139059858  MEMB      56              0.0000000000
     45914      1316  PPPE      H16T          -33.4756373921        7.8796807354       -1.1198389864  MEMB      56              0.0000000000
     45915      1316  PPPE      C33           -31.5322321690        8.1628875408      -13.8783438572  MEMB      56              0.0000000000
     45916      1316  PPPE      H3X           -32.5810569145        8.1747733893      -14.2446038468  MEMB      56              0.0000000000
     45917      1316  PPPE      H3Y           -30.9277186823        8.2068955618      -14.8094441409  MEMB      56              0.0000000000
     45918      1316  PPPE      C34           -31.2649521955        9.4601529483      -13.0922556043  MEMB      56              0.0000000000
     45919      1316  PPPE      H4X           -31.6700261270       10.3056947849      -13.6883219703  MEMB      56              0.0000000000
     45920      1316  PPPE      H4Y           -30.1626484261        9.5893093931      -13.0415997771  MEMB      56              0.0000000000
     45921      1316  PPPE      C35           -32.0141446836        9.6551161550      -11.6726304614  MEMB      56              0.0000000000
     45922      1316  PPPE      H5X           -31.9472425766        8.8314437455      -10.9300613603  MEMB      56              0.0000000000
     45923      1316  PPPE      H5Y           -33.0979707356        9.6668426753      -11.9165660633  MEMB      56              0.0000000000
     45924      1316  PPPE      C36           -31.7323806182       10.9900736415      -10.9140818913  MEMB      56              0.0000000000
     45925      1316  PPPE      H6X           -32.2259193384       11.8371720886      -11.4367335464  MEMB      56              0.0000000000
     45926      1316  PPPE      H6Y           -30.6456841683       11.1944753556      -10.8062312304  MEMB      56              0.0000000000
     45927      1316  PPPE      C37           -32.2416433341       11.0414953947       -9.4510402105  MEMB      56              0.0000000000
     45928      1316  PPPE      H7X           -31.8971750146       10.1606051945       -8.8682065875  MEMB      56              0.0000000000
     45929      1316  PPPE      H7Y           -33.3503320274       10.9713662056       -9.4656099726  MEMB      56              0.0000000000
     45930      1316  PPPE      C38           -31.6984458805       12.2686875961       -8.6183136485  MEMB      56              0.0000000000
     45931      1316  PPPE      H8X           -32.0470598204       13.1950732798       -9.1228915769  MEMB      56              0.0000000000
     45932      1316  PPPE      H8Y           -30.5925396847       12.3107556555       -8.5207289966  MEMB      56              0.0000000000
     45933      1316  PPPE      C39           -32.3226830615       12.4043450950       -7.2478622538  MEMB      56              0.0000000000
     45934      1316  PPPE      H9X           -33.3840979207       12.0770058246       -7.2240190431  MEMB      56              0.0000000000
     45935      1316  PPPE      H9Y           -32.3568147389       13.4569742482       -6.8941280394  MEMB      56              0.0000000000
     45936      1316  PPPE      C310          -31.5621209302       11.4838883277       -6.2732803501  MEMB      56              0.0000000000
     45937      1316  PPPE      H10X          -30.4658315423       11.6581374037       -6.3191915419  MEMB      56              0.0000000000
     45938      1316  PPPE      H10Y          -31.7671558323       10.4321004539       -6.5665787600  MEMB      56              0.0000000000
     45939      1316  PPPE      C311          -32.0579821182       11.7330796013       -4.8831745301  MEMB      56              0.0000000000
     45940      1316  PPPE      H11X          -33.0785984296       11.3016637783       -4.9640678713  MEMB      56              0.0000000000
     45941      1316  PPPE      H11Y          -32.2069061061       12.7726400645       -4.5206049656  MEMB      56              0.0000000000
     45942      1316  PPPE      C312          -31.2950312384       10.8583914671       -3.8127090835  MEMB      56              0.0000000000
     45943      1316  PPPE      H12X          -30.3742839035       11.4379534757       -3.5876463735  MEMB      56              0.0000000000
     45944      1316  PPPE      H12Y          -30.9568119036        9.9321935647       -4.3246525641  MEMB      56              0.0000000000
     45945      1316  PPPE      C313          -32.1039616093       10.7292801292       -2.5827801517  MEMB      56              0.0000000000
     45946      1316  PPPE      H13X          -31.7589658887        9.9130524361       -1.9126523236  MEMB      56              0.0000000000
     45947      1316  PPPE      H13Y          -33.0183333132       10.2214530034       -2.9574226445  MEMB      56              0.0000000000
     45948      1316  PPPE      C314          -32.3414880315       12.0160484956       -1.7678656132  MEMB      56              0.0000000000
     45949      1316  PPPE      H14X          -32.5205528897       12.8116972514       -2.5223189477  MEMB      56              0.0000000000
     45950      1316  PPPE      H14Y          -31.5533293627       12.2199772037       -1.0118629712  MEMB      56              0.0000000000
     45951      1316  PPPE      C315          -33.5938681368       11.9159832978       -0.9178929309  MEMB      56              0.0000000000
     45952      1316  PPPE      H15X          -34.3817053578       11.4648726113       -1.5583089378  MEMB      56              0.0000000000
     45953      1316  PPPE      H15Y          -33.9000333094       12.8591404366       -0.4168555088  MEMB      56              0.0000000000
     45954      1316  PPPE      C316          -33.5673699088       10.9741682328        0.2307820715  MEMB      56              0.0000000000
     45955      1316  PPPE      H16X          -33.4144548608        9.9077047804       -0.0404995034  MEMB      56              0.0000000000
     45956      1316  PPPE      H16Y          -32.6891906474       11.0238002858        0.9095006025  MEMB      56              0.0000000000
     45957      1316  PPPE      H16Z          -34.5150103559       11.0656257785        0.8034373783  MEMB      56              0.0000000000
     45958      1317  PPPE      N               2.6390831049      -31.9765106220      -18.4605712525  MEMB      57              0.0000000000
     45959      1317  PPPE      HN1             1.6845939026      -31.6038413843      -18.6385263085  MEMB      57              0.0000000000
     45960      1317  PPPE      HN2             2.8048539644      -32.0326434444      -17.4354033987  MEMB      57              0.0000000000
     45961      1317  PPPE      HN3             3.3925507998      -31.3952401615      -18.8801080022  MEMB      57              0.0000000000
     45962      1317  PPPE      C12             2.7328838733      -33.3758140450      -18.9849237720  MEMB      57              0.0000000000
     45963      1317  PPPE      H12A            2.3948808872      -33.2627689339      -20.0372050006  MEMB      57              0.0000000000
     45964      1317  PPPE      H12B            1.9952894834      -33.8900360755      -18.3323510025  MEMB      57              0.0000000000
     45965      1317  PPPE      C11             4.1560770861      -33.9897845284      -18.8331777035  MEMB      57              0.0000000000
     45966      1317  PPPE      H11A            4.1917703870      -34.9984124209      -19.2976308903  MEMB      57              0.0000000000
     45967      1317  PPPE      H11B            4.3149739460      -34.2328759769      -17.7608068089  MEMB      57              0.0000000000
     45968      1317  PPPE      P               6.6402757378      -33.3403868852      -19.2625996754  MEMB      57              0.0000000000
     45969      1317  PPPE      O13             6.9901896683      -34.7035780243      -19.6841325605  MEMB      57              0.0000000000
     45970      1317  PPPE      O14             7.4289225549      -32.1839638654      -19.7986054822  MEMB      57              0.0000000000
     45971      1317  PPPE      O11             6.6506891258      -33.2407829363      -17.6485046420  MEMB      57              0.0000000000
     45972      1317  PPPE      O12             5.1197427360      -33.1137782768      -19.3274852966  MEMB      57              0.0000000000
     45973      1317  PPPE      C1              6.1480012472      -32.0288207771      -17.1028946783  MEMB      57              0.0000000000
     45974      1317  PPPE      HA              5.1446435457      -31.6990260158      -17.4476115742  MEMB      57              0.0000000000
     45975      1317  PPPE      HB              6.9559434272      -31.2867628016      -17.2786797593  MEMB      57              0.0000000000
     45976      1317  PPPE      C2              6.0780378298      -32.0967085768      -15.5108754728  MEMB      57              0.0000000000
     45977      1317  PPPE      HS              7.1295041348      -32.2186992937      -15.1734471478  MEMB      57              0.0000000000
     45978      1317  PPPE      O21             5.3758586413      -33.3135557124      -15.0975618912  MEMB      57              0.0000000000
     45979      1317  PPPE      C21             5.1800421919      -33.6256828333      -13.8388768334  MEMB      57              0.0000000000
     45980      1317  PPPE      O22             5.5179031753      -32.9221793508      -12.9029784005  MEMB      57              0.0000000000
     45981      1317  PPPE      C22             4.5033356810      -34.9474793410      -13.6509829433  MEMB      57              0.0000000000
     45982      1317  PPPE      H2R             4.8823658110      -35.8403695248      -14.1926509969  MEMB      57              0.0000000000
     45983      1317  PPPE      H2S             3.5084227962      -34.7445614200      -14.1018639354  MEMB      57              0.0000000000
     45984      1317  PPPE      C3              5.3548872489      -30.8945060428      -14.9680153077  MEMB      57              0.0000000000
     45985      1317  PPPE      HX              5.8975750208      -30.5429873824      -14.0645521852  MEMB      57              0.0000000000
     45986      1317  PPPE      HY              5.2749957564      -30.1826603812      -15.8172585612  MEMB      57              0.0000000000
     45987      1317  PPPE      O31             3.9887403955      -31.1653335563      -14.7329264675  MEMB      57              0.0000000000
     45988      1317  PPPE      C31             3.2632306952      -30.1148727155      -14.3794827912  MEMB      57              0.0000000000
     45989      1317  PPPE      O32             3.5555995555      -28.9576751560      -14.5912182772  MEMB      57              0.0000000000
     45990      1317  PPPE      C32             1.9292377465      -30.5350544669      -13.7689777034  MEMB      57              0.0000000000
     45991      1317  PPPE      H2X             1.3147939108      -31.1794934983      -14.4334158929  MEMB      57              0.0000000000
     45992      1317  PPPE      H2Y             1.3432709037      -29.6471121910      -13.4487865514  MEMB      57              0.0000000000
     45993      1317  PPPE      C23             4.3446376415      -35.3498455796      -12.1692483897  MEMB      57              0.0000000000
     45994      1317  PPPE      H3R             3.5610877755      -36.1206639427      -12.0073544159  MEMB      57              0.0000000000
     45995      1317  PPPE      H3S             4.2561527350      -34.4273808220      -11.5564268885  MEMB      57              0.0000000000
     45996      1317  PPPE      C24             5.6787511712      -35.9465990273      -11.7387132779  MEMB      57              0.0000000000
     45997      1317  PPPE      H4R             6.4735773309      -35.2312612781      -12.0401503037  MEMB      57              0.0000000000
     45998      1317  PPPE      H4S             5.8148947042      -36.8411491243      -12.3833574142  MEMB      57              0.0000000000
     45999      1317  PPPE      C25             5.9184102444      -36.1310475876      -10.2239111498  MEMB      57              0.0000000000
     46000      1317  PPPE      H5R             5.8022623019      -35.1657994230       -9.6862061786  MEMB      57              0.0000000000
     46001      1317  PPPE      H5S             6.9788618493      -36.4230932466      -10.0674735377  MEMB      57              0.0000000000
     46002      1317  PPPE      C26             4.9666283502      -37.1613787946       -9.5715302176  MEMB      57              0.0000000000
     46003      1317  PPPE      H6R             4.8619935911      -38.1179704888      -10.1267823206  MEMB      57              0.0000000000
     46004      1317  PPPE      H6S             4.0031717613      -36.6118318521       -9.6353311527  MEMB      57              0.0000000000
     46005      1317  PPPE      C27             5.3600641922      -37.3933558276       -8.0763548716  MEMB      57              0.0000000000
     46006      1317  PPPE      H7R             6.3796459158      -37.8201738478       -7.9641029827  MEMB      57              0.0000000000
     46007      1317  PPPE      H7S             4.6164315332      -38.1223598655       -7.6892055706  MEMB      57              0.0000000000
     46008      1317  PPPE      C28             5.2123468587      -36.0259926598       -7.2079189569  MEMB      57              0.0000000000
     46009      1317  PPPE      H8R             4.1297927219      -35.8399186989       -7.0412635579  MEMB      57              0.0000000000
     46010      1317  PPPE      H8S             5.6405442945      -35.1019945025       -7.6519858003  MEMB      57              0.0000000000
     46011      1317  PPPE      C29             5.8529534588      -36.1265214357       -5.8481820683  MEMB      57              0.0000000000
     46012      1317  PPPE      H91             6.9403723836      -36.0854287357       -6.0089037906  MEMB      57              0.0000000000
     46013      1317  PPPE      C210            5.2934351660      -36.1167160050       -4.6333815538  MEMB      57              0.0000000000
     46014      1317  PPPE      H101            5.9693474913      -35.9958809590       -3.7739972277  MEMB      57              0.0000000000
     46015      1317  PPPE      C211            3.7993460369      -36.1235330608       -4.2385421048  MEMB      57              0.0000000000
     46016      1317  PPPE      H11R            3.1628335066      -36.3056938912       -5.1307249508  MEMB      57              0.0000000000
     46017      1317  PPPE      H11S            3.5652783655      -35.0915086447       -3.9002243107  MEMB      57              0.0000000000
     46018      1317  PPPE      C212            3.4214347178      -37.2607487515       -3.2144855174  MEMB      57              0.0000000000
     46019      1317  PPPE      H12R            3.7253238192      -38.2176879611       -3.6901321965  MEMB      57              0.0000000000
     46020      1317  PPPE      H12S            2.3263544590      -37.4307610099       -3.1356435302  MEMB      57              0.0000000000
     46021      1317  PPPE      C213            3.8357698747      -37.0791294085       -1.7048121038  MEMB      57              0.0000000000
     46022      1317  PPPE      H13R            4.9159188521      -37.3213279411       -1.6102655153  MEMB      57              0.0000000000
     46023      1317  PPPE      H13S            3.4417282692      -37.9629515830       -1.1590002526  MEMB      57              0.0000000000
     46024      1317  PPPE      C214            3.3618866620      -35.7989365610       -0.9897164466  MEMB      57              0.0000000000
     46025      1317  PPPE      H14R            2.2628784044      -35.7640274936       -0.8307095072  MEMB      57              0.0000000000
     46026      1317  PPPE      H14S            3.4435047197      -34.9346407835       -1.6830073681  MEMB      57              0.0000000000
     46027      1317  PPPE      C215            4.0729249475      -35.5602526288        0.3126725726  MEMB      57              0.0000000000
     46028      1317  PPPE      H15R            5.1188796839      -35.2216657944        0.1524894127  MEMB      57              0.0000000000
     46029      1317  PPPE      H15S            4.0541911957      -36.4616356648        0.9618864581  MEMB      57              0.0000000000
     46030      1317  PPPE      C216            3.4487156594      -34.4233969573        1.0232154404  MEMB      57              0.0000000000
     46031      1317  PPPE      H16R            3.4799226001      -33.4660497653        0.4603358077  MEMB      57              0.0000000000
     46032      1317  PPPE      H16S            2.3586801770      -34.6248073930        1.0978979922  MEMB      57              0.0000000000
     46033      1317  PPPE      H16T            3.8486003141      -34.2669901045        2.0478861970  MEMB      57              0.0000000000
     46034      1317  PPPE      C33             2.1360506260      -31.4307453095      -12.5515384145  MEMB      57              0.0000000000
     46035      1317  PPPE      H3X             2.6822702873      -30.8431154801      -11.7829967661  MEMB      57              0.0000000000
     46036      1317  PPPE      H3Y             2.7166315726      -32.3023150267      -12.9225006667  MEMB      57              0.0000000000
     46037      1317  PPPE      C34             0.7705100181      -32.0552974469      -12.0044832698  MEMB      57              0.0000000000
     46038      1317  PPPE      H4X             0.1711443775      -32.3350698263      -12.8971249922  MEMB      57              0.0000000000
     46039      1317  PPPE      H4Y             0.1239205329      -31.3491206326      -11.4409610036  MEMB      57              0.0000000000
     46040      1317  PPPE      C35             1.0408226742      -33.4143737970      -11.2872372154  MEMB      57              0.0000000000
     46041      1317  PPPE      H5X             1.9206710687      -33.2743702830      -10.6234700734  MEMB      57              0.0000000000
     46042      1317  PPPE      H5Y             1.2243913156      -34.2188141837      -12.0312124960  MEMB      57              0.0000000000
     46043      1317  PPPE      C36            -0.1017271781      -33.6820105894      -10.2182694722  MEMB      57              0.0000000000
     46044      1317  PPPE      H6X            -0.9605910981      -34.0336145562      -10.8290463687  MEMB      57              0.0000000000
     46045      1317  PPPE      H6Y            -0.3821257419      -32.7462104217       -9.6891421796  MEMB      57              0.0000000000
     46046      1317  PPPE      C37             0.2977781694      -34.6926387081       -9.1334867182  MEMB      57              0.0000000000
     46047      1317  PPPE      H7X             0.8659268578      -35.5491029185       -9.5553837722  MEMB      57              0.0000000000
     46048      1317  PPPE      H7Y            -0.6830623938      -35.0494789500       -8.7527797030  MEMB      57              0.0000000000
     46049      1317  PPPE      C38             0.9781850711      -34.1037761309       -7.7753349043  MEMB      57              0.0000000000
     46050      1317  PPPE      H8X             1.1432428890      -34.9451620632       -7.0688318048  MEMB      57              0.0000000000
     46051      1317  PPPE      H8Y             0.1583675909      -33.5550049427       -7.2643843371  MEMB      57              0.0000000000
     46052      1317  PPPE      C39             2.3103678343      -33.3043659921       -7.9941120491  MEMB      57              0.0000000000
     46053      1317  PPPE      H9X             1.9566502774      -32.3566077383       -8.4534149800  MEMB      57              0.0000000000
     46054      1317  PPPE      H9Y             3.0533667110      -33.8057866505       -8.6505044566  MEMB      57              0.0000000000
     46055      1317  PPPE      C310            2.9821522843      -32.9326523287       -6.6935224822  MEMB      57              0.0000000000
     46056      1317  PPPE      H10X            3.8707363570      -32.3136842362       -6.9417519046  MEMB      57              0.0000000000
     46057      1317  PPPE      H10Y            3.4364686340      -33.7628869566       -6.1116048618  MEMB      57              0.0000000000
     46058      1317  PPPE      C311            2.0092107931      -32.2080733090       -5.7331134159  MEMB      57              0.0000000000
     46059      1317  PPPE      H11X            1.0690338957      -32.7885309391       -5.6171076339  MEMB      57              0.0000000000
     46060      1317  PPPE      H11Y            1.7484762075      -31.2236491429       -6.1772390030  MEMB      57              0.0000000000
     46061      1317  PPPE      C312            2.6274971032      -31.9695971443       -4.3870756417  MEMB      57              0.0000000000
     46062      1317  PPPE      H12X            3.2915171769      -31.1059135778       -4.6049036443  MEMB      57              0.0000000000
     46063      1317  PPPE      H12Y            3.2621454306      -32.7771720599       -3.9635602866  MEMB      57              0.0000000000
     46064      1317  PPPE      C313            1.5591832690      -31.5118923318       -3.3228165502  MEMB      57              0.0000000000
     46065      1317  PPPE      H13X            0.7505099631      -32.2736766499       -3.3155270292  MEMB      57              0.0000000000
     46066      1317  PPPE      H13Y            1.1942877755      -30.4851228093       -3.5394190118  MEMB      57              0.0000000000
     46067      1317  PPPE      C314            2.1793136971      -31.5484188465       -1.8681751792  MEMB      57              0.0000000000
     46068      1317  PPPE      H14X            3.0680017020      -30.8835216210       -1.8185132275  MEMB      57              0.0000000000
     46069      1317  PPPE      H14Y            2.4953583212      -32.5494570914       -1.5043631018  MEMB      57              0.0000000000
     46070      1317  PPPE      C315            1.0825916076      -30.9844031316       -0.9282467192  MEMB      57              0.0000000000
     46071      1317  PPPE      H15X            0.1136786148      -31.5262916826       -0.9716680343  MEMB      57              0.0000000000
     46072      1317  PPPE      H15Y            0.8984099207      -29.9227424423       -1.1989396949  MEMB      57              0.0000000000
     46073      1317  PPPE      C316            1.4317159433      -30.9211317954        0.5668069902  MEMB      57              0.0000000000
     46074      1317  PPPE      H16X            2.3184299961      -30.2579230364        0.6574344180  MEMB      57              0.0000000000
     46075      1317  PPPE      H16Y            0.5351874214      -30.5308997756        1.0943262599  MEMB      57              0.0000000000
     46076      1317  PPPE      H16Z            1.6107908740      -31.9144983691        1.0310009361  MEMB      57              0.0000000000
     46077      1318  PPPE      N             -34.4996814676       -2.3515226499      -20.8450493815  MEMB      58              0.0000000000
     46078      1318  PPPE      HN1           -35.1009816774       -3.0555031299      -20.3712883220  MEMB      58              0.0000000000
     46079      1318  PPPE      HN2           -35.1271652776       -1.5405244200      -21.0186752414  MEMB      58              0.0000000000
     46080      1318  PPPE      HN3           -34.2259995184       -2.7939702789      -21.7455705008  MEMB      58              0.0000000000
     46081      1318  PPPE      C12           -33.3575934952       -2.0938663751      -19.9189984885  MEMB      58              0.0000000000
     46082      1318  PPPE      H12A          -32.5702844391       -1.5064920512      -20.4380908250  MEMB      58              0.0000000000
     46083      1318  PPPE      H12B          -32.8893034644       -3.0677127233      -19.6608343215  MEMB      58              0.0000000000
     46084      1318  PPPE      C11           -33.8829004742       -1.3788900771      -18.6178006706  MEMB      58              0.0000000000
     46085      1318  PPPE      H11A          -32.9443946897       -1.1785306841      -18.0579935556  MEMB      58              0.0000000000
     46086      1318  PPPE      H11B          -34.5458738195       -1.9346222112      -17.9207001481  MEMB      58              0.0000000000
     46087      1318  PPPE      P             -34.0982060044        1.2353735433      -18.6148989953  MEMB      58              0.0000000000
     46088      1318  PPPE      O13           -32.7753873863        1.6644665692      -19.1440267098  MEMB      58              0.0000000000
     46089      1318  PPPE      O14           -35.2023040718        2.2168242688      -18.7515034945  MEMB      58              0.0000000000
     46090      1318  PPPE      O11           -33.8583023315        0.9639706867      -17.0333443458  MEMB      58              0.0000000000
     46091      1318  PPPE      O12           -34.5423647702       -0.1991087827      -19.0743781713  MEMB      58              0.0000000000
     46092      1318  PPPE      C1            -34.8600522670        0.4603823654      -16.1056337609  MEMB      58              0.0000000000
     46093      1318  PPPE      HA            -35.0000237257       -0.6386144237      -16.1889106977  MEMB      58              0.0000000000
     46094      1318  PPPE      HB            -35.8407161023        0.9324642990      -16.3286989761  MEMB      58              0.0000000000
     46095      1318  PPPE      C2            -34.6031478764        0.7625355989      -14.5995010733  MEMB      58              0.0000000000
     46096      1318  PPPE      HS            -34.4887738726        1.8510015028      -14.4084995983  MEMB      58              0.0000000000
     46097      1318  PPPE      O21           -33.3521699788        0.0658639383      -14.2470792769  MEMB      58              0.0000000000
     46098      1318  PPPE      C21           -32.1993228600        0.8192971158      -14.5173948385  MEMB      58              0.0000000000
     46099      1318  PPPE      O22           -32.0692284548        1.8164980497      -15.1734901412  MEMB      58              0.0000000000
     46100      1318  PPPE      C22           -31.0055304606        0.1438140738      -13.8988385903  MEMB      58              0.0000000000
     46101      1318  PPPE      H2R           -30.0865425879        0.7394521398      -14.0859150035  MEMB      58              0.0000000000
     46102      1318  PPPE      H2S           -30.7486235071       -0.8996493033      -14.1808031234  MEMB      58              0.0000000000
     46103      1318  PPPE      C3            -35.7856888634        0.1604441142      -13.8058706815  MEMB      58              0.0000000000
     46104      1318  PPPE      HX            -36.6501876772        0.8014170367      -14.0817628951  MEMB      58              0.0000000000
     46105      1318  PPPE      HY            -35.9950884098       -0.8346840436      -14.2532997591  MEMB      58              0.0000000000
     46106      1318  PPPE      O31           -35.3806038097        0.1728178164      -12.4073883803  MEMB      58              0.0000000000
     46107      1318  PPPE      C31           -36.3810157207        0.3127068633      -11.5404433937  MEMB      58              0.0000000000
     46108      1318  PPPE      O32           -37.5012499010        0.4943410477      -11.7685465495  MEMB      58              0.0000000000
     46109      1318  PPPE      C32           -35.6769891797        0.4042927260      -10.1994513130  MEMB      58              0.0000000000
     46110      1318  PPPE      H2X           -35.0011753919       -0.4730822398      -10.1110777108  MEMB      58              0.0000000000
     46111      1318  PPPE      H2Y           -36.4223921381        0.1571218717       -9.4135747334  MEMB      58              0.0000000000
     46112      1318  PPPE      C23           -31.0924682172        0.1538949615      -12.3704167974  MEMB      58              0.0000000000
     46113      1318  PPPE      H3R           -31.5750995937        1.1104161352      -12.0763841484  MEMB      58              0.0000000000
     46114      1318  PPPE      H3S           -30.0704690125        0.2374414372      -11.9427970927  MEMB      58              0.0000000000
     46115      1318  PPPE      C24           -31.8526113168       -1.0651995593      -11.7945315703  MEMB      58              0.0000000000
     46116      1318  PPPE      H4R           -31.3324607641       -2.0326880241      -11.9610562625  MEMB      58              0.0000000000
     46117      1318  PPPE      H4S           -32.9156373008       -1.1304499321      -12.1108212259  MEMB      58              0.0000000000
     46118      1318  PPPE      C25           -32.0434996162       -1.2192454104      -10.2231966593  MEMB      58              0.0000000000
     46119      1318  PPPE      H5R           -32.3842037154       -2.2467137431       -9.9730955957  MEMB      58              0.0000000000
     46120      1318  PPPE      H5S           -32.7278732234       -0.4198932427       -9.8668402678  MEMB      58              0.0000000000
     46121      1318  PPPE      C26           -30.7221792850       -1.1796633274       -9.3909544014  MEMB      58              0.0000000000
     46122      1318  PPPE      H6R           -30.2462406518       -0.1757814536       -9.3959143268  MEMB      58              0.0000000000
     46123      1318  PPPE      H6S           -29.9424311816       -1.7777940347       -9.9091759297  MEMB      58              0.0000000000
     46124      1318  PPPE      C27           -30.9417362353       -1.7655465486       -7.9917444056  MEMB      58              0.0000000000
     46125      1318  PPPE      H7R           -29.9829127352       -1.6496008246       -7.4426223020  MEMB      58              0.0000000000
     46126      1318  PPPE      H7S           -31.2544861039       -2.8225735014       -8.1303176374  MEMB      58              0.0000000000
     46127      1318  PPPE      C28           -32.1122707465       -1.1792105266       -7.1831717919  MEMB      58              0.0000000000
     46128      1318  PPPE      H8R           -33.0861366909       -1.4582564381       -7.6392852664  MEMB      58              0.0000000000
     46129      1318  PPPE      H8S           -32.1079225652       -0.0683690807       -7.2014303633  MEMB      58              0.0000000000
     46130      1318  PPPE      C29           -32.2544993800       -1.4943253632       -5.7392349881  MEMB      58              0.0000000000
     46131      1318  PPPE      H91           -32.9931446559       -2.2999913964       -5.6155199956  MEMB      58              0.0000000000
     46132      1318  PPPE      C210          -31.6173705181       -0.9967416093       -4.7138509373  MEMB      58              0.0000000000
     46133      1318  PPPE      H101          -31.9748853507       -1.2857587833       -3.7145250558  MEMB      58              0.0000000000
     46134      1318  PPPE      C211          -30.4372969101        0.0247567560       -4.7232155205  MEMB      58              0.0000000000
     46135      1318  PPPE      H11R          -30.7524156757        0.8508620229       -5.3959496816  MEMB      58              0.0000000000
     46136      1318  PPPE      H11S          -29.5464284173       -0.4480241725       -5.1892117889  MEMB      58              0.0000000000
     46137      1318  PPPE      C212          -30.1558234676        0.8000096338       -3.4830351626  MEMB      58              0.0000000000
     46138      1318  PPPE      H12R          -29.3884436148        1.5975966583       -3.5794929244  MEMB      58              0.0000000000
     46139      1318  PPPE      H12S          -29.8132656626        0.0714702301       -2.7173945893  MEMB      58              0.0000000000
     46140      1318  PPPE      C213          -31.3479453601        1.5089856051       -2.8875040479  MEMB      58              0.0000000000
     46141      1318  PPPE      H13R          -31.8908548459        0.6617834897       -2.4165275455  MEMB      58              0.0000000000
     46142      1318  PPPE      H13S          -31.9455622803        1.9612984665       -3.7076187303  MEMB      58              0.0000000000
     46143      1318  PPPE      C214          -31.1704082034        2.6491348751       -1.7599850567  MEMB      58              0.0000000000
     46144      1318  PPPE      H14R          -30.7227891146        3.4768354037       -2.3506372269  MEMB      58              0.0000000000
     46145      1318  PPPE      H14S          -30.5394433993        2.2335158657       -0.9454512913  MEMB      58              0.0000000000
     46146      1318  PPPE      C215          -32.4702056508        3.1086594102       -1.1506374801  MEMB      58              0.0000000000
     46147      1318  PPPE      H15R          -33.2001140695        3.4623693424       -1.9098765623  MEMB      58              0.0000000000
     46148      1318  PPPE      H15S          -32.3671998842        4.1313736034       -0.7290138434  MEMB      58              0.0000000000
     46149      1318  PPPE      C216          -33.1159483271        2.2506814543       -0.0453352990  MEMB      58              0.0000000000
     46150      1318  PPPE      H16R          -33.5931437234        1.3558110279       -0.4990008957  MEMB      58              0.0000000000
     46151      1318  PPPE      H16S          -32.5105112460        2.0318304168        0.8601320744  MEMB      58              0.0000000000
     46152      1318  PPPE      H16T          -34.0283675676        2.8026190657        0.2663969621  MEMB      58              0.0000000000
     46153      1318  PPPE      C33           -34.9188783210        1.7631835946      -10.0350250151  MEMB      58              0.0000000000
     46154      1318  PPPE      H3X           -35.3007796022        2.4112975263      -10.8525950384  MEMB      58              0.0000000000
     46155      1318  PPPE      H3Y           -33.8330886663        1.6106893378      -10.2142659907  MEMB      58              0.0000000000
     46156      1318  PPPE      C34           -35.0653376822        2.3013736776       -8.6175845502  MEMB      58              0.0000000000
     46157      1318  PPPE      H4X           -34.9063028820        1.4639745032       -7.9049896057  MEMB      58              0.0000000000
     46158      1318  PPPE      H4Y           -36.1028567445        2.6458497730       -8.4195658256  MEMB      58              0.0000000000
     46159      1318  PPPE      C35           -34.0404324671        3.2550318971       -8.1436788180  MEMB      58              0.0000000000
     46160      1318  PPPE      H5X           -34.2470891889        4.2295087381       -8.6356228042  MEMB      58              0.0000000000
     46161      1318  PPPE      H5Y           -33.0242685744        3.0113688440       -8.5209854041  MEMB      58              0.0000000000
     46162      1318  PPPE      C36           -33.8850088137        3.4843163712       -6.5896058660  MEMB      58              0.0000000000
     46163      1318  PPPE      H6X           -33.0858331143        4.2556239960       -6.6165084572  MEMB      58              0.0000000000
     46164      1318  PPPE      H6Y           -33.4811613381        2.5298753807       -6.1892677439  MEMB      58              0.0000000000
     46165      1318  PPPE      C37           -35.1495960725        3.8927636529       -5.8968380810  MEMB      58              0.0000000000
     46166      1318  PPPE      H7X           -35.7856219892        2.9824069888       -5.8645460180  MEMB      58              0.0000000000
     46167      1318  PPPE      H7Y           -35.6771026698        4.6939935596       -6.4572740065  MEMB      58              0.0000000000
     46168      1318  PPPE      C38           -35.0964139993        4.2419607864       -4.3990818322  MEMB      58              0.0000000000
     46169      1318  PPPE      H8X           -34.8670039480        5.3214161672       -4.2707537015  MEMB      58              0.0000000000
     46170      1318  PPPE      H8Y           -34.2345741885        3.7068398701       -3.9460931507  MEMB      58              0.0000000000
     46171      1318  PPPE      C39           -36.3648771479        3.9457211254       -3.5333124539  MEMB      58              0.0000000000
     46172      1318  PPPE      H9X           -37.1517607890        4.6187027842       -3.9360913291  MEMB      58              0.0000000000
     46173      1318  PPPE      H9Y           -36.2747814308        4.2224735939       -2.4611129235  MEMB      58              0.0000000000
     46174      1318  PPPE      C310          -36.8847856386        2.5433396598       -3.5917077822  MEMB      58              0.0000000000
     46175      1318  PPPE      H10X          -37.2651668022        2.4252359777       -4.6288590203  MEMB      58              0.0000000000
     46176      1318  PPPE      H10Y          -37.7286707266        2.4877077173       -2.8712329074  MEMB      58              0.0000000000
     46177      1318  PPPE      C311          -35.8571373281        1.5129645109       -3.2805088259  MEMB      58              0.0000000000
     46178      1318  PPPE      H11X          -35.3730225178        1.7335526985       -2.3051654495  MEMB      58              0.0000000000
     46179      1318  PPPE      H11Y          -35.0949336792        1.4939404719       -4.0885958778  MEMB      58              0.0000000000
     46180      1318  PPPE      C312          -36.5570361974        0.0760910413       -3.1933051888  MEMB      58              0.0000000000
     46181      1318  PPPE      H12X          -37.0899961309       -0.0502284038       -4.1599065063  MEMB      58              0.0000000000
     46182      1318  PPPE      H12Y          -37.3765130608        0.1642440203       -2.4483167844  MEMB      58              0.0000000000
     46183      1318  PPPE      C313          -35.7326761822       -1.2023619217       -2.9634332788  MEMB      58              0.0000000000
     46184      1318  PPPE      H13X          -35.2370778313       -1.4633348326       -3.9229104356  MEMB      58              0.0000000000
     46185      1318  PPPE      H13Y          -36.3004026160       -2.0313019529       -2.4892327716  MEMB      58              0.0000000000
     46186      1318  PPPE      C314          -34.6290832716       -0.9537307378       -1.8807830694  MEMB      58              0.0000000000
     46187      1318  PPPE      H14X          -35.1325201567       -0.5478288263       -0.9773917140  MEMB      58              0.0000000000
     46188      1318  PPPE      H14Y          -33.8493641194       -0.2545400869       -2.2515815016  MEMB      58              0.0000000000
     46189      1318  PPPE      C315          -34.0916892385       -2.3072308784       -1.4019932369  MEMB      58              0.0000000000
     46190      1318  PPPE      H15X          -33.6242637978       -2.7457366570       -2.3094882173  MEMB      58              0.0000000000
     46191      1318  PPPE      H15Y          -34.8746504949       -2.9449185677       -0.9386930300  MEMB      58              0.0000000000
     46192      1318  PPPE      C316          -32.9173265243       -2.1200536947       -0.3858889252  MEMB      58              0.0000000000
     46193      1318  PPPE      H16X          -33.2793561317       -1.5481273763        0.4951081518  MEMB      58              0.0000000000
     46194      1318  PPPE      H16Y          -32.6228798085       -3.1602642496       -0.1297949323  MEMB      58              0.0000000000
     46195      1318  PPPE      H16Z          -32.0220848794       -1.6534914973       -0.8497672641  MEMB      58              0.0000000000
     46196      1319  PVPG      C13             9.9923616121       31.5504064202      -16.9296121490  MEMB      59              0.0000000000
     46197      1319  PVPG      H13A            9.5443693317       32.2661705682      -16.2075973467  MEMB      59              0.0000000000
     46198      1319  PVPG      H13B            9.8734567636       30.5531139091      -16.4546484249  MEMB      59              0.0000000000
     46199      1319  PVPG      OC3            11.4011163740       31.8040246023      -17.0841912013  MEMB      59              0.0000000000
     46200      1319  PVPG      HO3            11.8326929671       31.1051820999      -17.5811425201  MEMB      59              0.0000000000
     46201      1319  PVPG      C12             9.3147743574       31.6601816958      -18.3209530726  MEMB      59              0.0000000000
     46202      1319  PVPG      H12A            8.4197505091       30.9957198360      -18.3067478732  MEMB      59              0.0000000000
     46203      1319  PVPG      OC2            10.1991327450       31.1865882134      -19.3376439528  MEMB      59              0.0000000000
     46204      1319  PVPG      HO2             9.7307666250       31.4262030701      -20.1670622659  MEMB      59              0.0000000000
     46205      1319  PVPG      C11             8.8936388750       33.1322998939      -18.5115025111  MEMB      59              0.0000000000
     46206      1319  PVPG      H11A            9.7936200293       33.7787126679      -18.4308461954  MEMB      59              0.0000000000
     46207      1319  PVPG      H11B            8.3149584917       33.3725993747      -17.5940570138  MEMB      59              0.0000000000
     46208      1319  PVPG      P               7.9684587944       34.9583459346      -20.0252803802  MEMB      59              0.0000000000
     46209      1319  PVPG      O13             6.6903496948       35.1154198690      -20.7773042425  MEMB      59              0.0000000000
     46210      1319  PVPG      O14             9.2334629686       35.3625855533      -20.6699609732  MEMB      59              0.0000000000
     46211      1319  PVPG      O12             8.1471879923       33.3987298305      -19.7343787502  MEMB      59              0.0000000000
     46212      1319  PVPG      O11             7.8015283789       35.6185939846      -18.6091727680  MEMB      59              0.0000000000
     46213      1319  PVPG      C1              6.5580522932       35.6861891133      -17.9045311386  MEMB      59              0.0000000000
     46214      1319  PVPG      HA              6.0933318401       34.6869849864      -17.7632968898  MEMB      59              0.0000000000
     46215      1319  PVPG      HB              5.8320827391       36.3455790982      -18.4265410159  MEMB      59              0.0000000000
     46216      1319  PVPG      C2              6.7411201661       36.2848930597      -16.5659569647  MEMB      59              0.0000000000
     46217      1319  PVPG      HS              7.0706720394       37.3364537856      -16.7071545695  MEMB      59              0.0000000000
     46218      1319  PVPG      O21             7.7211289957       35.4659462226      -15.8218196427  MEMB      59              0.0000000000
     46219      1319  PVPG      C21             8.9229034295       36.0734887562      -15.8015355273  MEMB      59              0.0000000000
     46220      1319  PVPG      O22             9.2221867872       37.0764326087      -16.2756049841  MEMB      59              0.0000000000
     46221      1319  PVPG      C22             9.9053807284       35.0328555987      -15.2927896716  MEMB      59              0.0000000000
     46222      1319  PVPG      H2R            10.2668157266       34.5046637365      -16.2009190426  MEMB      59              0.0000000000
     46223      1319  PVPG      H2S             9.4285934426       34.2953362897      -14.6123043165  MEMB      59              0.0000000000
     46224      1319  PVPG      C3              5.4429354049       36.3621707657      -15.7430578394  MEMB      59              0.0000000000
     46225      1319  PVPG      HX              4.5381363831       36.6169419855      -16.3352999119  MEMB      59              0.0000000000
     46226      1319  PVPG      HY              5.1637975875       35.3584467943      -15.3571286246  MEMB      59              0.0000000000
     46227      1319  PVPG      O31             5.5133978448       37.2478290055      -14.6120069012  MEMB      59              0.0000000000
     46228      1319  PVPG      C31             5.9061161169       36.8506570721      -13.5261193020  MEMB      59              0.0000000000
     46229      1319  PVPG      O32             6.4271744103       35.7565951538      -13.3261732454  MEMB      59              0.0000000000
     46230      1319  PVPG      C32             5.6217819944       38.0071259485      -12.5301520451  MEMB      59              0.0000000000
     46231      1319  PVPG      H2X             4.6585454749       37.7932475685      -12.0195129529  MEMB      59              0.0000000000
     46232      1319  PVPG      H2Y             5.5064862856       38.9766574714      -13.0602808805  MEMB      59              0.0000000000
     46233      1319  PVPG      C23            11.0816143376       35.6163651911      -14.3794070526  MEMB      59              0.0000000000
     46234      1319  PVPG      H3R            10.6603267697       36.3944466473      -13.7075238099  MEMB      59              0.0000000000
     46235      1319  PVPG      H3S            11.7326313521       36.1641927645      -15.0938178479  MEMB      59              0.0000000000
     46236      1319  PVPG      C24            11.8980118729       34.6473623306      -13.5939982992  MEMB      59              0.0000000000
     46237      1319  PVPG      H4R            12.8004034870       35.0840999764      -13.1151765147  MEMB      59              0.0000000000
     46238      1319  PVPG      H4S            12.4001812562       33.9235541156      -14.2709390002  MEMB      59              0.0000000000
     46239      1319  PVPG      C25            11.0025736161       33.8305152232      -12.6456995927  MEMB      59              0.0000000000
     46240      1319  PVPG      H5R            10.3608084000       33.1609593312      -13.2573806572  MEMB      59              0.0000000000
     46241      1319  PVPG      H5S            10.3596803678       34.6166594026      -12.1951595380  MEMB      59              0.0000000000
     46242      1319  PVPG      C26            11.7849101208       32.9758704688      -11.6882528749  MEMB      59              0.0000000000
     46243      1319  PVPG      H6R            12.3895797549       32.3187747467      -12.3492525268  MEMB      59              0.0000000000
     46244      1319  PVPG      H6S            11.0033352150       32.3467839331      -11.2110613047  MEMB      59              0.0000000000
     46245      1319  PVPG      C27            12.6637134547       33.6641808541      -10.6359483900  MEMB      59              0.0000000000
     46246      1319  PVPG      H7R            11.9817247494       34.4235688881      -10.1971524562  MEMB      59              0.0000000000
     46247      1319  PVPG      H7S            13.5361696756       34.1677392619      -11.1045316533  MEMB      59              0.0000000000
     46248      1319  PVPG      C28            13.2310064449       32.7349337906       -9.6032559014  MEMB      59              0.0000000000
     46249      1319  PVPG      H8R            14.0473834392       32.1257180581      -10.0467713863  MEMB      59              0.0000000000
     46250      1319  PVPG      H8S            12.5460001252       31.8619804829       -9.5481205062  MEMB      59              0.0000000000
     46251      1319  PVPG      C29            13.6142250036       33.4603053318       -8.3148144041  MEMB      59              0.0000000000
     46252      1319  PVPG      H9R            12.8510793338       34.1737725947       -7.9368011918  MEMB      59              0.0000000000
     46253      1319  PVPG      H9S            14.5079432763       34.0270941457       -8.6529551418  MEMB      59              0.0000000000
     46254      1319  PVPG      C210           14.2344745331       32.5326824562       -7.2498435219  MEMB      59              0.0000000000
     46255      1319  PVPG      H10R           14.6545263647       33.1685242719       -6.4413982259  MEMB      59              0.0000000000
     46256      1319  PVPG      H10S           15.0800365158       31.9655581354       -7.6944952681  MEMB      59              0.0000000000
     46257      1319  PVPG      C211           13.3505936969       31.4473659032       -6.8394461061  MEMB      59              0.0000000000
     46258      1319  PVPG      H111           13.6070719180       30.4715521975       -7.2776312583  MEMB      59              0.0000000000
     46259      1319  PVPG      C212           12.3308266642       31.4785021715       -5.9724421501  MEMB      59              0.0000000000
     46260      1319  PVPG      H121           11.7394785699       30.6055492281       -5.6589763529  MEMB      59              0.0000000000
     46261      1319  PVPG      C213           11.9731543616       32.7949656312       -5.2866329980  MEMB      59              0.0000000000
     46262      1319  PVPG      H13R           10.8873282162       33.0300878418       -5.2911487569  MEMB      59              0.0000000000
     46263      1319  PVPG      H13S           12.4332638227       33.7448502593       -5.6335325263  MEMB      59              0.0000000000
     46264      1319  PVPG      C214           12.1495733294       32.7795607795       -3.7451437608  MEMB      59              0.0000000000
     46265      1319  PVPG      H14R           12.0183169985       33.8357798125       -3.4265628045  MEMB      59              0.0000000000
     46266      1319  PVPG      H14S           13.2182179226       32.5586418003       -3.5365417418  MEMB      59              0.0000000000
     46267      1319  PVPG      C215           11.1810007704       31.7519288995       -3.0063406774  MEMB      59              0.0000000000
     46268      1319  PVPG      H15R           11.2144167695       30.7386444446       -3.4607182009  MEMB      59              0.0000000000
     46269      1319  PVPG      H15S           10.1188931597       32.0713491366       -3.0712941129  MEMB      59              0.0000000000
     46270      1319  PVPG      C216           11.5080306340       31.7993374587       -1.4842463786  MEMB      59              0.0000000000
     46271      1319  PVPG      H16R           11.4491002385       32.8188761974       -1.0467668089  MEMB      59              0.0000000000
     46272      1319  PVPG      H16S           12.5085488686       31.3182896793       -1.4409244301  MEMB      59              0.0000000000
     46273      1319  PVPG      C217           10.6155354467       30.9098534773       -0.6554507954  MEMB      59              0.0000000000
     46274      1319  PVPG      H17R           10.4882850606       29.9428295885       -1.1874225178  MEMB      59              0.0000000000
     46275      1319  PVPG      H17S            9.5859568134       31.3236777211       -0.6003302136  MEMB      59              0.0000000000
     46276      1319  PVPG      C218           11.0894240838       30.5095481847        0.6958686840  MEMB      59              0.0000000000
     46277      1319  PVPG      H18R           11.0143742960       31.4397032654        1.2987770731  MEMB      59              0.0000000000
     46278      1319  PVPG      H18S           10.4119799084       29.8160313698        1.2384773173  MEMB      59              0.0000000000
     46279      1319  PVPG      H18T           12.1624447021       30.2234110583        0.6631100350  MEMB      59              0.0000000000
     46280      1319  PVPG      C33             6.8336848562       38.0071523453      -11.5639647832  MEMB      59              0.0000000000
     46281      1319  PVPG      H3X             6.8519336489       38.9609782231      -10.9945749173  MEMB      59              0.0000000000
     46282      1319  PVPG      H3Y             7.8276646516       38.0355728919      -12.0594617727  MEMB      59              0.0000000000
     46283      1319  PVPG      C34             6.8368933665       36.9791508666      -10.4226107858  MEMB      59              0.0000000000
     46284      1319  PVPG      H4X             6.8836739745       35.9668278674      -10.8779508437  MEMB      59              0.0000000000
     46285      1319  PVPG      H4Y             5.8743159639       36.9220844746       -9.8707877893  MEMB      59              0.0000000000
     46286      1319  PVPG      C35             7.9882927867       37.2570194077       -9.3112805753  MEMB      59              0.0000000000
     46287      1319  PVPG      H5X             7.6218242876       38.2241604229       -8.9054976511  MEMB      59              0.0000000000
     46288      1319  PVPG      H5Y             9.0235780947       37.4527819338       -9.6636765336  MEMB      59              0.0000000000
     46289      1319  PVPG      C36             8.0915222070       36.2454564994       -8.2036948295  MEMB      59              0.0000000000
     46290      1319  PVPG      H6X             7.0323368284       36.1824763437       -7.8743310967  MEMB      59              0.0000000000
     46291      1319  PVPG      H6Y             8.6038396221       36.7042210537       -7.3311201600  MEMB      59              0.0000000000
     46292      1319  PVPG      C37             8.5834615935       34.8283171543       -8.5505190978  MEMB      59              0.0000000000
     46293      1319  PVPG      H7X             9.6578582122       34.9564277769       -8.8026707419  MEMB      59              0.0000000000
     46294      1319  PVPG      H7Y             8.1490058126       34.2538142166       -9.3964006592  MEMB      59              0.0000000000
     46295      1319  PVPG      C38             8.7438896643       33.8797327581       -7.3499889444  MEMB      59              0.0000000000
     46296      1319  PVPG      H8X             8.8727169201       34.4270297015       -6.3917668891  MEMB      59              0.0000000000
     46297      1319  PVPG      H8Y             9.5943937350       33.1716568795       -7.4479295497  MEMB      59              0.0000000000
     46298      1319  PVPG      C39             7.5483401266       32.9888115366       -7.0551035193  MEMB      59              0.0000000000
     46299      1319  PVPG      H9X             7.2140913167       32.4662267760       -7.9767884775  MEMB      59              0.0000000000
     46300      1319  PVPG      H9Y             6.6861514224       33.5733197327       -6.6687072076  MEMB      59              0.0000000000
     46301      1319  PVPG      C310            7.8212693262       32.0582636565       -5.8221921651  MEMB      59              0.0000000000
     46302      1319  PVPG      H10X            8.7931678952       31.5457688033       -5.9867614779  MEMB      59              0.0000000000
     46303      1319  PVPG      H10Y            7.0229417888       31.2918579836       -5.7241280465  MEMB      59              0.0000000000
     46304      1319  PVPG      C311            7.9724630821       32.7890168351       -4.3765248298  MEMB      59              0.0000000000
     46305      1319  PVPG      H11X            8.8271725133       33.4575313720       -4.1380269282  MEMB      59              0.0000000000
     46306      1319  PVPG      H11Y            8.1149291714       31.8723283259       -3.7652089909  MEMB      59              0.0000000000
     46307      1319  PVPG      C312            6.6182479654       33.5407338226       -4.0180471947  MEMB      59              0.0000000000
     46308      1319  PVPG      H12X            5.9111383077       32.8557884744       -4.5329898751  MEMB      59              0.0000000000
     46309      1319  PVPG      H12Y            6.6443871001       34.5544672807       -4.4718998326  MEMB      59              0.0000000000
     46310      1319  PVPG      C313            6.3429260201       33.6850871687       -2.5453773299  MEMB      59              0.0000000000
     46311      1319  PVPG      H13X            6.4864221879       32.6909771533       -2.0705346373  MEMB      59              0.0000000000
     46312      1319  PVPG      H13Y            5.3311309591       34.1403679699       -2.6029161691  MEMB      59              0.0000000000
     46313      1319  PVPG      C314            7.4129448588       34.5991275125       -1.8377151971  MEMB      59              0.0000000000
     46314      1319  PVPG      H14X            7.4888436144       35.4800446260       -2.5104303485  MEMB      59              0.0000000000
     46315      1319  PVPG      H14Y            8.4200302565       34.1303892500       -1.8573208906  MEMB      59              0.0000000000
     46316      1319  PVPG      C315            7.0956021182       35.0799073083       -0.4952756662  MEMB      59              0.0000000000
     46317      1319  PVPG      H15X            8.0496872727       35.6100879003       -0.2880292389  MEMB      59              0.0000000000
     46318      1319  PVPG      H15Y            7.0651084918       34.1815022385        0.1576085684  MEMB      59              0.0000000000
     46319      1319  PVPG      C316            5.8696216513       35.8051449223       -0.3121951293  MEMB      59              0.0000000000
     46320      1319  PVPG      H16X            5.7542220059       36.4782280532       -1.1885293780  MEMB      59              0.0000000000
     46321      1319  PVPG      H16Y            4.9280719172       35.2161259050       -0.3415492125  MEMB      59              0.0000000000
     46322      1319  PVPG      H16Z            5.9221726555       36.4141957283        0.6154995341  MEMB      59              0.0000000000
     46323      1320  PPPE      N              18.2232974122      -26.1358372504      -20.7204878987  MEMB      60              0.0000000000
     46324      1320  PPPE      HN1            17.1927169969      -26.2554529044      -20.7925718972  MEMB      60              0.0000000000
     46325      1320  PPPE      HN2            18.4711025226      -25.7451042759      -19.7890801631  MEMB      60              0.0000000000
     46326      1320  PPPE      HN3            18.6028090827      -25.5604698005      -21.4992838858  MEMB      60              0.0000000000
     46327      1320  PPPE      C12            18.8407039174      -27.5257000044      -20.7959948719  MEMB      60              0.0000000000
     46328      1320  PPPE      H12A           18.8532781706      -27.8070125644      -21.8707162924  MEMB      60              0.0000000000
     46329      1320  PPPE      H12B           18.1425854465      -28.1840938780      -20.2361117519  MEMB      60              0.0000000000
     46330      1320  PPPE      C11            20.3383882878      -27.5720268595      -20.2885757650  MEMB      60              0.0000000000
     46331      1320  PPPE      H11A           20.9467952510      -26.8721704766      -20.9004278799  MEMB      60              0.0000000000
     46332      1320  PPPE      H11B           20.8136705838      -28.5464654263      -20.5312632564  MEMB      60              0.0000000000
     46333      1320  PPPE      P              21.5898832372      -28.1873326962      -18.0906604668  MEMB      60              0.0000000000
     46334      1320  PPPE      O13            21.0483581859      -29.5356854201      -17.6252265199  MEMB      60              0.0000000000
     46335      1320  PPPE      O14            22.8810622170      -28.1015411851      -18.7447823290  MEMB      60              0.0000000000
     46336      1320  PPPE      O11            21.7911881058      -27.2629358600      -16.7923690311  MEMB      60              0.0000000000
     46337      1320  PPPE      O12            20.5536290288      -27.3502495285      -18.9419030258  MEMB      60              0.0000000000
     46338      1320  PPPE      C1             21.6677470006      -25.8711653500      -16.7717924039  MEMB      60              0.0000000000
     46339      1320  PPPE      HA             21.1527443805      -25.5273157348      -17.6942135352  MEMB      60              0.0000000000
     46340      1320  PPPE      HB             22.6850042789      -25.4497987783      -16.6236072424  MEMB      60              0.0000000000
     46341      1320  PPPE      C2             20.6795966404      -25.5355098245      -15.5697592829  MEMB      60              0.0000000000
     46342      1320  PPPE      HS             20.4145845713      -24.4732651284      -15.3807465614  MEMB      60              0.0000000000
     46343      1320  PPPE      O21            21.3226376846      -26.1038510323      -14.4376036011  MEMB      60              0.0000000000
     46344      1320  PPPE      C21            20.7604346185      -26.0234207220      -13.2275932501  MEMB      60              0.0000000000
     46345      1320  PPPE      O22            19.6407194068      -25.6743093346      -12.9906604509  MEMB      60              0.0000000000
     46346      1320  PPPE      C22            21.8806780274      -26.3201173882      -12.1575587283  MEMB      60              0.0000000000
     46347      1320  PPPE      H2R            22.7001807908      -25.5720787264      -12.2139003775  MEMB      60              0.0000000000
     46348      1320  PPPE      H2S            22.4221329060      -27.2646149837      -12.3790805246  MEMB      60              0.0000000000
     46349      1320  PPPE      C3             19.3231549723      -26.1194132399      -15.8698007779  MEMB      60              0.0000000000
     46350      1320  PPPE      HX             18.5050180844      -25.5561193097      -15.3721332374  MEMB      60              0.0000000000
     46351      1320  PPPE      HY             19.0645915727      -26.0090287240      -16.9446408716  MEMB      60              0.0000000000
     46352      1320  PPPE      O31            19.3291169489      -27.5297372654      -15.5190465481  MEMB      60              0.0000000000
     46353      1320  PPPE      C31            18.0963622056      -28.0515525634      -15.4144514736  MEMB      60              0.0000000000
     46354      1320  PPPE      O32            16.9886239288      -27.5651582453      -15.8003387150  MEMB      60              0.0000000000
     46355      1320  PPPE      C32            18.2972683033      -29.4814633361      -14.9305562837  MEMB      60              0.0000000000
     46356      1320  PPPE      H2X            19.0886919383      -29.3828374632      -14.1570948643  MEMB      60              0.0000000000
     46357      1320  PPPE      H2Y            18.5967054602      -30.1479523704      -15.7674856452  MEMB      60              0.0000000000
     46358      1320  PPPE      C23            21.2879092756      -26.5192128383      -10.7389377011  MEMB      60              0.0000000000
     46359      1320  PPPE      H3R            21.9326588066      -27.1796560218      -10.1205253437  MEMB      60              0.0000000000
     46360      1320  PPPE      H3S            20.2294451176      -26.8497968257      -10.8074129062  MEMB      60              0.0000000000
     46361      1320  PPPE      C24            21.3115870911      -25.1604089660       -9.9443283535  MEMB      60              0.0000000000
     46362      1320  PPPE      H4R            21.6529921522      -24.3093350383      -10.5715737232  MEMB      60              0.0000000000
     46363      1320  PPPE      H4S            22.0277140578      -25.2296659438       -9.0977548843  MEMB      60              0.0000000000
     46364      1320  PPPE      C25            19.9310548181      -24.9173857157       -9.2794064243  MEMB      60              0.0000000000
     46365      1320  PPPE      H5R            19.1655791803      -24.8007120371      -10.0761217441  MEMB      60              0.0000000000
     46366      1320  PPPE      H5S            20.2333657172      -24.0010693538       -8.7286855826  MEMB      60              0.0000000000
     46367      1320  PPPE      C26            19.4038270915      -26.0363921421       -8.3489885412  MEMB      60              0.0000000000
     46368      1320  PPPE      H6R            20.1978926133      -26.2599805147       -7.6048184083  MEMB      60              0.0000000000
     46369      1320  PPPE      H6S            19.2164223688      -26.9745418792       -8.9138562607  MEMB      60              0.0000000000
     46370      1320  PPPE      C27            18.0957485898      -25.6385429203       -7.6633768837  MEMB      60              0.0000000000
     46371      1320  PPPE      H7R            17.7817444436      -26.4915460355       -7.0245435082  MEMB      60              0.0000000000
     46372      1320  PPPE      H7S            17.2978900883      -25.4897181062       -8.4220559899  MEMB      60              0.0000000000
     46373      1320  PPPE      C28            18.1184671304      -24.3837117130       -6.8011628736  MEMB      60              0.0000000000
     46374      1320  PPPE      H8R            17.1053434286      -24.0473063372       -6.4933759540  MEMB      60              0.0000000000
     46375      1320  PPPE      H8S            18.6758470419      -23.6181864834       -7.3822134368  MEMB      60              0.0000000000
     46376      1320  PPPE      C29            18.9285462637      -24.7558798520       -5.5871284124  MEMB      60              0.0000000000
     46377      1320  PPPE      H91            20.0230106785      -24.6530050065       -5.6266810454  MEMB      60              0.0000000000
     46378      1320  PPPE      C210           18.4227333608      -25.0949405592       -4.3726136551  MEMB      60              0.0000000000
     46379      1320  PPPE      H101           19.1239236032      -25.2403090840       -3.5376284840  MEMB      60              0.0000000000
     46380      1320  PPPE      C211           16.9376796028      -25.2486371854       -3.9392548454  MEMB      60              0.0000000000
     46381      1320  PPPE      H11R           16.1910765209      -25.3254071688       -4.7584075832  MEMB      60              0.0000000000
     46382      1320  PPPE      H11S           16.6781432415      -24.2529592609       -3.5202234053  MEMB      60              0.0000000000
     46383      1320  PPPE      C212           16.5901969517      -26.4662951419       -2.9961047168  MEMB      60              0.0000000000
     46384      1320  PPPE      H12R           16.7931263849      -27.3119315748       -3.6875088450  MEMB      60              0.0000000000
     46385      1320  PPPE      H12S           15.4941795743      -26.4825470637       -2.8149893296  MEMB      60              0.0000000000
     46386      1320  PPPE      C213           17.2944282269      -26.5300959768       -1.5949459398  MEMB      60              0.0000000000
     46387      1320  PPPE      H13R           18.3884951369      -26.7133197789       -1.6563270029  MEMB      60              0.0000000000
     46388      1320  PPPE      H13S           16.9632981889      -27.4299264871       -1.0337160843  MEMB      60              0.0000000000
     46389      1320  PPPE      C214           17.1425427492      -25.2122142215       -0.7363732016  MEMB      60              0.0000000000
     46390      1320  PPPE      H14R           17.0586225388      -24.3743805482       -1.4611580898  MEMB      60              0.0000000000
     46391      1320  PPPE      H14S           18.1085626877      -25.0072689236       -0.2273310589  MEMB      60              0.0000000000
     46392      1320  PPPE      C215           16.0752789468      -25.2092823109        0.3065947059  MEMB      60              0.0000000000
     46393      1320  PPPE      H15R           15.1429034530      -25.6963460667       -0.0508487670  MEMB      60              0.0000000000
     46394      1320  PPPE      H15S           15.8441339164      -24.2046989517        0.7209680272  MEMB      60              0.0000000000
     46395      1320  PPPE      C216           16.5096485749      -25.9761879964        1.5738448817  MEMB      60              0.0000000000
     46396      1320  PPPE      H16R           15.7649140143      -25.6817041937        2.3438908051  MEMB      60              0.0000000000
     46397      1320  PPPE      H16S           16.5419671981      -27.0550262489        1.3104354448  MEMB      60              0.0000000000
     46398      1320  PPPE      H16T           17.5507747295      -25.7473291795        1.8868959515  MEMB      60              0.0000000000
     46399      1320  PPPE      C33            17.0344915090      -29.9209537473      -14.1427377922  MEMB      60              0.0000000000
     46400      1320  PPPE      H3X            16.1703734393      -30.1198506999      -14.8121113531  MEMB      60              0.0000000000
     46401      1320  PPPE      H3Y            16.8208664734      -29.0971289315      -13.4285963376  MEMB      60              0.0000000000
     46402      1320  PPPE      C34            17.2255133219      -31.2355590804      -13.3067229058  MEMB      60              0.0000000000
     46403      1320  PPPE      H4X            17.5804338556      -32.1034403497      -13.9026545436  MEMB      60              0.0000000000
     46404      1320  PPPE      H4Y            16.2221060056      -31.5483245544      -12.9466222031  MEMB      60              0.0000000000
     46405      1320  PPPE      C35            18.0778653838      -31.1309497580      -12.0675456678  MEMB      60              0.0000000000
     46406      1320  PPPE      H5X            19.1159710763      -30.9908838129      -12.4377335962  MEMB      60              0.0000000000
     46407      1320  PPPE      H5Y            18.0497033017      -32.0574530729      -11.4550756648  MEMB      60              0.0000000000
     46408      1320  PPPE      C36            17.8629385641      -29.8608987752      -11.2089140309  MEMB      60              0.0000000000
     46409      1320  PPPE      H6X            16.7674689179      -29.7486498860      -11.0617153857  MEMB      60              0.0000000000
     46410      1320  PPPE      H6Y            18.3626590655      -29.0579201043      -11.7918597182  MEMB      60              0.0000000000
     46411      1320  PPPE      C37            18.6406285429      -30.0178165119       -9.8468123560  MEMB      60              0.0000000000
     46412      1320  PPPE      H7X            18.5526904550      -29.0671977991       -9.2785589305  MEMB      60              0.0000000000
     46413      1320  PPPE      H7Y            19.7333284968      -30.1517024339       -9.9964865712  MEMB      60              0.0000000000
     46414      1320  PPPE      C38            18.0540153235      -31.1171347781       -8.9516392303  MEMB      60              0.0000000000
     46415      1320  PPPE      H8X            18.1918671013      -32.0891097393       -9.4718147411  MEMB      60              0.0000000000
     46416      1320  PPPE      H8Y            16.9714903540      -30.8848601693       -8.8593939240  MEMB      60              0.0000000000
     46417      1320  PPPE      C39            18.7374991467      -31.3405688185       -7.5914900432  MEMB      60              0.0000000000
     46418      1320  PPPE      H9X            19.8197945852      -31.3845953909       -7.8385107806  MEMB      60              0.0000000000
     46419      1320  PPPE      H9Y            18.3721940517      -32.2808792218       -7.1259908133  MEMB      60              0.0000000000
     46420      1320  PPPE      C310           18.5871373690      -30.2663687164       -6.5388809092  MEMB      60              0.0000000000
     46421      1320  PPPE      H10X           17.5393354228      -29.9105930269       -6.4396048274  MEMB      60              0.0000000000
     46422      1320  PPPE      H10Y           19.1377208942      -29.3368958058       -6.7982240991  MEMB      60              0.0000000000
     46423      1320  PPPE      C311           19.1629998263      -30.7048779758       -5.1833327249  MEMB      60              0.0000000000
     46424      1320  PPPE      H11X           20.2258735080      -31.0169593050       -5.2683373177  MEMB      60              0.0000000000
     46425      1320  PPPE      H11Y           18.6779372319      -31.6268037719       -4.7972134347  MEMB      60              0.0000000000
     46426      1320  PPPE      C312           19.2655368965      -29.5374034567       -4.1386757142  MEMB      60              0.0000000000
     46427      1320  PPPE      H12X           18.2174528584      -29.2370717175       -3.9250365431  MEMB      60              0.0000000000
     46428      1320  PPPE      H12Y           19.7685946919      -28.6478115961       -4.5744281394  MEMB      60              0.0000000000
     46429      1320  PPPE      C313           19.9790609921      -29.8554126427       -2.7973232555  MEMB      60              0.0000000000
     46430      1320  PPPE      H13X           20.2130179962      -28.9328040089       -2.2242801251  MEMB      60              0.0000000000
     46431      1320  PPPE      H13Y           20.9775594440      -30.2412793522       -3.0946929309  MEMB      60              0.0000000000
     46432      1320  PPPE      C314           19.2695594282      -30.8265190547       -1.8534582468  MEMB      60              0.0000000000
     46433      1320  PPPE      H14X           20.0230337409      -31.0855156697       -1.0791726317  MEMB      60              0.0000000000
     46434      1320  PPPE      H14Y           18.8960372467      -31.7368641815       -2.3692817922  MEMB      60              0.0000000000
     46435      1320  PPPE      C315           18.1812217718      -30.1426109744       -1.1052133982  MEMB      60              0.0000000000
     46436      1320  PPPE      H15X           17.3711994904      -29.8922200579       -1.8231892283  MEMB      60              0.0000000000
     46437      1320  PPPE      H15Y           18.4065078156      -29.1173641265       -0.7412956887  MEMB      60              0.0000000000
     46438      1320  PPPE      C316           17.6436257212      -30.9545188672        0.1268570838  MEMB      60              0.0000000000
     46439      1320  PPPE      H16X           18.4673405484      -31.2048270977        0.8291110786  MEMB      60              0.0000000000
     46440      1320  PPPE      H16Y           16.7819793543      -30.4210479697        0.5821540634  MEMB      60              0.0000000000
     46441      1320  PPPE      H16Z           17.4247271000      -31.9944625364       -0.1970588906  MEMB      60              0.0000000000
     46442      1321  PPPE      N             -30.1168181599       14.9280115061      -17.3679212944  MEMB      61              0.0000000000
     46443      1321  PPPE      HN1           -31.0075146902       15.3314952589      -17.0137171833  MEMB      61              0.0000000000
     46444      1321  PPPE      HN2           -29.7993031650       14.1034533797      -16.8193885934  MEMB      61              0.0000000000
     46445      1321  PPPE      HN3           -29.4948409806       15.7423128850      -17.1899953191  MEMB      61              0.0000000000
     46446      1321  PPPE      C12           -30.1525788002       14.5412654639      -18.8098613243  MEMB      61              0.0000000000
     46447      1321  PPPE      H12A          -31.0825630043       13.9719183318      -19.0226857197  MEMB      61              0.0000000000
     46448      1321  PPPE      H12B          -29.2910126995       13.9477645257      -19.1837349532  MEMB      61              0.0000000000
     46449      1321  PPPE      C11           -30.2078150711       15.8399278750      -19.6410824115  MEMB      61              0.0000000000
     46450      1321  PPPE      H11A          -30.2058346889       15.4620293267      -20.6858358587  MEMB      61              0.0000000000
     46451      1321  PPPE      H11B          -29.3560699236       16.5058217720      -19.3852767789  MEMB      61              0.0000000000
     46452      1321  PPPE      P             -31.8541256058       17.9399490896      -19.2420417871  MEMB      61              0.0000000000
     46453      1321  PPPE      O13           -31.6094985080       18.5805753691      -20.5312138226  MEMB      61              0.0000000000
     46454      1321  PPPE      O14           -33.2218385196       18.1115339111      -18.6948683638  MEMB      61              0.0000000000
     46455      1321  PPPE      O11           -30.7061648415       18.3708310287      -18.2387490310  MEMB      61              0.0000000000
     46456      1321  PPPE      O12           -31.5048173052       16.4445545132      -19.4742617269  MEMB      61              0.0000000000
     46457      1321  PPPE      C1            -30.7924101394       19.7689349219      -17.7959613963  MEMB      61              0.0000000000
     46458      1321  PPPE      HA            -31.6702961494       20.0410149657      -17.1717742425  MEMB      61              0.0000000000
     46459      1321  PPPE      HB            -30.7117103903       20.5039630240      -18.6251430650  MEMB      61              0.0000000000
     46460      1321  PPPE      C2            -29.5419850901       19.9403200653      -16.8659262665  MEMB      61              0.0000000000
     46461      1321  PPPE      HS            -28.6716649189       20.0852344273      -17.5411030042  MEMB      61              0.0000000000
     46462      1321  PPPE      O21           -29.6090661798       18.7308196281      -15.9994190073  MEMB      61              0.0000000000
     46463      1321  PPPE      C21           -28.5109015348       18.5558047124      -15.1869466109  MEMB      61              0.0000000000
     46464      1321  PPPE      O22           -27.5523847146       19.3312386336      -15.0946406440  MEMB      61              0.0000000000
     46465      1321  PPPE      C22           -28.6663271335       17.3270076476      -14.4773093222  MEMB      61              0.0000000000
     46466      1321  PPPE      H2R           -27.9947623417       16.5872828467      -14.9632403350  MEMB      61              0.0000000000
     46467      1321  PPPE      H2S           -29.7290754794       17.0032420979      -14.4693832788  MEMB      61              0.0000000000
     46468      1321  PPPE      C3            -29.7397752163       21.2991880541      -16.1391450427  MEMB      61              0.0000000000
     46469      1321  PPPE      HX            -28.8037547415       21.6025474629      -15.6232383265  MEMB      61              0.0000000000
     46470      1321  PPPE      HY            -29.7636302334       22.1364200038      -16.8690728477  MEMB      61              0.0000000000
     46471      1321  PPPE      O31           -30.8731839019       21.3416166208      -15.3652426982  MEMB      61              0.0000000000
     46472      1321  PPPE      C31           -30.7515315195       21.1050654283      -13.9812980452  MEMB      61              0.0000000000
     46473      1321  PPPE      O32           -29.7432856576       20.6339695703      -13.5081977100  MEMB      61              0.0000000000
     46474      1321  PPPE      C32           -32.0662233022       21.4397623957      -13.2692556964  MEMB      61              0.0000000000
     46475      1321  PPPE      H2X           -32.9772072445       21.0002323082      -13.7288670095  MEMB      61              0.0000000000
     46476      1321  PPPE      H2Y           -32.3187819884       22.5163135565      -13.3768322190  MEMB      61              0.0000000000
     46477      1321  PPPE      C23           -28.3605937778       17.5858201977      -12.9719797422  MEMB      61              0.0000000000
     46478      1321  PPPE      H3R           -29.2420031150       18.0680603653      -12.4977614369  MEMB      61              0.0000000000
     46479      1321  PPPE      H3S           -27.4554581801       18.2185002750      -12.8504623783  MEMB      61              0.0000000000
     46480      1321  PPPE      C24           -27.9723528566       16.2558261507      -12.2310749629  MEMB      61              0.0000000000
     46481      1321  PPPE      H4R           -27.1928413114       15.6771265974      -12.7712504697  MEMB      61              0.0000000000
     46482      1321  PPPE      H4S           -28.8247701607       15.5436525311      -12.2083929152  MEMB      61              0.0000000000
     46483      1321  PPPE      C25           -27.5143033175       16.3251508831      -10.7818700903  MEMB      61              0.0000000000
     46484      1321  PPPE      H5R           -26.4489000164       16.6363951019      -10.7332507291  MEMB      61              0.0000000000
     46485      1321  PPPE      H5S           -27.6977286660       15.3524144105      -10.2774299090  MEMB      61              0.0000000000
     46486      1321  PPPE      C26           -28.3773940823       17.3446089831      -10.0000457646  MEMB      61              0.0000000000
     46487      1321  PPPE      H6R           -29.4425586678       17.0343151481       -9.9411973013  MEMB      61              0.0000000000
     46488      1321  PPPE      H6S           -28.4347193741       18.2967781134      -10.5696146876  MEMB      61              0.0000000000
     46489      1321  PPPE      C27           -28.0031957830       17.6032426171       -8.5088491389  MEMB      61              0.0000000000
     46490      1321  PPPE      H7R           -26.9095306055       17.7922467463       -8.5587982986  MEMB      61              0.0000000000
     46491      1321  PPPE      H7S           -28.1600316624       16.6916919408       -7.8933827536  MEMB      61              0.0000000000
     46492      1321  PPPE      C28           -28.7595180633       18.8141112212       -7.8833680103  MEMB      61              0.0000000000
     46493      1321  PPPE      H8R           -29.8486490241       18.5961115955       -7.9076767193  MEMB      61              0.0000000000
     46494      1321  PPPE      H8S           -28.7101995033       19.7736228528       -8.4412444381  MEMB      61              0.0000000000
     46495      1321  PPPE      C29           -28.3300023833       18.8116839433       -6.4441759771  MEMB      61              0.0000000000
     46496      1321  PPPE      H91           -27.3303814443       19.2255392773       -6.2454758494  MEMB      61              0.0000000000
     46497      1321  PPPE      C210          -28.9123251859       18.1930082274       -5.3949146572  MEMB      61              0.0000000000
     46498      1321  PPPE      H101          -28.3020855862       18.1959060242       -4.4797101808  MEMB      61              0.0000000000
     46499      1321  PPPE      C211          -30.1754624995       17.3295158820       -5.2758335401  MEMB      61              0.0000000000
     46500      1321  PPPE      H11R          -30.9207490767       17.5806683847       -6.0605572737  MEMB      61              0.0000000000
     46501      1321  PPPE      H11S          -30.6023105633       17.5943620508       -4.2848853894  MEMB      61              0.0000000000
     46502      1321  PPPE      C212          -30.0112548872       15.8388557364       -4.9444969939  MEMB      61              0.0000000000
     46503      1321  PPPE      H12R          -29.4897113226       15.3120783124       -5.7720348212  MEMB      61              0.0000000000
     46504      1321  PPPE      H12S          -30.9994348742       15.3334832194       -4.9936898040  MEMB      61              0.0000000000
     46505      1321  PPPE      C213          -29.2286883707       15.5058530486       -3.5946687760  MEMB      61              0.0000000000
     46506      1321  PPPE      H13R          -28.2304943088       15.9929357852       -3.6207460183  MEMB      61              0.0000000000
     46507      1321  PPPE      H13S          -29.2183685264       14.3950423425       -3.6123909623  MEMB      61              0.0000000000
     46508      1321  PPPE      C214          -29.9060233936       16.0443985518       -2.3047796010  MEMB      61              0.0000000000
     46509      1321  PPPE      H14R          -30.9483013079       15.6597632162       -2.2989996416  MEMB      61              0.0000000000
     46510      1321  PPPE      H14S          -29.7968336323       17.1459940767       -2.2105145721  MEMB      61              0.0000000000
     46511      1321  PPPE      C215          -29.1282169096       15.3190071619       -1.2262213070  MEMB      61              0.0000000000
     46512      1321  PPPE      H15R          -29.2973909530       14.2211664929       -1.2050787338  MEMB      61              0.0000000000
     46513      1321  PPPE      H15S          -29.6104809235       15.6321135578       -0.2755863583  MEMB      61              0.0000000000
     46514      1321  PPPE      C216          -27.6201773103       15.6332805928       -0.9773544739  MEMB      61              0.0000000000
     46515      1321  PPPE      H16R          -27.2440021147       14.7946512913       -0.3532438130  MEMB      61              0.0000000000
     46516      1321  PPPE      H16S          -27.1552268359       15.6063846744       -1.9860262074  MEMB      61              0.0000000000
     46517      1321  PPPE      H16T          -27.5571536620       16.6837430180       -0.6211554944  MEMB      61              0.0000000000
     46518      1321  PPPE      C33           -31.9091344385       21.1536117215      -11.7417154946  MEMB      61              0.0000000000
     46519      1321  PPPE      H3X           -32.7627790893       21.5544744924      -11.1544158701  MEMB      61              0.0000000000
     46520      1321  PPPE      H3Y           -30.9351663494       21.5063289511      -11.3400966236  MEMB      61              0.0000000000
     46521      1321  PPPE      C34           -32.2644613379       19.6939964340      -11.3326656489  MEMB      61              0.0000000000
     46522      1321  PPPE      H4X           -31.4696463807       19.0827656172      -11.8111915858  MEMB      61              0.0000000000
     46523      1321  PPPE      H4Y           -33.2679184452       19.3552477679      -11.6682907003  MEMB      61              0.0000000000
     46524      1321  PPPE      C35           -32.1923231776       19.4302308875       -9.8198712487  MEMB      61              0.0000000000
     46525      1321  PPPE      H5X           -31.3451215241       20.0590869932       -9.4718621158  MEMB      61              0.0000000000
     46526      1321  PPPE      H5Y           -31.8726974338       18.3779938491       -9.6618915073  MEMB      61              0.0000000000
     46527      1321  PPPE      C36           -33.4683146513       19.9140431349       -9.0562944845  MEMB      61              0.0000000000
     46528      1321  PPPE      H6X           -34.4150008281       19.5347162430       -9.4969955074  MEMB      61              0.0000000000
     46529      1321  PPPE      H6Y           -33.6426874284       21.0101625364       -9.1056644389  MEMB      61              0.0000000000
     46530      1321  PPPE      C37           -33.4405242251       19.5320928283       -7.5716534665  MEMB      61              0.0000000000
     46531      1321  PPPE      H7X           -33.1937372369       18.4488638108       -7.5659897136  MEMB      61              0.0000000000
     46532      1321  PPPE      H7Y           -34.4005546046       19.7299996476       -7.0486854355  MEMB      61              0.0000000000
     46533      1321  PPPE      C38           -32.4161566356       20.4834517365       -6.8696747358  MEMB      61              0.0000000000
     46534      1321  PPPE      H8X           -32.6999258208       21.5029013185       -7.2080807043  MEMB      61              0.0000000000
     46535      1321  PPPE      H8Y           -31.3831155386       20.1812103692       -7.1449877357  MEMB      61              0.0000000000
     46536      1321  PPPE      C39           -32.4244149742       20.4297763055       -5.3389333069  MEMB      61              0.0000000000
     46537      1321  PPPE      H9X           -32.1690722661       19.4070662397       -4.9879557823  MEMB      61              0.0000000000
     46538      1321  PPPE      H9Y           -33.3794827761       20.6841092308       -4.8315071971  MEMB      61              0.0000000000
     46539      1321  PPPE      C310          -31.4895091742       21.4699855742       -4.7133225265  MEMB      61              0.0000000000
     46540      1321  PPPE      H10X          -31.8396520415       22.5241646387       -4.7339979394  MEMB      61              0.0000000000
     46541      1321  PPPE      H10Y          -30.5168468836       21.4136702220       -5.2472491595  MEMB      61              0.0000000000
     46542      1321  PPPE      C311          -31.3419026733       21.1106689289       -3.2054046497  MEMB      61              0.0000000000
     46543      1321  PPPE      H11X          -30.6050776653       20.2791591298       -3.2042377734  MEMB      61              0.0000000000
     46544      1321  PPPE      H11Y          -32.2691235823       20.7645845724       -2.7006195431  MEMB      61              0.0000000000
     46545      1321  PPPE      C312          -30.5859336344       22.2151682701       -2.5239877466  MEMB      61              0.0000000000
     46546      1321  PPPE      H12X          -31.3932685863       22.9711434611       -2.4189506776  MEMB      61              0.0000000000
     46547      1321  PPPE      H12Y          -29.8267776586       22.5085657916       -3.2802423987  MEMB      61              0.0000000000
     46548      1321  PPPE      C313          -29.9926696769       21.9564299696       -1.1432672836  MEMB      61              0.0000000000
     46549      1321  PPPE      H13X          -29.4164545965       22.8954397923       -0.9998875983  MEMB      61              0.0000000000
     46550      1321  PPPE      H13Y          -29.2824936664       21.1156016582       -1.2948548319  MEMB      61              0.0000000000
     46551      1321  PPPE      C314          -30.9141825242       21.7890192912       -0.0010995519  MEMB      61              0.0000000000
     46552      1321  PPPE      H14X          -31.6898276310       22.5754914770        0.1178843506  MEMB      61              0.0000000000
     46553      1321  PPPE      H14Y          -30.2857194687       21.8407445495        0.9136024135  MEMB      61              0.0000000000
     46554      1321  PPPE      C315          -31.6003730722       20.4147683954        0.0448085917  MEMB      61              0.0000000000
     46555      1321  PPPE      H15X          -32.2952651544       20.2196827860       -0.7998141639  MEMB      61              0.0000000000
     46556      1321  PPPE      H15Y          -32.3245850736       20.3315887824        0.8832113166  MEMB      61              0.0000000000
     46557      1321  PPPE      C316          -30.7139719461       19.2490941249        0.2024840774  MEMB      61              0.0000000000
     46558      1321  PPPE      H16X          -29.9275038810       19.2925344695        0.9860030109  MEMB      61              0.0000000000
     46559      1321  PPPE      H16Y          -31.1252470278       18.2184419154        0.2566119847  MEMB      61              0.0000000000
     46560      1321  PPPE      H16Z          -30.1856480981       19.1706385133       -0.7717025724  MEMB      61              0.0000000000
     46561      1322  PPPE      N              -4.2949488608      -34.3103880369      -18.0436332572  MEMB      62              0.0000000000
     46562      1322  PPPE      HN1            -5.2937170638      -34.0270046918      -18.1049191165  MEMB      62              0.0000000000
     46563      1322  PPPE      HN2            -4.2357061510      -35.3473335490      -17.9903950560  MEMB      62              0.0000000000
     46564      1322  PPPE      HN3            -3.8117790139      -33.8651793008      -17.2374471247  MEMB      62              0.0000000000
     46565      1322  PPPE      C12            -3.5991684476      -33.8738111939      -19.2499913135  MEMB      62              0.0000000000
     46566      1322  PPPE      H12A           -3.6774632483      -32.7659676392      -19.2795477436  MEMB      62              0.0000000000
     46567      1322  PPPE      H12B           -4.1715535899      -34.1899587679      -20.1481822511  MEMB      62              0.0000000000
     46568      1322  PPPE      C11            -2.1282913507      -34.2603378027      -19.2911622401  MEMB      62              0.0000000000
     46569      1322  PPPE      H11A           -1.5749023918      -33.9454713126      -18.3807004047  MEMB      62              0.0000000000
     46570      1322  PPPE      H11B           -1.6049636691      -33.6619661664      -20.0673068931  MEMB      62              0.0000000000
     46571      1322  PPPE      P              -0.8142376668      -36.4346472577      -19.1257828178  MEMB      62              0.0000000000
     46572      1322  PPPE      O13            -0.7624998990      -37.7238105441      -19.8806247319  MEMB      62              0.0000000000
     46573      1322  PPPE      O14             0.4248196885      -35.5800907581      -19.2083835645  MEMB      62              0.0000000000
     46574      1322  PPPE      O11            -1.1277323036      -36.7599577874      -17.5854002985  MEMB      62              0.0000000000
     46575      1322  PPPE      O12            -1.9679622831      -35.5808749997      -19.6150215365  MEMB      62              0.0000000000
     46576      1322  PPPE      C1             -0.0572728083      -37.1859984340      -16.7652089146  MEMB      62              0.0000000000
     46577      1322  PPPE      HA              0.7001695497      -36.3749315455      -16.7125536525  MEMB      62              0.0000000000
     46578      1322  PPPE      HB              0.3695871678      -38.1102376813      -17.2100609962  MEMB      62              0.0000000000
     46579      1322  PPPE      C2             -0.5781630045      -37.6844504766      -15.3521435572  MEMB      62              0.0000000000
     46580      1322  PPPE      HS             -1.2926239908      -38.5088196927      -15.5625761939  MEMB      62              0.0000000000
     46581      1322  PPPE      O21            -1.1886424073      -36.5974384948      -14.6503297491  MEMB      62              0.0000000000
     46582      1322  PPPE      C21            -2.3722416295      -36.2577011920      -15.1260144934  MEMB      62              0.0000000000
     46583      1322  PPPE      O22            -3.1757390409      -36.9626294227      -15.6532370552  MEMB      62              0.0000000000
     46584      1322  PPPE      C22            -2.6676671890      -34.8422048043      -14.7409473265  MEMB      62              0.0000000000
     46585      1322  PPPE      H2R            -3.5476209331      -34.3711811764      -15.2289423574  MEMB      62              0.0000000000
     46586      1322  PPPE      H2S            -1.8185121582      -34.1952960905      -15.0487879501  MEMB      62              0.0000000000
     46587      1322  PPPE      C3              0.6600906344      -38.1529056595      -14.6400779112  MEMB      62              0.0000000000
     46588      1322  PPPE      HX              0.4814440587      -38.4828740563      -13.5943593744  MEMB      62              0.0000000000
     46589      1322  PPPE      HY              0.9861380062      -39.0530095177      -15.2038395236  MEMB      62              0.0000000000
     46590      1322  PPPE      O31             1.7270489396      -37.1692311264      -14.6656731428  MEMB      62              0.0000000000
     46591      1322  PPPE      C31             1.9972615295      -36.5214870622      -13.5509914774  MEMB      62              0.0000000000
     46592      1322  PPPE      O32             1.5786036951      -36.8498237380      -12.4442459006  MEMB      62              0.0000000000
     46593      1322  PPPE      C32             2.9008824044      -35.2967868681      -13.7680938473  MEMB      62              0.0000000000
     46594      1322  PPPE      H2X             3.5602125750      -35.5115685645      -14.6361223890  MEMB      62              0.0000000000
     46595      1322  PPPE      H2Y             3.4695623795      -35.1637086861      -12.8229937027  MEMB      62              0.0000000000
     46596      1322  PPPE      C23            -2.8904442976      -34.7367271360      -13.1873006595  MEMB      62              0.0000000000
     46597      1322  PPPE      H3R            -2.8837789990      -33.6574136762      -12.9239396347  MEMB      62              0.0000000000
     46598      1322  PPPE      H3S            -1.9702541093      -35.1491418416      -12.7209476517  MEMB      62              0.0000000000
     46599      1322  PPPE      C24            -4.1042153566      -35.4496415662      -12.5614249620  MEMB      62              0.0000000000
     46600      1322  PPPE      H4R            -4.0675289520      -36.5558670504      -12.6575513672  MEMB      62              0.0000000000
     46601      1322  PPPE      H4S            -4.9734084471      -34.9805318405      -13.0701099695  MEMB      62              0.0000000000
     46602      1322  PPPE      C25            -4.3537754693      -34.9338571851      -11.1048618267  MEMB      62              0.0000000000
     46603      1322  PPPE      H5R            -5.2499278648      -35.4705179980      -10.7264083214  MEMB      62              0.0000000000
     46604      1322  PPPE      H5S            -4.4577186718      -33.8485446931      -11.3184352463  MEMB      62              0.0000000000
     46605      1322  PPPE      C26            -3.2188241126      -35.1277393744      -10.0553262383  MEMB      62              0.0000000000
     46606      1322  PPPE      H6R            -3.6024554679      -34.5954197635       -9.1587863257  MEMB      62              0.0000000000
     46607      1322  PPPE      H6S            -2.2473466052      -34.7289341073      -10.4179649174  MEMB      62              0.0000000000
     46608      1322  PPPE      C27            -3.0418614927      -36.6161096643       -9.6535614101  MEMB      62              0.0000000000
     46609      1322  PPPE      H7R            -2.4149217166      -37.0812933062      -10.4440496747  MEMB      62              0.0000000000
     46610      1322  PPPE      H7S            -4.0397994365      -37.0941842590       -9.5541353461  MEMB      62              0.0000000000
     46611      1322  PPPE      C28            -2.5088535880      -36.8212438860       -8.2576467903  MEMB      62              0.0000000000
     46612      1322  PPPE      H8R            -2.5720211206      -37.9299318165       -8.2238542516  MEMB      62              0.0000000000
     46613      1322  PPPE      H8S            -3.2056630366      -36.5044612645       -7.4523975351  MEMB      62              0.0000000000
     46614      1322  PPPE      C29            -1.1860972867      -36.2469667636       -7.7784459328  MEMB      62              0.0000000000
     46615      1322  PPPE      H91            -0.9543957023      -35.2300222068       -8.1279286134  MEMB      62              0.0000000000
     46616      1322  PPPE      C210           -0.3617027966      -36.8913967090       -6.8862774123  MEMB      62              0.0000000000
     46617      1322  PPPE      H101            0.3288198471      -36.1938282076       -6.3897125480  MEMB      62              0.0000000000
     46618      1322  PPPE      C211           -0.4802525598      -38.2442540325       -6.1448588403  MEMB      62              0.0000000000
     46619      1322  PPPE      H11R            0.4102196360      -38.8913749425       -6.2952410077  MEMB      62              0.0000000000
     46620      1322  PPPE      H11S           -1.4019450454      -38.7872144121       -6.4448554873  MEMB      62              0.0000000000
     46621      1322  PPPE      C212           -0.5707491279      -38.0101445414       -4.6180266554  MEMB      62              0.0000000000
     46622      1322  PPPE      H12R            0.3605549219      -37.5401984823       -4.2357381935  MEMB      62              0.0000000000
     46623      1322  PPPE      H12S           -0.6431719113      -39.0322983171       -4.1887509872  MEMB      62              0.0000000000
     46624      1322  PPPE      C213           -1.8355631793      -37.1744331730       -4.1340904946  MEMB      62              0.0000000000
     46625      1322  PPPE      H13R           -2.6845291733      -37.2712178074       -4.8441682900  MEMB      62              0.0000000000
     46626      1322  PPPE      H13S           -1.5089451112      -36.1171093981       -4.2326200466  MEMB      62              0.0000000000
     46627      1322  PPPE      C214           -2.1576387162      -37.5012348228       -2.6931214282  MEMB      62              0.0000000000
     46628      1322  PPPE      H14R           -1.1886699722      -37.6070476539       -2.1599945970  MEMB      62              0.0000000000
     46629      1322  PPPE      H14S           -2.7719278246      -38.4247587052       -2.6292972195  MEMB      62              0.0000000000
     46630      1322  PPPE      C215           -2.9859209062      -36.4510436997       -1.8770648055  MEMB      62              0.0000000000
     46631      1322  PPPE      H15R           -4.0324869189      -36.2698841319       -2.2029509701  MEMB      62              0.0000000000
     46632      1322  PPPE      H15S           -2.4398792052      -35.4847837150       -1.8270537768  MEMB      62              0.0000000000
     46633      1322  PPPE      C216           -3.0763575217      -36.7965755185       -0.3699841969  MEMB      62              0.0000000000
     46634      1322  PPPE      H16R           -2.0729810608      -37.0289103109        0.0466418006  MEMB      62              0.0000000000
     46635      1322  PPPE      H16S           -3.5367242763      -36.0743648524        0.3376846558  MEMB      62              0.0000000000
     46636      1322  PPPE      H16T           -3.6925189105      -37.7079775684       -0.2150246977  MEMB      62              0.0000000000
     46637      1322  PPPE      C33             2.0605227321      -34.0346892693      -14.0444657037  MEMB      62              0.0000000000
     46638      1322  PPPE      H3X             1.3930351440      -34.1688636050      -14.9224056603  MEMB      62              0.0000000000
     46639      1322  PPPE      H3Y             2.7278249968      -33.1981321921      -14.3431309747  MEMB      62              0.0000000000
     46640      1322  PPPE      C34             1.1375971659      -33.5621633931      -12.8892140480  MEMB      62              0.0000000000
     46641      1322  PPPE      H4X             0.3845010136      -34.3773885324      -12.8384680382  MEMB      62              0.0000000000
     46642      1322  PPPE      H4Y             0.6545396690      -32.6505665767      -13.3014854379  MEMB      62              0.0000000000
     46643      1322  PPPE      C35             1.8537149950      -33.1648353045      -11.5566536642  MEMB      62              0.0000000000
     46644      1322  PPPE      H5X             2.8257642192      -32.6876949503      -11.8052062502  MEMB      62              0.0000000000
     46645      1322  PPPE      H5Y             2.0114890304      -34.0948464930      -10.9697060148  MEMB      62              0.0000000000
     46646      1322  PPPE      C36             1.0143309394      -32.0872872214      -10.7237424787  MEMB      62              0.0000000000
     46647      1322  PPPE      H6X            -0.0733332874      -32.2923518049      -10.8199508274  MEMB      62              0.0000000000
     46648      1322  PPPE      H6Y             1.2772611076      -31.0947474342      -11.1480695904  MEMB      62              0.0000000000
     46649      1322  PPPE      C37             1.2768865953      -32.0953147204       -9.2409015705  MEMB      62              0.0000000000
     46650      1322  PPPE      H7X             2.1688026261      -31.5784700952       -8.8265606152  MEMB      62              0.0000000000
     46651      1322  PPPE      H7Y             1.2463025250      -33.1482691008       -8.8878113731  MEMB      62              0.0000000000
     46652      1322  PPPE      C38             0.0941668908      -31.4718936696       -8.3684535018  MEMB      62              0.0000000000
     46653      1322  PPPE      H8X            -0.8039221361      -31.5167857434       -9.0209424301  MEMB      62              0.0000000000
     46654      1322  PPPE      H8Y             0.2683949703      -30.3852093111       -8.2165236456  MEMB      62              0.0000000000
     46655      1322  PPPE      C39            -0.2071825117      -32.1533770408       -7.0923291816  MEMB      62              0.0000000000
     46656      1322  PPPE      H9X            -0.3818330116      -33.2414483248       -7.2334641659  MEMB      62              0.0000000000
     46657      1322  PPPE      H9Y            -1.0968960297      -31.7475225018       -6.5650598491  MEMB      62              0.0000000000
     46658      1322  PPPE      C310            1.0255210192      -31.9401715175       -6.1653851637  MEMB      62              0.0000000000
     46659      1322  PPPE      H10X            1.2294061560      -30.9058981688       -5.8146281380  MEMB      62              0.0000000000
     46660      1322  PPPE      H10Y            1.8605301335      -32.3103881578       -6.7978568377  MEMB      62              0.0000000000
     46661      1322  PPPE      C311            0.8703735021      -32.9014418639       -4.9968093030  MEMB      62              0.0000000000
     46662      1322  PPPE      H11X            0.3770721585      -33.8124166581       -5.3981815851  MEMB      62              0.0000000000
     46663      1322  PPPE      H11Y            0.1566447043      -32.5479715119       -4.2222314093  MEMB      62              0.0000000000
     46664      1322  PPPE      C312            2.1480903482      -33.2646257979       -4.3051897812  MEMB      62              0.0000000000
     46665      1322  PPPE      H12X            2.3749483166      -32.3385888427       -3.7348284750  MEMB      62              0.0000000000
     46666      1322  PPPE      H12Y            2.8710992649      -33.2092341107       -5.1469206569  MEMB      62              0.0000000000
     46667      1322  PPPE      C313            1.9006473034      -34.5710574314       -3.4660913175  MEMB      62              0.0000000000
     46668      1322  PPPE      H13X            2.8214271299      -34.8337149789       -2.9026230187  MEMB      62              0.0000000000
     46669      1322  PPPE      H13Y            1.6895988711      -35.4253132214       -4.1443439287  MEMB      62              0.0000000000
     46670      1322  PPPE      C314            0.6166523985      -34.4960900920       -2.5072780558  MEMB      62              0.0000000000
     46671      1322  PPPE      H14X            0.4554711120      -35.5237270447       -2.1170167506  MEMB      62              0.0000000000
     46672      1322  PPPE      H14Y           -0.2914010452      -34.1202807853       -3.0254742622  MEMB      62              0.0000000000
     46673      1322  PPPE      C315            0.9198385773      -33.6224723360       -1.3434090413  MEMB      62              0.0000000000
     46674      1322  PPPE      H15X            0.9851201149      -32.6019528996       -1.7776893663  MEMB      62              0.0000000000
     46675      1322  PPPE      H15Y            1.8998021144      -33.7635954981       -0.8393488076  MEMB      62              0.0000000000
     46676      1322  PPPE      C316           -0.1966299284      -33.6359122056       -0.2466257866  MEMB      62              0.0000000000
     46677      1322  PPPE      H16X           -1.1652990552      -33.3619375201       -0.7166672684  MEMB      62              0.0000000000
     46678      1322  PPPE      H16Y           -0.2934459596      -34.5740219174        0.3406542357  MEMB      62              0.0000000000
     46679      1322  PPPE      H16Z           -0.0879747378      -32.7601416003        0.4283119116  MEMB      62              0.0000000000
     46680      1323  PPPE      N             -21.7659497752       27.7619805511      -17.2099337081  MEMB      63              0.0000000000
     46681      1323  PPPE      HN1           -22.4143132082       28.4247310335      -16.7387791085  MEMB      63              0.0000000000
     46682      1323  PPPE      HN2           -22.2777975283       27.0342013890      -17.7484031771  MEMB      63              0.0000000000
     46683      1323  PPPE      HN3           -21.3000535525       27.2833188678      -16.4127990253  MEMB      63              0.0000000000
     46684      1323  PPPE      C12           -20.5764694260       28.4281523445      -17.8914722618  MEMB      63              0.0000000000
     46685      1323  PPPE      H12A          -19.8876584528       27.6401642681      -18.2642124321  MEMB      63              0.0000000000
     46686      1323  PPPE      H12B          -20.0873731050       29.0569238229      -17.1170355524  MEMB      63              0.0000000000
     46687      1323  PPPE      C11           -20.9576910155       29.2587662367      -19.1732498072  MEMB      63              0.0000000000
     46688      1323  PPPE      H11A          -21.5857070636       30.0780073964      -18.7624447856  MEMB      63              0.0000000000
     46689      1323  PPPE      H11B          -21.4040613566       28.6609343172      -19.9964578700  MEMB      63              0.0000000000
     46690      1323  PPPE      P             -19.3455231881       31.3264777810      -19.5222587062  MEMB      63              0.0000000000
     46691      1323  PPPE      O13           -18.9409700390       31.5227168202      -18.0942552808  MEMB      63              0.0000000000
     46692      1323  PPPE      O14           -18.4597291166       31.6976251490      -20.6430038274  MEMB      63              0.0000000000
     46693      1323  PPPE      O11           -20.7270005237       32.0651707000      -19.7880587673  MEMB      63              0.0000000000
     46694      1323  PPPE      O12           -19.7483597281       29.8270504203      -19.6777679354  MEMB      63              0.0000000000
     46695      1323  PPPE      C1            -20.7089554932       33.4605299453      -19.4413491524  MEMB      63              0.0000000000
     46696      1323  PPPE      HA            -21.0293405121       34.0190451610      -20.3467414394  MEMB      63              0.0000000000
     46697      1323  PPPE      HB            -19.6869298960       33.8482129459      -19.2426368742  MEMB      63              0.0000000000
     46698      1323  PPPE      C2            -21.7102798991       33.7243924771      -18.3117123870  MEMB      63              0.0000000000
     46699      1323  PPPE      HS            -21.6235649219       34.8003989356      -18.0490117705  MEMB      63              0.0000000000
     46700      1323  PPPE      O21           -21.4700138903       32.8930694365      -17.1170291219  MEMB      63              0.0000000000
     46701      1323  PPPE      C21           -20.5459505625       33.4200010755      -16.3166004239  MEMB      63              0.0000000000
     46702      1323  PPPE      O22           -19.9631879345       34.4624193649      -16.5797778772  MEMB      63              0.0000000000
     46703      1323  PPPE      C22           -20.4881473790       32.6143613754      -15.0237191326  MEMB      63              0.0000000000
     46704      1323  PPPE      H2R           -19.9125798377       31.6723311031      -15.1487070179  MEMB      63              0.0000000000
     46705      1323  PPPE      H2S           -21.5319796851       32.3824313580      -14.7221505933  MEMB      63              0.0000000000
     46706      1323  PPPE      C3            -23.1312838158       33.4908972021      -18.8215511385  MEMB      63              0.0000000000
     46707      1323  PPPE      HX            -23.1915482027       33.7922214780      -19.8892088011  MEMB      63              0.0000000000
     46708      1323  PPPE      HY            -23.4647256344       32.4401958557      -18.6831161930  MEMB      63              0.0000000000
     46709      1323  PPPE      O31           -23.9754129656       34.3882122603      -18.0978366399  MEMB      63              0.0000000000
     46710      1323  PPPE      C31           -24.5407151263       33.9194363683      -16.9930320119  MEMB      63              0.0000000000
     46711      1323  PPPE      O32           -24.6913620514       32.7639437215      -16.6518690348  MEMB      63              0.0000000000
     46712      1323  PPPE      C32           -24.9554116234       35.1476289603      -16.1475073268  MEMB      63              0.0000000000
     46713      1323  PPPE      H2X           -25.5673488351       35.8973261292      -16.6932252062  MEMB      63              0.0000000000
     46714      1323  PPPE      H2Y           -24.0387991171       35.5629852559      -15.6767402282  MEMB      63              0.0000000000
     46715      1323  PPPE      C23           -19.8304943855       33.5276310470      -13.9703015002  MEMB      63              0.0000000000
     46716      1323  PPPE      H3R           -20.4785456630       34.4237387780      -13.8638051335  MEMB      63              0.0000000000
     46717      1323  PPPE      H3S           -18.8160126832       33.7738242457      -14.3504814378  MEMB      63              0.0000000000
     46718      1323  PPPE      C24           -19.5917712900       32.8779569625      -12.6124365277  MEMB      63              0.0000000000
     46719      1323  PPPE      H4R           -18.9253447063       33.6357535371      -12.1477420473  MEMB      63              0.0000000000
     46720      1323  PPPE      H4S           -19.0757643755       31.8960820155      -12.6755194306  MEMB      63              0.0000000000
     46721      1323  PPPE      C25           -20.7785412915       32.6840974113      -11.6979533358  MEMB      63              0.0000000000
     46722      1323  PPPE      H5R           -21.2916801436       31.8068252371      -12.1467328482  MEMB      63              0.0000000000
     46723      1323  PPPE      H5S           -21.5579879654       33.4747918229      -11.7377808384  MEMB      63              0.0000000000
     46724      1323  PPPE      C26           -20.5473065259       32.6164791095      -10.2253966741  MEMB      63              0.0000000000
     46725      1323  PPPE      H6R           -19.6409349808       32.0249985809       -9.9744735652  MEMB      63              0.0000000000
     46726      1323  PPPE      H6S           -21.4212564315       32.0395014438       -9.8544123945  MEMB      63              0.0000000000
     46727      1323  PPPE      C27           -20.5337368613       34.0481165324       -9.4414889699  MEMB      63              0.0000000000
     46728      1323  PPPE      H7R           -21.5720896830       34.4401532704       -9.4910027444  MEMB      63              0.0000000000
     46729      1323  PPPE      H7S           -19.9704014543       34.7274294811      -10.1164023991  MEMB      63              0.0000000000
     46730      1323  PPPE      C28           -19.8126872655       33.8904088102       -8.0918869306  MEMB      63              0.0000000000
     46731      1323  PPPE      H8R           -18.7208687008       33.9609165938       -8.2849720783  MEMB      63              0.0000000000
     46732      1323  PPPE      H8S           -20.0208889914       32.8995222060       -7.6345940496  MEMB      63              0.0000000000
     46733      1323  PPPE      C29           -20.1250685349       34.9783072959       -7.0293415703  MEMB      63              0.0000000000
     46734      1323  PPPE      H91           -19.7049228095       35.9695398627       -7.2550306660  MEMB      63              0.0000000000
     46735      1323  PPPE      C210          -20.8498793046       34.8042135623       -5.9423384023  MEMB      63              0.0000000000
     46736      1323  PPPE      H101          -21.0612110382       35.6842188224       -5.3170947372  MEMB      63              0.0000000000
     46737      1323  PPPE      C211          -21.5042444043       33.5480680490       -5.4598293170  MEMB      63              0.0000000000
     46738      1323  PPPE      H11R          -21.3283353250       32.6594729959       -6.1030834094  MEMB      63              0.0000000000
     46739      1323  PPPE      H11S          -22.5576652037       33.6786113129       -5.1318292016  MEMB      63              0.0000000000
     46740      1323  PPPE      C212          -20.7105683747       32.8802752810       -4.2373607381  MEMB      63              0.0000000000
     46741      1323  PPPE      H12R          -19.6305456221       33.1365133357       -4.2844129776  MEMB      63              0.0000000000
     46742      1323  PPPE      H12S          -20.9579423212       31.7998027949       -4.1618204341  MEMB      63              0.0000000000
     46743      1323  PPPE      C213          -21.2737482444       33.4994172818       -2.8422150943  MEMB      63              0.0000000000
     46744      1323  PPPE      H13R          -22.2244280033       32.9449700455       -2.6901714879  MEMB      63              0.0000000000
     46745      1323  PPPE      H13S          -21.5541799634       34.5599614014       -3.0180707780  MEMB      63              0.0000000000
     46746      1323  PPPE      C214          -20.3063953246       33.3771990869       -1.6408673808  MEMB      63              0.0000000000
     46747      1323  PPPE      H14R          -19.3012055815       33.6535051331       -2.0250152028  MEMB      63              0.0000000000
     46748      1323  PPPE      H14S          -20.2942259836       32.3949525741       -1.1218638208  MEMB      63              0.0000000000
     46749      1323  PPPE      C215          -20.8214221351       34.2805837526       -0.5866011002  MEMB      63              0.0000000000
     46750      1323  PPPE      H15R          -20.7136485390       35.3442445282       -0.8888122952  MEMB      63              0.0000000000
     46751      1323  PPPE      H15S          -20.1985242210       34.1850117048        0.3283771358  MEMB      63              0.0000000000
     46752      1323  PPPE      C216          -22.3255049091       34.1328297181       -0.1577221718  MEMB      63              0.0000000000
     46753      1323  PPPE      H16R          -23.0205949253       34.5806130403       -0.8997875097  MEMB      63              0.0000000000
     46754      1323  PPPE      H16S          -22.5100332690       33.0403836766       -0.2403776668  MEMB      63              0.0000000000
     46755      1323  PPPE      H16T          -22.4195550541       34.4214956110        0.9109908732  MEMB      63              0.0000000000
     46756      1323  PPPE      C33           -25.7314111291       34.5726834093      -14.9743883923  MEMB      63              0.0000000000
     46757      1323  PPPE      H3X           -26.5209924558       33.8146637728      -15.1648839537  MEMB      63              0.0000000000
     46758      1323  PPPE      H3Y           -26.3713652399       35.4609991720      -14.7855105431  MEMB      63              0.0000000000
     46759      1323  PPPE      C34           -24.8562130791       34.2286028748      -13.6962036608  MEMB      63              0.0000000000
     46760      1323  PPPE      H4X           -24.2101234305       35.1000978836      -13.4566507113  MEMB      63              0.0000000000
     46761      1323  PPPE      H4Y           -24.2160980760       33.3521265283      -13.9336125839  MEMB      63              0.0000000000
     46762      1323  PPPE      C35           -25.5759368279       33.8410996750      -12.3293663979  MEMB      63              0.0000000000
     46763      1323  PPPE      H5X           -26.3004636063       33.0241146948      -12.5341040094  MEMB      63              0.0000000000
     46764      1323  PPPE      H5Y           -26.1941565379       34.7103873530      -12.0187793359  MEMB      63              0.0000000000
     46765      1323  PPPE      C36           -24.5298958948       33.5270558983      -11.2870378420  MEMB      63              0.0000000000
     46766      1323  PPPE      H6X           -23.9305918439       34.4420316237      -11.0921658930  MEMB      63              0.0000000000
     46767      1323  PPPE      H6Y           -23.8377716824       32.7287048306      -11.6304336008  MEMB      63              0.0000000000
     46768      1323  PPPE      C37           -25.0028776325       33.0395659132       -9.9602493879  MEMB      63              0.0000000000
     46769      1323  PPPE      H7X           -24.3105402977       33.3964787487       -9.1680352484  MEMB      63              0.0000000000
     46770      1323  PPPE      H7Y           -25.2214745147       31.9507903032       -9.9934769990  MEMB      63              0.0000000000
     46771      1323  PPPE      C38           -26.3236300646       33.5318163335       -9.4412632613  MEMB      63              0.0000000000
     46772      1323  PPPE      H8X           -27.1722812543       32.9901705982       -9.9110845631  MEMB      63              0.0000000000
     46773      1323  PPPE      H8Y           -26.4551390737       34.5360682117       -9.8978862412  MEMB      63              0.0000000000
     46774      1323  PPPE      C39           -26.3714053705       33.5891435965       -7.8850055515  MEMB      63              0.0000000000
     46775      1323  PPPE      H9X           -27.3910846827       33.8219674809       -7.5103481891  MEMB      63              0.0000000000
     46776      1323  PPPE      H9Y           -25.8247970247       34.4953546712       -7.5468904758  MEMB      63              0.0000000000
     46777      1323  PPPE      C310          -25.7918740256       32.3351081579       -7.1007707614  MEMB      63              0.0000000000
     46778      1323  PPPE      H10X          -24.7033707512       32.4945587129       -6.9456671118  MEMB      63              0.0000000000
     46779      1323  PPPE      H10Y          -25.8465399098       31.3947572377       -7.6898995996  MEMB      63              0.0000000000
     46780      1323  PPPE      C311          -26.4956636619       32.1741693164       -5.6929736302  MEMB      63              0.0000000000
     46781      1323  PPPE      H11X          -27.5399086544       31.8255919213       -5.8425302926  MEMB      63              0.0000000000
     46782      1323  PPPE      H11Y          -26.6038475114       33.1755454241       -5.2240779638  MEMB      63              0.0000000000
     46783      1323  PPPE      C312          -25.6836517586       31.1918662585       -4.8072383166  MEMB      63              0.0000000000
     46784      1323  PPPE      H12X          -24.6232405003       31.5077944160       -4.9074299454  MEMB      63              0.0000000000
     46785      1323  PPPE      H12Y          -25.7822948186       30.1467190393       -5.1709110226  MEMB      63              0.0000000000
     46786      1323  PPPE      C313          -26.1435725156       31.1355238632       -3.3059497539  MEMB      63              0.0000000000
     46787      1323  PPPE      H13X          -25.6273531674       30.3360001926       -2.7327129052  MEMB      63              0.0000000000
     46788      1323  PPPE      H13Y          -27.2376271833       30.9462909839       -3.2664997667  MEMB      63              0.0000000000
     46789      1323  PPPE      C314          -25.7136116028       32.4602758280       -2.5489862546  MEMB      63              0.0000000000
     46790      1323  PPPE      H14X          -26.3624893726       33.2986113460       -2.8813598383  MEMB      63              0.0000000000
     46791      1323  PPPE      H14Y          -24.7372144495       32.6712265303       -3.0352674494  MEMB      63              0.0000000000
     46792      1323  PPPE      C315          -25.7324335990       32.3224996292       -1.0194723292  MEMB      63              0.0000000000
     46793      1323  PPPE      H15X          -24.9454015192       33.0600366686       -0.7531255233  MEMB      63              0.0000000000
     46794      1323  PPPE      H15Y          -25.3006110743       31.3441523261       -0.7183297356  MEMB      63              0.0000000000
     46795      1323  PPPE      C316          -27.1013098134       32.5505121399       -0.3388210204  MEMB      63              0.0000000000
     46796      1323  PPPE      H16X          -27.6996507870       33.0712295278       -1.1167429196  MEMB      63              0.0000000000
     46797      1323  PPPE      H16Y          -27.6366224852       31.6196456382       -0.0537790948  MEMB      63              0.0000000000
     46798      1323  PPPE      H16Z          -27.0647321528       33.3153709060        0.4661473906  MEMB      63              0.0000000000
     46799      1324  PPPE      N              31.1818115701       11.0907890665      -19.1188266300  MEMB      64              0.0000000000
     46800      1324  PPPE      HN1            30.5634294541       10.3627066675      -19.5300438217  MEMB      64              0.0000000000
     46801      1324  PPPE      HN2            31.2691288621       11.2297246589      -18.0918540931  MEMB      64              0.0000000000
     46802      1324  PPPE      HN3            30.8838414948       12.0494299035      -19.3905278996  MEMB      64              0.0000000000
     46803      1324  PPPE      C12            32.6550054159       10.9890856867      -19.5682318606  MEMB      64              0.0000000000
     46804      1324  PPPE      H12A           32.6414096427       11.3156187875      -20.6300756763  MEMB      64              0.0000000000
     46805      1324  PPPE      H12B           32.8867517641        9.9110516894      -19.4323741024  MEMB      64              0.0000000000
     46806      1324  PPPE      C11            33.5542084355       11.8472264865      -18.5563178614  MEMB      64              0.0000000000
     46807      1324  PPPE      H11A           33.6491238198       11.3616902725      -17.5615482123  MEMB      64              0.0000000000
     46808      1324  PPPE      H11B           33.0431923856       12.8243522281      -18.4206385273  MEMB      64              0.0000000000
     46809      1324  PPPE      P              36.0008381633       11.0018273523      -19.0205561953  MEMB      64              0.0000000000
     46810      1324  PPPE      O13            35.5701039031        9.8099465565      -19.7516932245  MEMB      64              0.0000000000
     46811      1324  PPPE      O14            37.2644825396       11.6038872738      -19.4042783182  MEMB      64              0.0000000000
     46812      1324  PPPE      O11            35.9448573108       10.5988143902      -17.5148758336  MEMB      64              0.0000000000
     46813      1324  PPPE      O12            34.7762910585       12.0294943853      -19.0652197879  MEMB      64              0.0000000000
     46814      1324  PPPE      C1             36.8026346014        9.6740929536      -16.8551893902  MEMB      64              0.0000000000
     46815      1324  PPPE      HA             37.8181599166        9.6693575475      -17.3057522715  MEMB      64              0.0000000000
     46816      1324  PPPE      HB             36.2871731572        8.7145607729      -17.0740923227  MEMB      64              0.0000000000
     46817      1324  PPPE      C2             36.8622301486        9.8361257630      -15.3064185973  MEMB      64              0.0000000000
     46818      1324  PPPE      HS             37.1988763569        8.8424357248      -14.9409457002  MEMB      64              0.0000000000
     46819      1324  PPPE      O21            35.5314156130       10.1421097895      -14.7969833249  MEMB      64              0.0000000000
     46820      1324  PPPE      C21            35.3389318519        9.8816600028      -13.4767732999  MEMB      64              0.0000000000
     46821      1324  PPPE      O22            36.1704586225        9.4399691593      -12.6975664827  MEMB      64              0.0000000000
     46822      1324  PPPE      C22            33.9586019511       10.3582068043      -13.1388516749  MEMB      64              0.0000000000
     46823      1324  PPPE      H2R            33.1146245540        9.6944543549      -13.4242563684  MEMB      64              0.0000000000
     46824      1324  PPPE      H2S            33.8677570156       11.3930405570      -13.5327898706  MEMB      64              0.0000000000
     46825      1324  PPPE      C3             37.7870625716       10.9655978641      -14.8636825415  MEMB      64              0.0000000000
     46826      1324  PPPE      HX             37.9661228827       10.8959104491      -13.7694238568  MEMB      64              0.0000000000
     46827      1324  PPPE      HY             38.7691469687       10.7833996862      -15.3501340408  MEMB      64              0.0000000000
     46828      1324  PPPE      O31            37.1824408835       12.2471025723      -15.1539883401  MEMB      64              0.0000000000
     46829      1324  PPPE      C31            37.8594198944       13.0771933962      -15.9525847061  MEMB      64              0.0000000000
     46830      1324  PPPE      O32            38.9383664715       12.8292518680      -16.4361465174  MEMB      64              0.0000000000
     46831      1324  PPPE      C32            37.0283328100       14.4074183289      -16.0070759532  MEMB      64              0.0000000000
     46832      1324  PPPE      H2X            36.6274808864       14.6279271842      -17.0195059903  MEMB      64              0.0000000000
     46833      1324  PPPE      H2Y            37.7681254964       15.2189108588      -15.8382338526  MEMB      64              0.0000000000
     46834      1324  PPPE      C23            33.7628131533       10.4534288723      -11.5975602600  MEMB      64              0.0000000000
     46835      1324  PPPE      H3R            34.2636965995       11.4011878185      -11.3056874223  MEMB      64              0.0000000000
     46836      1324  PPPE      H3S            34.3585419305        9.6888090752      -11.0546193886  MEMB      64              0.0000000000
     46837      1324  PPPE      C24            32.2867885453       10.3272572048      -11.1672163960  MEMB      64              0.0000000000
     46838      1324  PPPE      H4R            32.3174402340       10.1421883866      -10.0721679922  MEMB      64              0.0000000000
     46839      1324  PPPE      H4S            31.7773039805        9.4580234837      -11.6353821960  MEMB      64              0.0000000000
     46840      1324  PPPE      C25            31.3081840566       11.4541231799      -11.4362391000  MEMB      64              0.0000000000
     46841      1324  PPPE      H5R            30.3545616154       11.4104201445      -10.8678947640  MEMB      64              0.0000000000
     46842      1324  PPPE      H5S            31.0883995517       11.2651332181      -12.5087588274  MEMB      64              0.0000000000
     46843      1324  PPPE      C26            31.8715213598       12.9304626155      -11.2581768981  MEMB      64              0.0000000000
     46844      1324  PPPE      H6R            31.1566311401       13.7002631523      -11.6196462708  MEMB      64              0.0000000000
     46845      1324  PPPE      H6S            32.7999719852       13.0226984550      -11.8613294378  MEMB      64              0.0000000000
     46846      1324  PPPE      C27            32.3109637133       13.3015044339       -9.8516438902  MEMB      64              0.0000000000
     46847      1324  PPPE      H7R            32.8510165040       14.2587777164      -10.0137914948  MEMB      64              0.0000000000
     46848      1324  PPPE      H7S            32.8957372575       12.4366047544       -9.4717630586  MEMB      64              0.0000000000
     46849      1324  PPPE      C28            31.1189857350       13.7875695157       -8.9095032503  MEMB      64              0.0000000000
     46850      1324  PPPE      H8R            30.5612289555       14.5901855935       -9.4377416494  MEMB      64              0.0000000000
     46851      1324  PPPE      H8S            31.5428589246       14.3139597688       -8.0277063232  MEMB      64              0.0000000000
     46852      1324  PPPE      C29            30.2422581390       12.6529582227       -8.4209794696  MEMB      64              0.0000000000
     46853      1324  PPPE      H91            29.3186502505       12.4638564006       -8.9877148304  MEMB      64              0.0000000000
     46854      1324  PPPE      C210           30.5164219509       11.7595936752       -7.3937819729  MEMB      64              0.0000000000
     46855      1324  PPPE      H101           29.7695822840       11.0136401315       -7.0842923566  MEMB      64              0.0000000000
     46856      1324  PPPE      C211           31.8013042645       11.8447882622       -6.5660046350  MEMB      64              0.0000000000
     46857      1324  PPPE      H11R           32.6712065928       12.0572525310       -7.2236138454  MEMB      64              0.0000000000
     46858      1324  PPPE      H11S           31.8146560239       10.7548853253       -6.3509364625  MEMB      64              0.0000000000
     46859      1324  PPPE      C212           31.8913297373       12.7370417483       -5.2699607185  MEMB      64              0.0000000000
     46860      1324  PPPE      H12R           31.5505897563       13.7883751883       -5.3836060583  MEMB      64              0.0000000000
     46861      1324  PPPE      H12S           32.9401936495       12.5394054174       -4.9615042800  MEMB      64              0.0000000000
     46862      1324  PPPE      C213           30.9825561964       12.3513173282       -4.1277308833  MEMB      64              0.0000000000
     46863      1324  PPPE      H13R           30.9600902697       11.2417389644       -4.0762319823  MEMB      64              0.0000000000
     46864      1324  PPPE      H13S           29.9905244197       12.8035993137       -4.3413542898  MEMB      64              0.0000000000
     46865      1324  PPPE      C214           31.3441895077       12.8412625219       -2.7139569429  MEMB      64              0.0000000000
     46866      1324  PPPE      H14R           32.2747321442       12.3780003066       -2.3217841220  MEMB      64              0.0000000000
     46867      1324  PPPE      H14S           30.5896176956       12.4714305676       -1.9872061562  MEMB      64              0.0000000000
     46868      1324  PPPE      C215           31.2599991628       14.4168259173       -2.4985977031  MEMB      64              0.0000000000
     46869      1324  PPPE      H15R           30.2782889104       14.8547610681       -2.7792732880  MEMB      64              0.0000000000
     46870      1324  PPPE      H15S           31.9576759991       14.9196231195       -3.2019916223  MEMB      64              0.0000000000
     46871      1324  PPPE      C216           31.4599038781       14.8285033131       -1.0785801676  MEMB      64              0.0000000000
     46872      1324  PPPE      H16R           32.2197180141       14.1468593204       -0.6399858834  MEMB      64              0.0000000000
     46873      1324  PPPE      H16S           31.8142823379       15.8807966338       -1.0409547189  MEMB      64              0.0000000000
     46874      1324  PPPE      H16T           30.5587172006       14.7960350453       -0.4296353442  MEMB      64              0.0000000000
     46875      1324  PPPE      C33            36.0352105658       14.5943278336      -14.9149845991  MEMB      64              0.0000000000
     46876      1324  PPPE      H3X            35.3081736024       13.7566359177      -14.9783131706  MEMB      64              0.0000000000
     46877      1324  PPPE      H3Y            35.2825669364       15.3881879403      -15.1089812435  MEMB      64              0.0000000000
     46878      1324  PPPE      C34            36.5451522473       14.9085908363      -13.4720657884  MEMB      64              0.0000000000
     46879      1324  PPPE      H4X            36.9224302497       15.9467136015      -13.5915791073  MEMB      64              0.0000000000
     46880      1324  PPPE      H4Y            37.3890354103       14.2282903782      -13.2283990203  MEMB      64              0.0000000000
     46881      1324  PPPE      C35            35.4371304237       14.8922030300      -12.4485528629  MEMB      64              0.0000000000
     46882      1324  PPPE      H5X            34.5420705136       14.4352108832      -12.9222056210  MEMB      64              0.0000000000
     46883      1324  PPPE      H5Y            35.2355151265       15.9029796725      -12.0338205985  MEMB      64              0.0000000000
     46884      1324  PPPE      C36            35.7125803368       13.9860247141      -11.2465104612  MEMB      64              0.0000000000
     46885      1324  PPPE      H6X            36.1281897263       13.0965998165      -11.7666192835  MEMB      64              0.0000000000
     46886      1324  PPPE      H6Y            34.7402423595       13.6984327417      -10.7924502060  MEMB      64              0.0000000000
     46887      1324  PPPE      C37            36.6364397848       14.5708876735      -10.1919444397  MEMB      64              0.0000000000
     46888      1324  PPPE      H7X            36.0545998734       15.4085481940       -9.7513673522  MEMB      64              0.0000000000
     46889      1324  PPPE      H7Y            37.5018625818       15.0735782115      -10.6742997085  MEMB      64              0.0000000000
     46890      1324  PPPE      C38            37.0299869957       13.5686047813       -9.1482688314  MEMB      64              0.0000000000
     46891      1324  PPPE      H8X            38.1200700854       13.7148612969       -8.9912691847  MEMB      64              0.0000000000
     46892      1324  PPPE      H8Y            36.9118608057       12.6015476268       -9.6822797520  MEMB      64              0.0000000000
     46893      1324  PPPE      C39            36.1246679107       13.5104560958       -7.8412917510  MEMB      64              0.0000000000
     46894      1324  PPPE      H9X            36.2492489289       12.5176256567       -7.3584995708  MEMB      64              0.0000000000
     46895      1324  PPPE      H9Y            35.1480628998       13.7791975300       -8.2977363745  MEMB      64              0.0000000000
     46896      1324  PPPE      C310           36.6171664072       14.4916299721       -6.7443124394  MEMB      64              0.0000000000
     46897      1324  PPPE      H10X           37.2271028678       15.2602357826       -7.2654109159  MEMB      64              0.0000000000
     46898      1324  PPPE      H10Y           37.2332884176       14.0070527509       -5.9569754182  MEMB      64              0.0000000000
     46899      1324  PPPE      C311           35.4131442751       15.2335885911       -6.1128642102  MEMB      64              0.0000000000
     46900      1324  PPPE      H11X           34.5277687989       14.6064053477       -5.8739658105  MEMB      64              0.0000000000
     46901      1324  PPPE      H11Y           34.9356024686       15.8094038454       -6.9342725228  MEMB      64              0.0000000000
     46902      1324  PPPE      C312           35.7533781637       16.0838337144       -4.9008538472  MEMB      64              0.0000000000
     46903      1324  PPPE      H12X           34.9688741381       16.8487597827       -4.7171079800  MEMB      64              0.0000000000
     46904      1324  PPPE      H12Y           36.6481351529       16.5771071284       -5.3372163907  MEMB      64              0.0000000000
     46905      1324  PPPE      C313           36.1276023305       15.3718450571       -3.6206634675  MEMB      64              0.0000000000
     46906      1324  PPPE      H13X           36.2485754257       16.0912132098       -2.7826921248  MEMB      64              0.0000000000
     46907      1324  PPPE      H13Y           37.0046032233       14.6995088873       -3.7353565743  MEMB      64              0.0000000000
     46908      1324  PPPE      C314           35.0572577083       14.4716819082       -3.1183963788  MEMB      64              0.0000000000
     46909      1324  PPPE      H14X           35.0375544167       13.6025921199       -3.8102169626  MEMB      64              0.0000000000
     46910      1324  PPPE      H14Y           34.1257153921       15.0720035129       -3.1969067854  MEMB      64              0.0000000000
     46911      1324  PPPE      C315           35.1039719702       13.9982192999       -1.7020881202  MEMB      64              0.0000000000
     46912      1324  PPPE      H15X           35.9558714030       13.2857936473       -1.7343068395  MEMB      64              0.0000000000
     46913      1324  PPPE      H15Y           34.1660996699       13.4342269620       -1.5107005781  MEMB      64              0.0000000000
     46914      1324  PPPE      C316           35.4160975604       15.0137549569       -0.5309977956  MEMB      64              0.0000000000
     46915      1324  PPPE      H16X           34.9303969381       15.9801501831       -0.7849587623  MEMB      64              0.0000000000
     46916      1324  PPPE      H16Y           34.9574478108       14.5220226614        0.3534007326  MEMB      64              0.0000000000
     46917      1324  PPPE      H16Z           36.5118021614       15.1885110571       -0.4743168221  MEMB      64              0.0000000000
     46918      1325  PVPG      C13           -35.3542689690       -8.8043775996      -20.9822159361  MEMB      65              0.0000000000
     46919      1325  PVPG      H13A          -35.0977883964       -8.8257590249      -22.0629941504  MEMB      65              0.0000000000
     46920      1325  PVPG      H13B          -36.0566257404       -9.6391463114      -20.7720323437  MEMB      65              0.0000000000
     46921      1325  PVPG      OC3           -36.1861566857       -7.6303470827      -20.7647197547  MEMB      65              0.0000000000
     46922      1325  PVPG      HO3           -36.1042398162       -7.0292783297      -21.5087668014  MEMB      65              0.0000000000
     46923      1325  PVPG      C12           -34.0710715010       -8.8801195428      -20.1747775291  MEMB      65              0.0000000000
     46924      1325  PVPG      H12A          -33.4587291592       -7.9875986155      -20.4416525762  MEMB      65              0.0000000000
     46925      1325  PVPG      OC2           -33.3304835830      -10.0467242279      -20.5361691927  MEMB      65              0.0000000000
     46926      1325  PVPG      HO2           -32.6084055982      -10.0650236878      -19.8705977437  MEMB      65              0.0000000000
     46927      1325  PVPG      C11           -34.4350697524       -8.8425663677      -18.6464993366  MEMB      65              0.0000000000
     46928      1325  PVPG      H11A          -34.6594894717       -7.7904731403      -18.3689084992  MEMB      65              0.0000000000
     46929      1325  PVPG      H11B          -33.4249015033       -9.1775565560      -18.3276536658  MEMB      65              0.0000000000
     46930      1325  PVPG      P             -36.6904514607       -9.7632705329      -17.8227451575  MEMB      65              0.0000000000
     46931      1325  PVPG      O13           -37.5830445280      -10.4178339526      -18.7885552946  MEMB      65              0.0000000000
     46932      1325  PVPG      O14           -36.9295595693       -8.2997341185      -17.5718274086  MEMB      65              0.0000000000
     46933      1325  PVPG      O12           -35.1524510111       -9.9777240983      -18.2586124661  MEMB      65              0.0000000000
     46934      1325  PVPG      O11           -36.7473218741      -10.5312843018      -16.4538779276  MEMB      65              0.0000000000
     46935      1325  PVPG      C1            -36.0305074620      -11.7382339659      -16.1746901012  MEMB      65              0.0000000000
     46936      1325  PVPG      HA            -35.7530122341      -11.7309724064      -15.0989276152  MEMB      65              0.0000000000
     46937      1325  PVPG      HB            -35.1295967860      -11.7526912658      -16.8246683997  MEMB      65              0.0000000000
     46938      1325  PVPG      C2            -36.9344239592      -13.0021470837      -16.4182580551  MEMB      65              0.0000000000
     46939      1325  PVPG      HS            -37.4588363564      -13.0200073009      -17.3975402513  MEMB      65              0.0000000000
     46940      1325  PVPG      O21           -37.8737227835      -12.9589894655      -15.3350247792  MEMB      65              0.0000000000
     46941      1325  PVPG      C21           -39.0153705424      -13.5687063573      -15.4150417471  MEMB      65              0.0000000000
     46942      1325  PVPG      O22           -39.5077949894      -14.0237944891      -16.4460939296  MEMB      65              0.0000000000
     46943      1325  PVPG      C22           -39.7017049902      -13.4320846371      -14.0222544318  MEMB      65              0.0000000000
     46944      1325  PVPG      H2R           -39.6610594577      -14.4385660019      -13.5535702632  MEMB      65              0.0000000000
     46945      1325  PVPG      H2S           -40.7215071205      -13.0422234075      -14.2280037625  MEMB      65              0.0000000000
     46946      1325  PVPG      C3            -36.0206003964      -14.3127161244      -16.2728534502  MEMB      65              0.0000000000
     46947      1325  PVPG      HX            -36.5728757884      -15.2760418661      -16.2365774316  MEMB      65              0.0000000000
     46948      1325  PVPG      HY            -35.5607879729      -14.3026175026      -17.2841849744  MEMB      65              0.0000000000
     46949      1325  PVPG      O31           -35.0918605737      -14.0883546181      -15.2341248488  MEMB      65              0.0000000000
     46950      1325  PVPG      C31           -35.4373816684      -14.6290209921      -14.0348913176  MEMB      65              0.0000000000
     46951      1325  PVPG      O32           -36.3521766324      -15.4293900565      -13.8743687417  MEMB      65              0.0000000000
     46952      1325  PVPG      C32           -34.5170028403      -14.0302671913      -13.0156283743  MEMB      65              0.0000000000
     46953      1325  PVPG      H2X           -33.8052120019      -13.2949818817      -13.4480981860  MEMB      65              0.0000000000
     46954      1325  PVPG      H2Y           -33.8489867055      -14.8734053017      -12.7377912956  MEMB      65              0.0000000000
     46955      1325  PVPG      C23           -38.8796376742      -12.4659976693      -13.1775623864  MEMB      65              0.0000000000
     46956      1325  PVPG      H3R           -38.8404487918      -11.4868860474      -13.7011319486  MEMB      65              0.0000000000
     46957      1325  PVPG      H3S           -37.8417777164      -12.7996797157      -12.9634966389  MEMB      65              0.0000000000
     46958      1325  PVPG      C24           -39.6046417620      -12.0535292906      -11.9085829196  MEMB      65              0.0000000000
     46959      1325  PVPG      H4R           -39.7599547828      -12.9053301224      -11.2124258799  MEMB      65              0.0000000000
     46960      1325  PVPG      H4S           -40.6388468285      -11.8558723331      -12.2630861436  MEMB      65              0.0000000000
     46961      1325  PVPG      C25           -38.9793128531      -10.9438926188      -11.1610003701  MEMB      65              0.0000000000
     46962      1325  PVPG      H5R           -39.0073276709      -10.0317186983      -11.7946208278  MEMB      65              0.0000000000
     46963      1325  PVPG      H5S           -37.9352691207      -11.1755765144      -10.8599752162  MEMB      65              0.0000000000
     46964      1325  PVPG      C26           -39.8137624333      -10.6426983371       -9.8810490257  MEMB      65              0.0000000000
     46965      1325  PVPG      H6R           -40.8548814839      -10.3450284845      -10.1296151536  MEMB      65              0.0000000000
     46966      1325  PVPG      H6S           -39.2876813632       -9.7744033329       -9.4298023622  MEMB      65              0.0000000000
     46967      1325  PVPG      C27           -39.7451690670      -11.7205325836       -8.8104194889  MEMB      65              0.0000000000
     46968      1325  PVPG      H7R           -38.7309044283      -12.1499566389       -8.6648748463  MEMB      65              0.0000000000
     46969      1325  PVPG      H7S           -40.4247037277      -12.5137249327       -9.1891004519  MEMB      65              0.0000000000
     46970      1325  PVPG      C28           -40.1622902036      -11.3121821817       -7.3468685428  MEMB      65              0.0000000000
     46971      1325  PVPG      H8R           -41.2622293728      -11.4684439338       -7.3407511544  MEMB      65              0.0000000000
     46972      1325  PVPG      H8S           -40.0119794709      -10.2369514618       -7.1110577515  MEMB      65              0.0000000000
     46973      1325  PVPG      C29           -39.4046303465      -12.1299367656       -6.2109510123  MEMB      65              0.0000000000
     46974      1325  PVPG      H9R           -39.6934726488      -11.6514485663       -5.2507735217  MEMB      65              0.0000000000
     46975      1325  PVPG      H9S           -38.3016813151      -12.0556259075       -6.3218649063  MEMB      65              0.0000000000
     46976      1325  PVPG      C210          -39.7481389298      -13.6026945267       -6.2949281958  MEMB      65              0.0000000000
     46977      1325  PVPG      H10R          -39.1020843379      -14.1579260918       -5.5817298572  MEMB      65              0.0000000000
     46978      1325  PVPG      H10S          -39.3706148246      -13.8167186699       -7.3176649422  MEMB      65              0.0000000000
     46979      1325  PVPG      C211          -41.2148195336      -13.9764982262       -6.1676063720  MEMB      65              0.0000000000
     46980      1325  PVPG      H111          -41.8327653109      -13.7152680283       -7.0393298416  MEMB      65              0.0000000000
     46981      1325  PVPG      C212          -41.8506477723      -14.5080370996       -5.1366714600  MEMB      65              0.0000000000
     46982      1325  PVPG      H121          -42.9479599392      -14.5812976307       -5.1134571878  MEMB      65              0.0000000000
     46983      1325  PVPG      C213          -41.1537388992      -14.7913540226       -3.8236888739  MEMB      65              0.0000000000
     46984      1325  PVPG      H13R          -40.0608179634      -14.9895608226       -3.8473307367  MEMB      65              0.0000000000
     46985      1325  PVPG      H13S          -41.6013591855      -15.7356588193       -3.4465346899  MEMB      65              0.0000000000
     46986      1325  PVPG      C214          -41.3123956561      -13.8154535298       -2.6732921133  MEMB      65              0.0000000000
     46987      1325  PVPG      H14R          -42.4111204598      -13.7881110318       -2.5108846509  MEMB      65              0.0000000000
     46988      1325  PVPG      H14S          -40.9042284926      -12.8610282950       -3.0692634931  MEMB      65              0.0000000000
     46989      1325  PVPG      C215          -40.6265279123      -14.2387239581       -1.3425301801  MEMB      65              0.0000000000
     46990      1325  PVPG      H15R          -39.8336290784      -15.0068043932       -1.4677685082  MEMB      65              0.0000000000
     46991      1325  PVPG      H15S          -41.3173822888      -14.6055295505       -0.5535448286  MEMB      65              0.0000000000
     46992      1325  PVPG      C216          -39.7758667921      -13.0881094422       -0.7685929040  MEMB      65              0.0000000000
     46993      1325  PVPG      H16R          -40.4233880590      -12.1881710126       -0.6968436210  MEMB      65              0.0000000000
     46994      1325  PVPG      H16S          -39.0038550631      -12.9100455264       -1.5474443675  MEMB      65              0.0000000000
     46995      1325  PVPG      C217          -39.0100063027      -13.3635584754        0.5589081444  MEMB      65              0.0000000000
     46996      1325  PVPG      H17R          -38.6412382253      -12.3588135271        0.8569327637  MEMB      65              0.0000000000
     46997      1325  PVPG      H17S          -38.2999086418      -14.1708965128        0.2791088079  MEMB      65              0.0000000000
     46998      1325  PVPG      C218          -39.8863742763      -13.9424113018        1.6549904187  MEMB      65              0.0000000000
     46999      1325  PVPG      H18R          -40.4802010653      -14.7900000249        1.2509059189  MEMB      65              0.0000000000
     47000      1325  PVPG      H18S          -39.1869162321      -14.3954943914        2.3896977011  MEMB      65              0.0000000000
     47001      1325  PVPG      H18T          -40.5166984341      -13.2472798962        2.2498048150  MEMB      65              0.0000000000
     47002      1325  PVPG      C33           -35.3829073358      -13.4868014814      -11.8845997826  MEMB      65              0.0000000000
     47003      1325  PVPG      H3X           -36.0784249638      -14.3050173027      -11.5998205706  MEMB      65              0.0000000000
     47004      1325  PVPG      H3Y           -35.9177828967      -12.5603234529      -12.1843789804  MEMB      65              0.0000000000
     47005      1325  PVPG      C34           -34.5941347813      -13.0433303173      -10.6154052001  MEMB      65              0.0000000000
     47006      1325  PVPG      H4X           -33.9291703796      -13.8929548551      -10.3502990168  MEMB      65              0.0000000000
     47007      1325  PVPG      H4Y           -35.3546172809      -12.8223293887       -9.8362093535  MEMB      65              0.0000000000
     47008      1325  PVPG      C35           -33.7651360520      -11.6957604106      -10.7304365000  MEMB      65              0.0000000000
     47009      1325  PVPG      H5X           -34.3588023012      -10.8444008286      -11.1267548685  MEMB      65              0.0000000000
     47010      1325  PVPG      H5Y           -32.9240153728      -11.9167601784      -11.4218095355  MEMB      65              0.0000000000
     47011      1325  PVPG      C36           -33.3032069965      -11.2718774007       -9.2303820420  MEMB      65              0.0000000000
     47012      1325  PVPG      H6X           -32.5865203567      -10.4310851092       -9.3476407117  MEMB      65              0.0000000000
     47013      1325  PVPG      H6Y           -32.8144341787      -12.1104664273       -8.6898349939  MEMB      65              0.0000000000
     47014      1325  PVPG      C37           -34.4020925291      -10.6293962840       -8.2938004591  MEMB      65              0.0000000000
     47015      1325  PVPG      H7X           -33.9665801700      -10.3772577892       -7.3033070617  MEMB      65              0.0000000000
     47016      1325  PVPG      H7Y           -35.2207645237      -11.3498491168       -8.0815614024  MEMB      65              0.0000000000
     47017      1325  PVPG      C38           -35.2336565534       -9.4505763142       -8.7638764403  MEMB      65              0.0000000000
     47018      1325  PVPG      H8X           -35.7323484802       -9.7275041057       -9.7172590843  MEMB      65              0.0000000000
     47019      1325  PVPG      H8Y           -34.5988654145       -8.5436480621       -8.8579091042  MEMB      65              0.0000000000
     47020      1325  PVPG      C39           -36.4881783924       -9.0431197661       -7.8827456193  MEMB      65              0.0000000000
     47021      1325  PVPG      H9X           -37.2368707938       -9.8614290487       -7.9471729358  MEMB      65              0.0000000000
     47022      1325  PVPG      H9Y           -36.8377241422       -8.0610023267       -8.2669122126  MEMB      65              0.0000000000
     47023      1325  PVPG      C310          -36.1249897869       -8.7177878200       -6.4209796425  MEMB      65              0.0000000000
     47024      1325  PVPG      H10X          -35.0773600978       -8.3727750972       -6.2877161370  MEMB      65              0.0000000000
     47025      1325  PVPG      H10Y          -36.2175928935       -9.6554304183       -5.8322757381  MEMB      65              0.0000000000
     47026      1325  PVPG      C311          -37.0687099916       -7.5861226132       -5.8688661084  MEMB      65              0.0000000000
     47027      1325  PVPG      H11X          -38.0824913568       -8.0322704612       -5.7821452598  MEMB      65              0.0000000000
     47028      1325  PVPG      H11Y          -37.0366311848       -6.7057453552       -6.5457911718  MEMB      65              0.0000000000
     47029      1325  PVPG      C312          -36.7108465927       -6.9963671240       -4.4773975816  MEMB      65              0.0000000000
     47030      1325  PVPG      H12X          -37.5264272683       -6.3543346373       -4.0812361878  MEMB      65              0.0000000000
     47031      1325  PVPG      H12Y          -35.8365107024       -6.3192780549       -4.5842063518  MEMB      65              0.0000000000
     47032      1325  PVPG      C313          -36.3455500240       -8.0790297173       -3.4764461835  MEMB      65              0.0000000000
     47033      1325  PVPG      H13X          -35.9653709738       -7.5026419561       -2.6060652159  MEMB      65              0.0000000000
     47034      1325  PVPG      H13Y          -35.4552898628       -8.7361412134       -3.5762586941  MEMB      65              0.0000000000
     47035      1325  PVPG      C314          -37.5814319784       -8.8960014158       -2.9865988835  MEMB      65              0.0000000000
     47036      1325  PVPG      H14X          -37.6520884172       -9.9619105095       -3.2918305173  MEMB      65              0.0000000000
     47037      1325  PVPG      H14Y          -38.4805054390       -8.3753154471       -3.3801386109  MEMB      65              0.0000000000
     47038      1325  PVPG      C315          -37.8117372952       -8.9550480562       -1.4389582167  MEMB      65              0.0000000000
     47039      1325  PVPG      H15X          -38.7035046835       -9.5916683197       -1.2551479607  MEMB      65              0.0000000000
     47040      1325  PVPG      H15Y          -38.0363459865       -7.9242982171       -1.0904944564  MEMB      65              0.0000000000
     47041      1325  PVPG      C316          -36.6050543758       -9.4960999904       -0.6662215243  MEMB      65              0.0000000000
     47042      1325  PVPG      H16X          -36.4287252473      -10.5909968593       -0.7327771442  MEMB      65              0.0000000000
     47043      1325  PVPG      H16Y          -35.7730990256       -8.7733228851       -0.8068091165  MEMB      65              0.0000000000
     47044      1325  PVPG      H16Z          -36.8265883325       -9.3903409785        0.4173185803  MEMB      65              0.0000000000
     47045      1326  PVPG      C13            29.6415796823      -25.6467760160      -21.4404733393  MEMB      66              0.0000000000
     47046      1326  PVPG      H13A           30.3740134231      -24.8164103658      -21.3490706128  MEMB      66              0.0000000000
     47047      1326  PVPG      H13B           30.1526466583      -26.6241409549      -21.5742250350  MEMB      66              0.0000000000
     47048      1326  PVPG      OC3            28.6109728610      -25.5077312297      -22.4399451440  MEMB      66              0.0000000000
     47049      1326  PVPG      HO3            29.0619660067      -25.3406109397      -23.2707737196  MEMB      66              0.0000000000
     47050      1326  PVPG      C12            28.9380746022      -25.6624900311      -19.9654891855  MEMB      66              0.0000000000
     47051      1326  PVPG      H12A           29.7295297330      -25.9200635290      -19.2238466104  MEMB      66              0.0000000000
     47052      1326  PVPG      OC2            27.9347432532      -26.6775049516      -19.9097056263  MEMB      66              0.0000000000
     47053      1326  PVPG      HO2            27.4959266101      -26.5072712557      -19.0476283197  MEMB      66              0.0000000000
     47054      1326  PVPG      C11            28.3645465499      -24.2269460274      -19.6591799237  MEMB      66              0.0000000000
     47055      1326  PVPG      H11A           27.7536828638      -23.9421314209      -20.5423828206  MEMB      66              0.0000000000
     47056      1326  PVPG      H11B           29.2557208537      -23.5664185736      -19.7210904619  MEMB      66              0.0000000000
     47057      1326  PVPG      P              27.9878961673      -22.9758910761      -17.3059601165  MEMB      66              0.0000000000
     47058      1326  PVPG      O13            26.8301099601      -22.6817288935      -16.3898495840  MEMB      66              0.0000000000
     47059      1326  PVPG      O14            28.5851783405      -21.7640783946      -17.9222546504  MEMB      66              0.0000000000
     47060      1326  PVPG      O12            27.6294508092      -24.0328460884      -18.4533872870  MEMB      66              0.0000000000
     47061      1326  PVPG      O11            29.0254177764      -23.9035332876      -16.5137551346  MEMB      66              0.0000000000
     47062      1326  PVPG      C1             28.6593088269      -24.9510025148      -15.6849393783  MEMB      66              0.0000000000
     47063      1326  PVPG      HA             28.9902135981      -25.9290866742      -16.0950301394  MEMB      66              0.0000000000
     47064      1326  PVPG      HB             27.5690994068      -24.9736014139      -15.4722104859  MEMB      66              0.0000000000
     47065      1326  PVPG      C2             29.3745706816      -24.9384646602      -14.2648930886  MEMB      66              0.0000000000
     47066      1326  PVPG      HS             28.8795936225      -25.6771666737      -13.5988313958  MEMB      66              0.0000000000
     47067      1326  PVPG      O21            29.4526204971      -23.5968885211      -13.7172076067  MEMB      66              0.0000000000
     47068      1326  PVPG      C21            28.3732670572      -23.1917599761      -13.0126998461  MEMB      66              0.0000000000
     47069      1326  PVPG      O22            27.5928502830      -23.9591850084      -12.5312745439  MEMB      66              0.0000000000
     47070      1326  PVPG      C22            28.2163758272      -21.7048762586      -13.0071868307  MEMB      66              0.0000000000
     47071      1326  PVPG      H2R            27.3257953130      -21.4020912397      -12.4159947490  MEMB      66              0.0000000000
     47072      1326  PVPG      H2S            27.9152655902      -21.3623436530      -14.0202638552  MEMB      66              0.0000000000
     47073      1326  PVPG      C3             30.8505671362      -25.4363709797      -14.4316007155  MEMB      66              0.0000000000
     47074      1326  PVPG      HX             30.8805377363      -26.4965718375      -14.7623526726  MEMB      66              0.0000000000
     47075      1326  PVPG      HY             31.2849066765      -24.6920875586      -15.1328226853  MEMB      66              0.0000000000
     47076      1326  PVPG      O31            31.6623199445      -25.2359089370      -13.2776637904  MEMB      66              0.0000000000
     47077      1326  PVPG      C31            31.2287963451      -25.7452843769      -12.1615213771  MEMB      66              0.0000000000
     47078      1326  PVPG      O32            30.3497931999      -26.5761484846      -12.0485815404  MEMB      66              0.0000000000
     47079      1326  PVPG      C32            32.0240650450      -25.1568059054      -10.9626598862  MEMB      66              0.0000000000
     47080      1326  PVPG      H2X            31.4521180421      -24.2516089465      -10.6663220596  MEMB      66              0.0000000000
     47081      1326  PVPG      H2Y            33.0476438081      -24.9218402411      -11.3251487534  MEMB      66              0.0000000000
     47082      1326  PVPG      C23            29.4462237747      -20.8706454869      -12.6407091795  MEMB      66              0.0000000000
     47083      1326  PVPG      H3R            29.2122961479      -19.8237617207      -12.9299026930  MEMB      66              0.0000000000
     47084      1326  PVPG      H3S            30.3005119959      -21.2482839364      -13.2422919639  MEMB      66              0.0000000000
     47085      1326  PVPG      C24            29.8630736426      -21.0360210815      -11.1559310874  MEMB      66              0.0000000000
     47086      1326  PVPG      H4R            30.4268324856      -21.9806662831      -11.0005532824  MEMB      66              0.0000000000
     47087      1326  PVPG      H4S            28.9711034242      -21.0698985340      -10.4944462126  MEMB      66              0.0000000000
     47088      1326  PVPG      C25            30.6982040679      -19.7749782276      -10.7674525860  MEMB      66              0.0000000000
     47089      1326  PVPG      H5R            30.5274810124      -18.8347222221      -11.3341041496  MEMB      66              0.0000000000
     47090      1326  PVPG      H5S            31.7717655573      -19.9891222322      -10.9570012264  MEMB      66              0.0000000000
     47091      1326  PVPG      C26            30.7287758916      -19.5570636920       -9.2095456442  MEMB      66              0.0000000000
     47092      1326  PVPG      H6R            29.7306400489      -19.7409185573       -8.7576127165  MEMB      66              0.0000000000
     47093      1326  PVPG      H6S            31.1182244665      -18.5418883210       -8.9813563569  MEMB      66              0.0000000000
     47094      1326  PVPG      C27            31.6923701475      -20.6550162048       -8.6173832008  MEMB      66              0.0000000000
     47095      1326  PVPG      H7R            32.6992886329      -20.2737794530       -8.8914173058  MEMB      66              0.0000000000
     47096      1326  PVPG      H7S            31.4765881155      -21.6564769052       -9.0473076413  MEMB      66              0.0000000000
     47097      1326  PVPG      C28            31.3618318394      -20.8093097223       -7.1732332269  MEMB      66              0.0000000000
     47098      1326  PVPG      H8R            30.2808523122      -20.9668935567       -6.9708192677  MEMB      66              0.0000000000
     47099      1326  PVPG      H8S            31.6779601758      -19.8391036345       -6.7338202424  MEMB      66              0.0000000000
     47100      1326  PVPG      C29            32.1010758799      -21.9958325758       -6.4430855234  MEMB      66              0.0000000000
     47101      1326  PVPG      H9R            33.1806655993      -21.7800975856       -6.5923018578  MEMB      66              0.0000000000
     47102      1326  PVPG      H9S            31.7989232508      -22.9201563812       -6.9803480438  MEMB      66              0.0000000000
     47103      1326  PVPG      C210           31.8213105196      -22.2361920993       -4.9141721879  MEMB      66              0.0000000000
     47104      1326  PVPG      H10R           32.1869994970      -23.2576796026       -4.6750999468  MEMB      66              0.0000000000
     47105      1326  PVPG      H10S           30.7256108791      -22.3373343971       -4.7607654725  MEMB      66              0.0000000000
     47106      1326  PVPG      C211           32.3998132066      -21.1331415402       -4.0859259450  MEMB      66              0.0000000000
     47107      1326  PVPG      H111           31.9735885344      -20.1620680597       -4.3780708794  MEMB      66              0.0000000000
     47108      1326  PVPG      C212           33.4306442544      -21.2146673459       -3.2461693408  MEMB      66              0.0000000000
     47109      1326  PVPG      H121           33.6588594726      -20.2262149503       -2.8208704711  MEMB      66              0.0000000000
     47110      1326  PVPG      C213           34.2678795432      -22.4078777113       -2.9092005785  MEMB      66              0.0000000000
     47111      1326  PVPG      H13R           35.3427244774      -22.1853620910       -2.7373972511  MEMB      66              0.0000000000
     47112      1326  PVPG      H13S           34.3352829392      -23.0957942143       -3.7789987154  MEMB      66              0.0000000000
     47113      1326  PVPG      C214           33.7580769980      -23.2802478791       -1.6797827704  MEMB      66              0.0000000000
     47114      1326  PVPG      H14R           34.3609606344      -24.2131134164       -1.7045655321  MEMB      66              0.0000000000
     47115      1326  PVPG      H14S           32.6836655306      -23.4989254947       -1.8590639411  MEMB      66              0.0000000000
     47116      1326  PVPG      C215           33.6707486418      -22.6193751446       -0.3001733631  MEMB      66              0.0000000000
     47117      1326  PVPG      H15R           33.2157021795      -21.6058400432       -0.3006987495  MEMB      66              0.0000000000
     47118      1326  PVPG      H15S           34.7457526705      -22.4338616636       -0.0897633159  MEMB      66              0.0000000000
     47119      1326  PVPG      C216           32.9931507746      -23.3531981387        0.8422132506  MEMB      66              0.0000000000
     47120      1326  PVPG      H16R           31.8964498020      -23.2415272056        0.7040213991  MEMB      66              0.0000000000
     47121      1326  PVPG      H16S           33.2131134588      -22.8330916829        1.7989928186  MEMB      66              0.0000000000
     47122      1326  PVPG      C217           33.5622472510      -24.8021488989        1.0348125214  MEMB      66              0.0000000000
     47123      1326  PVPG      H17R           33.5458355757      -25.1338584606        2.0950100304  MEMB      66              0.0000000000
     47124      1326  PVPG      H17S           34.6562350100      -24.8487475859        0.8468226458  MEMB      66              0.0000000000
     47125      1326  PVPG      C218           32.7874024035      -25.8637310127        0.1735671383  MEMB      66              0.0000000000
     47126      1326  PVPG      H18R           32.9939764008      -26.9212406081        0.4443457128  MEMB      66              0.0000000000
     47127      1326  PVPG      H18S           31.7133113454      -25.6325375334        0.0086451575  MEMB      66              0.0000000000
     47128      1326  PVPG      H18T           33.1361861674      -25.7387665280       -0.8738368004  MEMB      66              0.0000000000
     47129      1326  PVPG      C33            32.1345198903      -26.0171031664       -9.6997445089  MEMB      66              0.0000000000
     47130      1326  PVPG      H3X            32.6570237839      -26.9722957465       -9.9209188491  MEMB      66              0.0000000000
     47131      1326  PVPG      H3Y            31.1307456586      -26.3234308392       -9.3351604691  MEMB      66              0.0000000000
     47132      1326  PVPG      C34            32.8911954776      -25.2420934289       -8.6159018924  MEMB      66              0.0000000000
     47133      1326  PVPG      H4X            32.4850569035      -24.2132448460       -8.5117719794  MEMB      66              0.0000000000
     47134      1326  PVPG      H4Y            33.9813443710      -25.2484650838       -8.8300419097  MEMB      66              0.0000000000
     47135      1326  PVPG      C35            32.8633836071      -25.8084608875       -7.2361729177  MEMB      66              0.0000000000
     47136      1326  PVPG      H5X            33.4981483547      -25.0897398591       -6.6750717492  MEMB      66              0.0000000000
     47137      1326  PVPG      H5Y            33.3070930542      -26.8084448636       -7.0425879928  MEMB      66              0.0000000000
     47138      1326  PVPG      C36            31.4810977285      -26.0012204372       -6.5330087126  MEMB      66              0.0000000000
     47139      1326  PVPG      H6X            31.0378781256      -26.8720167657       -7.0617734203  MEMB      66              0.0000000000
     47140      1326  PVPG      H6Y            31.0504951774      -24.9960879163       -6.7295060968  MEMB      66              0.0000000000
     47141      1326  PVPG      C37            31.6447214991      -26.4737742017       -5.0819468529  MEMB      66              0.0000000000
     47142      1326  PVPG      H7X            32.2785033081      -25.8051900763       -4.4609504624  MEMB      66              0.0000000000
     47143      1326  PVPG      H7Y            32.1305006579      -27.4719579875       -5.1263157661  MEMB      66              0.0000000000
     47144      1326  PVPG      C38            30.2450619431      -26.5651877867       -4.3430732679  MEMB      66              0.0000000000
     47145      1326  PVPG      H8X            29.5238325148      -27.1693524832       -4.9339490193  MEMB      66              0.0000000000
     47146      1326  PVPG      H8Y            29.7450638321      -25.5805850669       -4.2210888703  MEMB      66              0.0000000000
     47147      1326  PVPG      C39            30.4421232595      -27.0692888559       -2.8589611968  MEMB      66              0.0000000000
     47148      1326  PVPG      H9X            30.9472264085      -26.3233177444       -2.2087927881  MEMB      66              0.0000000000
     47149      1326  PVPG      H9Y            31.1449244881      -27.9293049383       -2.8865939039  MEMB      66              0.0000000000
     47150      1326  PVPG      C310           29.1896974228      -27.4677115889       -2.1437502496  MEMB      66              0.0000000000
     47151      1326  PVPG      H10X           29.3393421904      -27.9826313970       -1.1707211210  MEMB      66              0.0000000000
     47152      1326  PVPG      H10Y           28.5189141237      -28.0647124559       -2.7979372653  MEMB      66              0.0000000000
     47153      1326  PVPG      C311           28.2235382022      -26.1936106165       -1.7965415930  MEMB      66              0.0000000000
     47154      1326  PVPG      H11X           27.2506982164      -26.6000792949       -1.4462746895  MEMB      66              0.0000000000
     47155      1326  PVPG      H11Y           28.0251697166      -25.6217319751       -2.7281678470  MEMB      66              0.0000000000
     47156      1326  PVPG      C312           28.7556644968      -25.3151031481       -0.6730331348  MEMB      66              0.0000000000
     47157      1326  PVPG      H12X           29.6977542828      -24.8785188080       -1.0682314234  MEMB      66              0.0000000000
     47158      1326  PVPG      H12Y           28.9323523396      -25.9837760858        0.1964373946  MEMB      66              0.0000000000
     47159      1326  PVPG      C313           27.8677678195      -24.1821912704       -0.1613515556  MEMB      66              0.0000000000
     47160      1326  PVPG      H13X           28.4796854853      -23.4680010085        0.4300955754  MEMB      66              0.0000000000
     47161      1326  PVPG      H13Y           26.9539884568      -24.5411735704        0.3587066993  MEMB      66              0.0000000000
     47162      1326  PVPG      C314           27.4519866113      -23.1796365481       -1.3267692743  MEMB      66              0.0000000000
     47163      1326  PVPG      H14X           26.9201504987      -23.7417820345       -2.1239296101  MEMB      66              0.0000000000
     47164      1326  PVPG      H14Y           28.3869713884      -22.7557896061       -1.7515966385  MEMB      66              0.0000000000
     47165      1326  PVPG      C315           26.6529389186      -21.9591351804       -0.8155279433  MEMB      66              0.0000000000
     47166      1326  PVPG      H15X           25.7380589494      -22.4318263200       -0.3985400619  MEMB      66              0.0000000000
     47167      1326  PVPG      H15Y           26.3280259079      -21.3877713537       -1.7112383458  MEMB      66              0.0000000000
     47168      1326  PVPG      C316           27.3192552218      -20.9758980718        0.1670905004  MEMB      66              0.0000000000
     47169      1326  PVPG      H16X           27.5637470653      -21.3706072500        1.1764204813  MEMB      66              0.0000000000
     47170      1326  PVPG      H16Y           28.2605859225      -20.6023152171       -0.2896967195  MEMB      66              0.0000000000
     47171      1326  PVPG      H16Z           26.7586453168      -20.0190159086        0.2335228913  MEMB      66              0.0000000000
     47172      1327  PPPE      N             -25.4175941158       23.4286519171      -19.8485912841  MEMB      67              0.0000000000
     47173      1327  PPPE      HN1           -24.6042254655       23.3158339270      -20.4867946529  MEMB      67              0.0000000000
     47174      1327  PPPE      HN2           -25.2472135482       23.5156884951      -18.8263412676  MEMB      67              0.0000000000
     47175      1327  PPPE      HN3           -26.0080433601       22.5777723428      -19.9433205819  MEMB      67              0.0000000000
     47176      1327  PPPE      C12           -26.2108717369       24.6060702516      -20.3266334043  MEMB      67              0.0000000000
     47177      1327  PPPE      H12A          -26.8560913480       24.3141122662      -21.1826551261  MEMB      67              0.0000000000
     47178      1327  PPPE      H12B          -25.4772852465       25.3544527008      -20.6955447362  MEMB      67              0.0000000000
     47179      1327  PPPE      C11           -27.1062458312       25.1833130217      -19.1460170064  MEMB      67              0.0000000000
     47180      1327  PPPE      H11A          -26.3507134045       25.4557097314      -18.3783635789  MEMB      67              0.0000000000
     47181      1327  PPPE      H11B          -27.8104276383       24.4085604311      -18.7742544398  MEMB      67              0.0000000000
     47182      1327  PPPE      P             -28.5787509321       27.1091489289      -18.5283275384  MEMB      67              0.0000000000
     47183      1327  PPPE      O13           -28.3838563729       28.5269426333      -18.9316490048  MEMB      67              0.0000000000
     47184      1327  PPPE      O14           -29.9375676598       26.5923344222      -18.3830329108  MEMB      67              0.0000000000
     47185      1327  PPPE      O11           -27.7341343113       26.9369060555      -17.2029472952  MEMB      67              0.0000000000
     47186      1327  PPPE      O12           -27.7548726798       26.2979911731      -19.6328013992  MEMB      67              0.0000000000
     47187      1327  PPPE      C1            -28.0823339694       27.6758681451      -16.0777133325  MEMB      67              0.0000000000
     47188      1327  PPPE      HA            -29.1664457570       27.9177261235      -16.0547492246  MEMB      67              0.0000000000
     47189      1327  PPPE      HB            -27.4801884143       28.6041486094      -15.9775279530  MEMB      67              0.0000000000
     47190      1327  PPPE      C2            -27.7642167558       26.8501446734      -14.7844215141  MEMB      67              0.0000000000
     47191      1327  PPPE      HS            -27.9700586868       27.4668980111      -13.8835522561  MEMB      67              0.0000000000
     47192      1327  PPPE      O21           -26.3634273247       26.4743480278      -14.7983919641  MEMB      67              0.0000000000
     47193      1327  PPPE      C21           -25.6894591000       26.6020170073      -13.6539328040  MEMB      67              0.0000000000
     47194      1327  PPPE      O22           -26.0440927065       27.1996704265      -12.6554033991  MEMB      67              0.0000000000
     47195      1327  PPPE      C22           -24.3461600867       25.9770218811      -13.7659411599  MEMB      67              0.0000000000
     47196      1327  PPPE      H2R           -23.6621845399       26.7646279385      -13.3836125710  MEMB      67              0.0000000000
     47197      1327  PPPE      H2S           -24.0377335370       25.8686305721      -14.8277534726  MEMB      67              0.0000000000
     47198      1327  PPPE      C3            -28.5468523485       25.5219079799      -14.7269463775  MEMB      67              0.0000000000
     47199      1327  PPPE      HX            -29.6221222244       25.7445746744      -14.5580226160  MEMB      67              0.0000000000
     47200      1327  PPPE      HY            -28.2929898738       25.0276333415      -15.6890105260  MEMB      67              0.0000000000
     47201      1327  PPPE      O31           -28.0560334819       24.7260272184      -13.6272568007  MEMB      67              0.0000000000
     47202      1327  PPPE      C31           -28.7103273501       24.7838999681      -12.5133363517  MEMB      67              0.0000000000
     47203      1327  PPPE      O32           -29.8027986195       25.3106597982      -12.2874906291  MEMB      67              0.0000000000
     47204      1327  PPPE      C32           -27.9674984062       23.9170024718      -11.5662301981  MEMB      67              0.0000000000
     47205      1327  PPPE      H2X           -26.9876870150       24.4215205408      -11.4256878348  MEMB      67              0.0000000000
     47206      1327  PPPE      H2Y           -27.9368471601       22.8768975916      -11.9555415636  MEMB      67              0.0000000000
     47207      1327  PPPE      C23           -24.2011086911       24.7554173025      -12.8198993346  MEMB      67              0.0000000000
     47208      1327  PPPE      H3R           -23.2524046878       24.2514191169      -13.1032146060  MEMB      67              0.0000000000
     47209      1327  PPPE      H3S           -25.0185911633       24.0291293920      -13.0162390367  MEMB      67              0.0000000000
     47210      1327  PPPE      C24           -23.9543113172       25.0068368079      -11.2866368517  MEMB      67              0.0000000000
     47211      1327  PPPE      H4R           -24.7251108845       25.6887066206      -10.8680169935  MEMB      67              0.0000000000
     47212      1327  PPPE      H4S           -22.9870017145       25.5493802074      -11.2212167318  MEMB      67              0.0000000000
     47213      1327  PPPE      C25           -24.0136477509       23.7299628177      -10.5047066855  MEMB      67              0.0000000000
     47214      1327  PPPE      H5R           -23.4366575402       22.8293856346      -10.8053127969  MEMB      67              0.0000000000
     47215      1327  PPPE      H5S           -25.0490488087       23.3720070810      -10.6894587899  MEMB      67              0.0000000000
     47216      1327  PPPE      C26           -23.9211646509       23.8820585949       -8.9968575429  MEMB      67              0.0000000000
     47217      1327  PPPE      H6R           -24.4826578620       24.7700232182       -8.6355194718  MEMB      67              0.0000000000
     47218      1327  PPPE      H6S           -22.8522500979       24.0887574717       -8.7754568812  MEMB      67              0.0000000000
     47219      1327  PPPE      C27           -24.4222770028       22.6028997878       -8.2407544802  MEMB      67              0.0000000000
     47220      1327  PPPE      H7R           -23.9730490769       21.6736676151       -8.6519026771  MEMB      67              0.0000000000
     47221      1327  PPPE      H7S           -25.5230716081       22.5236349342       -8.3683841001  MEMB      67              0.0000000000
     47222      1327  PPPE      C28           -24.0405506567       22.5788373878       -6.7704606936  MEMB      67              0.0000000000
     47223      1327  PPPE      H8R           -22.9724559353       22.7600243653       -6.5241561154  MEMB      67              0.0000000000
     47224      1327  PPPE      H8S           -24.2443586258       21.5600333076       -6.3769869868  MEMB      67              0.0000000000
     47225      1327  PPPE      C29           -24.8810163840       23.5800840853       -5.9448534694  MEMB      67              0.0000000000
     47226      1327  PPPE      H91           -24.8004297187       24.5698634318       -6.4179735753  MEMB      67              0.0000000000
     47227      1327  PPPE      C210          -25.3180028576       23.5875179151       -4.6600222061  MEMB      67              0.0000000000
     47228      1327  PPPE      H101          -25.9466228424       24.4097690397       -4.2875440149  MEMB      67              0.0000000000
     47229      1327  PPPE      C211          -25.1316850598       22.5225216479       -3.6877591544  MEMB      67              0.0000000000
     47230      1327  PPPE      H11R          -24.9126257122       22.9328953673       -2.6788352659  MEMB      67              0.0000000000
     47231      1327  PPPE      H11S          -24.3314622661       21.7827855944       -3.9039883193  MEMB      67              0.0000000000
     47232      1327  PPPE      C212          -26.4600810952       21.7642016121       -3.4749521077  MEMB      67              0.0000000000
     47233      1327  PPPE      H12R          -26.2154215956       21.1072586116       -2.6130422381  MEMB      67              0.0000000000
     47234      1327  PPPE      H12S          -26.6648349896       21.2799736540       -4.4536860487  MEMB      67              0.0000000000
     47235      1327  PPPE      C213          -27.6663763014       22.7094313443       -3.0398629960  MEMB      67              0.0000000000
     47236      1327  PPPE      H13R          -28.5140721440       22.0093783685       -2.8796800088  MEMB      67              0.0000000000
     47237      1327  PPPE      H13S          -27.8597148225       23.4759010903       -3.8205456107  MEMB      67              0.0000000000
     47238      1327  PPPE      C214          -27.5612775800       23.2100649309       -1.6121868848  MEMB      67              0.0000000000
     47239      1327  PPPE      H14R          -26.6083053409       23.7465556313       -1.4163741170  MEMB      67              0.0000000000
     47240      1327  PPPE      H14S          -27.6781866384       22.3091784433       -0.9726113940  MEMB      67              0.0000000000
     47241      1327  PPPE      C215          -28.7886931605       24.0266766815       -1.2625171650  MEMB      67              0.0000000000
     47242      1327  PPPE      H15R          -29.7148155886       23.5200303768       -1.6088230560  MEMB      67              0.0000000000
     47243      1327  PPPE      H15S          -28.8107963116       24.8730407049       -1.9818921650  MEMB      67              0.0000000000
     47244      1327  PPPE      C216          -28.8082823551       24.5008955813        0.1271668740  MEMB      67              0.0000000000
     47245      1327  PPPE      H16R          -29.6752604136       25.1569932163        0.3556530647  MEMB      67              0.0000000000
     47246      1327  PPPE      H16S          -28.7589835132       23.7021541629        0.8978177487  MEMB      67              0.0000000000
     47247      1327  PPPE      H16T          -27.8967797973       25.1265038165        0.2371597079  MEMB      67              0.0000000000
     47248      1327  PPPE      C33           -28.8052923779       23.9291106304      -10.2351321192  MEMB      67              0.0000000000
     47249      1327  PPPE      H3X           -28.6048838180       22.9053034365       -9.8530637498  MEMB      67              0.0000000000
     47250      1327  PPPE      H3Y           -29.8905212569       24.0605731567      -10.4334169753  MEMB      67              0.0000000000
     47251      1327  PPPE      C34           -28.1740829891       24.8659669381       -9.1573057223  MEMB      67              0.0000000000
     47252      1327  PPPE      H4X           -27.0931493254       24.6890127696       -8.9713201402  MEMB      67              0.0000000000
     47253      1327  PPPE      H4Y           -28.7273927058       24.6820255173       -8.2116129016  MEMB      67              0.0000000000
     47254      1327  PPPE      C35           -28.2678382537       26.3574636270       -9.5319769541  MEMB      67              0.0000000000
     47255      1327  PPPE      H5X           -29.2657072296       26.6865325452       -9.8929369988  MEMB      67              0.0000000000
     47256      1327  PPPE      H5Y           -27.5440734571       26.5523104716      -10.3520502596  MEMB      67              0.0000000000
     47257      1327  PPPE      C36           -27.9174462050       27.2472327492       -8.3111086188  MEMB      67              0.0000000000
     47258      1327  PPPE      H6X           -28.6469868771       26.9395501602       -7.5317352601  MEMB      67              0.0000000000
     47259      1327  PPPE      H6Y           -27.9749341668       28.3085679299       -8.6345027565  MEMB      67              0.0000000000
     47260      1327  PPPE      C37           -26.5884870359       26.9849465139       -7.5540109175  MEMB      67              0.0000000000
     47261      1327  PPPE      H7X           -25.6569665845       27.1000269522       -8.1484410155  MEMB      67              0.0000000000
     47262      1327  PPPE      H7Y           -26.6047265692       25.8989694583       -7.3201068510  MEMB      67              0.0000000000
     47263      1327  PPPE      C38           -26.5297313095       27.7894944355       -6.2653141092  MEMB      67              0.0000000000
     47264      1327  PPPE      H8X           -27.3399949098       27.4191584971       -5.6015029984  MEMB      67              0.0000000000
     47265      1327  PPPE      H8Y           -26.7336679604       28.8137767284       -6.6442291747  MEMB      67              0.0000000000
     47266      1327  PPPE      C39           -25.1511054254       27.8588437327       -5.5686159242  MEMB      67              0.0000000000
     47267      1327  PPPE      H9X           -24.5024559858       28.1466363400       -6.4234552774  MEMB      67              0.0000000000
     47268      1327  PPPE      H9Y           -25.0211892311       26.7957660121       -5.2731357348  MEMB      67              0.0000000000
     47269      1327  PPPE      C310          -25.1203734443       28.8237526147       -4.3971635947  MEMB      67              0.0000000000
     47270      1327  PPPE      H10X          -26.1022670711       28.6625189247       -3.9029879147  MEMB      67              0.0000000000
     47271      1327  PPPE      H10Y          -24.9873745785       29.8653095629       -4.7601944823  MEMB      67              0.0000000000
     47272      1327  PPPE      C311          -23.9238962229       28.6347462369       -3.4181794303  MEMB      67              0.0000000000
     47273      1327  PPPE      H11X          -24.2013314952       29.1878362602       -2.4954432297  MEMB      67              0.0000000000
     47274      1327  PPPE      H11Y          -22.9912737925       29.0539362486       -3.8527092179  MEMB      67              0.0000000000
     47275      1327  PPPE      C312          -23.5919463190       27.1641590400       -3.1047246174  MEMB      67              0.0000000000
     47276      1327  PPPE      H12X          -22.6713657956       27.1603273452       -2.4827617424  MEMB      67              0.0000000000
     47277      1327  PPPE      H12Y          -23.2933363718       26.6475771184       -4.0418992104  MEMB      67              0.0000000000
     47278      1327  PPPE      C313          -24.6944702123       26.3166514965       -2.4955298532  MEMB      67              0.0000000000
     47279      1327  PPPE      H13X          -24.3551764223       25.2669310495       -2.3640471274  MEMB      67              0.0000000000
     47280      1327  PPPE      H13Y          -25.5946758333       26.2390276518       -3.1420013363  MEMB      67              0.0000000000
     47281      1327  PPPE      C314          -25.1669633492       26.8335569039       -1.1003147185  MEMB      67              0.0000000000
     47282      1327  PPPE      H14X          -24.3958166257       27.5125543836       -0.6776846754  MEMB      67              0.0000000000
     47283      1327  PPPE      H14Y          -25.2595061838       25.9933636986       -0.3793208202  MEMB      67              0.0000000000
     47284      1327  PPPE      C315          -26.5201549439       27.5385209604       -1.0863683407  MEMB      67              0.0000000000
     47285      1327  PPPE      H15X          -27.3739359092       26.9213050012       -1.4391055272  MEMB      67              0.0000000000
     47286      1327  PPPE      H15Y          -26.4800018818       28.3929302441       -1.7953771614  MEMB      67              0.0000000000
     47287      1327  PPPE      C316          -27.0126785553       28.1442844561        0.3298634020  MEMB      67              0.0000000000
     47288      1327  PPPE      H16X          -26.9777783119       27.4376729772        1.1864865344  MEMB      67              0.0000000000
     47289      1327  PPPE      H16Y          -26.4027282632       29.0231417736        0.6296824418  MEMB      67              0.0000000000
     47290      1327  PPPE      H16Z          -28.0503687593       28.3987125816        0.0252548510  MEMB      67              0.0000000000
     47291      1328  PPPE      N              -4.2534694356       37.7045887952      -21.0973437462  MEMB      68              0.0000000000
     47292      1328  PPPE      HN1            -3.3676843646       38.1345769510      -20.7625378414  MEMB      68              0.0000000000
     47293      1328  PPPE      HN2            -4.0903965023       37.2370550344      -22.0119034222  MEMB      68              0.0000000000
     47294      1328  PPPE      HN3            -4.9172487867       38.4771524960      -21.3074444393  MEMB      68              0.0000000000
     47295      1328  PPPE      C12            -4.7321679231       36.7822892190      -20.0562788585  MEMB      68              0.0000000000
     47296      1328  PPPE      H12A           -3.8958127706       36.1011400557      -19.7900705266  MEMB      68              0.0000000000
     47297      1328  PPPE      H12B           -5.6525952005       36.3132434663      -20.4650950874  MEMB      68              0.0000000000
     47298      1328  PPPE      C11            -5.1427763517       37.5856205555      -18.7838208474  MEMB      68              0.0000000000
     47299      1328  PPPE      H11A           -4.3666319816       38.3631590645      -18.6184280314  MEMB      68              0.0000000000
     47300      1328  PPPE      H11B           -5.1954935372       36.9163701729      -17.8985831258  MEMB      68              0.0000000000
     47301      1328  PPPE      P              -6.7885139494       39.5068435315      -18.4507562999  MEMB      68              0.0000000000
     47302      1328  PPPE      O13            -6.2888787181       40.4945063551      -19.4302997120  MEMB      68              0.0000000000
     47303      1328  PPPE      O14            -8.2240733884       39.5944233706      -18.1459458380  MEMB      68              0.0000000000
     47304      1328  PPPE      O11            -6.0112800964       39.6873453621      -17.1048060670  MEMB      68              0.0000000000
     47305      1328  PPPE      O12            -6.5075839674       38.0760012196      -18.9307485755  MEMB      68              0.0000000000
     47306      1328  PPPE      C1             -6.5111650736       40.3594223846      -15.9606614028  MEMB      68              0.0000000000
     47307      1328  PPPE      HA             -7.5405498156       40.0544288032      -15.6748870723  MEMB      68              0.0000000000
     47308      1328  PPPE      HB             -6.6150298042       41.4370969822      -16.2099615819  MEMB      68              0.0000000000
     47309      1328  PPPE      C2             -5.6618517583       40.1190706482      -14.7288421647  MEMB      68              0.0000000000
     47310      1328  PPPE      HS             -4.8026298805       40.8182666062      -14.8135993298  MEMB      68              0.0000000000
     47311      1328  PPPE      O21            -5.2410481989       38.7665753098      -14.5286259817  MEMB      68              0.0000000000
     47312      1328  PPPE      C21            -4.0532210886       38.5848336986      -13.9645829859  MEMB      68              0.0000000000
     47313      1328  PPPE      O22            -3.4061952936       39.4657260015      -13.3550556371  MEMB      68              0.0000000000
     47314      1328  PPPE      C22            -3.4885818410       37.2142864226      -14.2407617934  MEMB      68              0.0000000000
     47315      1328  PPPE      H2R            -2.3816821187       37.2925798426      -14.2952057576  MEMB      68              0.0000000000
     47316      1328  PPPE      H2S            -3.9651850440       36.7895245145      -15.1500184724  MEMB      68              0.0000000000
     47317      1328  PPPE      C3             -6.3701800084       40.6468380221      -13.4810912838  MEMB      68              0.0000000000
     47318      1328  PPPE      HX             -5.7114826184       40.5313848755      -12.5938994672  MEMB      68              0.0000000000
     47319      1328  PPPE      HY             -6.5991265599       41.7135157094      -13.6910988735  MEMB      68              0.0000000000
     47320      1328  PPPE      O31            -7.5803840537       39.9215625851      -13.3216730076  MEMB      68              0.0000000000
     47321      1328  PPPE      C31            -7.6952879969       38.9674730175      -12.3428328143  MEMB      68              0.0000000000
     47322      1328  PPPE      O32            -6.9473411720       38.8167669453      -11.4179370047  MEMB      68              0.0000000000
     47323      1328  PPPE      C32            -9.0198896213       38.2234329778      -12.5931834531  MEMB      68              0.0000000000
     47324      1328  PPPE      H2X            -9.7865206802       38.8294836602      -13.1216722324  MEMB      68              0.0000000000
     47325      1328  PPPE      H2Y            -9.4599233100       37.9912833234      -11.5998064397  MEMB      68              0.0000000000
     47326      1328  PPPE      C23            -3.6762229654       36.2826650227      -13.0943474334  MEMB      68              0.0000000000
     47327      1328  PPPE      H3R            -3.4160830058       35.2471451402      -13.4015066339  MEMB      68              0.0000000000
     47328      1328  PPPE      H3S            -4.7570442986       36.1405991307      -12.8799563696  MEMB      68              0.0000000000
     47329      1328  PPPE      C24            -2.8352136901       36.6241287174      -11.8062841585  MEMB      68              0.0000000000
     47330      1328  PPPE      H4R            -2.1500709006       37.4474189128      -12.1014004271  MEMB      68              0.0000000000
     47331      1328  PPPE      H4S            -2.4049576158       35.6449080040      -11.5057388122  MEMB      68              0.0000000000
     47332      1328  PPPE      C25            -3.7318633506       37.1613903370      -10.7281320342  MEMB      68              0.0000000000
     47333      1328  PPPE      H5R            -4.6527486022       36.5514731686      -10.6085812033  MEMB      68              0.0000000000
     47334      1328  PPPE      H5S            -4.1678007796       38.0804560839      -11.1748956302  MEMB      68              0.0000000000
     47335      1328  PPPE      C26            -3.0634838939       37.3957014061       -9.3370278730  MEMB      68              0.0000000000
     47336      1328  PPPE      H6R            -2.3902502809       38.2710045135       -9.4591833979  MEMB      68              0.0000000000
     47337      1328  PPPE      H6S            -2.3227251552       36.5789652609       -9.2008678193  MEMB      68              0.0000000000
     47338      1328  PPPE      C27            -3.9817425091       37.6375475274       -8.2513389054  MEMB      68              0.0000000000
     47339      1328  PPPE      H7R            -4.4373850598       36.6469137821       -8.0383702485  MEMB      68              0.0000000000
     47340      1328  PPPE      H7S            -4.9063810510       38.2227379131       -8.4434763026  MEMB      68              0.0000000000
     47341      1328  PPPE      C28            -3.3986812725       38.2624939929       -6.9312401814  MEMB      68              0.0000000000
     47342      1328  PPPE      H8R            -4.2927299538       38.5411380992       -6.3334480625  MEMB      68              0.0000000000
     47343      1328  PPPE      H8S            -2.6912945179       39.0646704127       -7.2319692469  MEMB      68              0.0000000000
     47344      1328  PPPE      C29            -2.6168907711       37.2527614030       -6.1258635906  MEMB      68              0.0000000000
     47345      1328  PPPE      H91            -1.5386618078       37.2573200672       -6.3435824947  MEMB      68              0.0000000000
     47346      1328  PPPE      C210           -3.0677089808       36.4046110217       -5.1802789607  MEMB      68              0.0000000000
     47347      1328  PPPE      H101           -2.3253882777       35.8519205773       -4.5857259803  MEMB      68              0.0000000000
     47348      1328  PPPE      C211           -4.4970825961       36.4069146747       -4.8059944297  MEMB      68              0.0000000000
     47349      1328  PPPE      H11R           -5.0723846551       35.4993105745       -5.0881350652  MEMB      68              0.0000000000
     47350      1328  PPPE      H11S           -5.0934754128       37.2379148114       -5.2396710151  MEMB      68              0.0000000000
     47351      1328  PPPE      C212           -4.6723500514       36.7343605364       -3.2998965475  MEMB      68              0.0000000000
     47352      1328  PPPE      H12R           -4.0705137282       36.0246751459       -2.6928869210  MEMB      68              0.0000000000
     47353      1328  PPPE      H12S           -5.7432605788       36.7204255120       -3.0044689636  MEMB      68              0.0000000000
     47354      1328  PPPE      C213           -4.1705032987       38.1602754060       -2.9252635779  MEMB      68              0.0000000000
     47355      1328  PPPE      H13R           -4.9416009797       38.8210550918       -3.3759292780  MEMB      68              0.0000000000
     47356      1328  PPPE      H13S           -3.2201267161       38.3531273036       -3.4674014726  MEMB      68              0.0000000000
     47357      1328  PPPE      C214           -4.1073711323       38.3248891905       -1.3661958163  MEMB      68              0.0000000000
     47358      1328  PPPE      H14R           -3.5996805205       39.3083502020       -1.2693677122  MEMB      68              0.0000000000
     47359      1328  PPPE      H14S           -3.4655938833       37.5716698661       -0.8611179886  MEMB      68              0.0000000000
     47360      1328  PPPE      C215           -5.5278163607       38.2911492363       -0.8531042339  MEMB      68              0.0000000000
     47361      1328  PPPE      H15R           -5.9842634197       37.2937154051       -1.0294641915  MEMB      68              0.0000000000
     47362      1328  PPPE      H15S           -6.1035568395       39.0470215915       -1.4288653682  MEMB      68              0.0000000000
     47363      1328  PPPE      C216           -5.5937779575       38.7304407739        0.6244955179  MEMB      68              0.0000000000
     47364      1328  PPPE      H16R           -4.9869052483       38.0858734287        1.2957327727  MEMB      68              0.0000000000
     47365      1328  PPPE      H16S           -5.2026671519       39.7670141642        0.7073746106  MEMB      68              0.0000000000
     47366      1328  PPPE      H16T           -6.6444655116       38.6275716405        0.9706090907  MEMB      68              0.0000000000
     47367      1328  PPPE      C33            -8.5037862823       36.9457622074      -13.3741817565  MEMB      68              0.0000000000
     47368      1328  PPPE      H3X            -7.9954085669       37.2812549010      -14.3033306956  MEMB      68              0.0000000000
     47369      1328  PPPE      H3Y            -9.4809518593       36.5340403836      -13.7057742397  MEMB      68              0.0000000000
     47370      1328  PPPE      C34            -7.7395824011       35.8910618427      -12.6415025801  MEMB      68              0.0000000000
     47371      1328  PPPE      H4X            -6.7882049820       36.2125790747      -12.1662882327  MEMB      68              0.0000000000
     47372      1328  PPPE      H4Y            -7.3870726008       35.1367499347      -13.3770781278  MEMB      68              0.0000000000
     47373      1328  PPPE      C35            -8.6256317246       35.2602802992      -11.6274652822  MEMB      68              0.0000000000
     47374      1328  PPPE      H5X            -9.7145670470       35.3507124307      -11.8283704673  MEMB      68              0.0000000000
     47375      1328  PPPE      H5Y            -8.6065090673       35.8982224769      -10.7180780699  MEMB      68              0.0000000000
     47376      1328  PPPE      C36            -8.2731645904       33.8166478557      -11.3287725740  MEMB      68              0.0000000000
     47377      1328  PPPE      H6X            -8.4527937943       33.2000908535      -12.2353660949  MEMB      68              0.0000000000
     47378      1328  PPPE      H6Y            -8.9980907425       33.4649544350      -10.5638445958  MEMB      68              0.0000000000
     47379      1328  PPPE      C37            -6.8288544520       33.5271657350      -10.8556719423  MEMB      68              0.0000000000
     47380      1328  PPPE      H7X            -6.0892856198       33.7782709873      -11.6458017383  MEMB      68              0.0000000000
     47381      1328  PPPE      H7Y            -6.7176830109       32.4302337084      -10.7189165408  MEMB      68              0.0000000000
     47382      1328  PPPE      C38            -6.3827871737       34.3155186444       -9.5554580329  MEMB      68              0.0000000000
     47383      1328  PPPE      H8X            -6.6231793290       35.3970460555       -9.6381083256  MEMB      68              0.0000000000
     47384      1328  PPPE      H8Y            -5.2780789976       34.1977885732       -9.5464872006  MEMB      68              0.0000000000
     47385      1328  PPPE      C39            -7.0202627371       33.5669237466       -8.4023731256  MEMB      68              0.0000000000
     47386      1328  PPPE      H9X            -6.6651910614       32.5184700407       -8.4971883766  MEMB      68              0.0000000000
     47387      1328  PPPE      H9Y            -8.1179841754       33.6535211884       -8.5501213131  MEMB      68              0.0000000000
     47388      1328  PPPE      C310           -6.7672563924       34.0638601285       -6.9567648010  MEMB      68              0.0000000000
     47389      1328  PPPE      H10X           -7.0196157408       35.1452603008       -6.9219879922  MEMB      68              0.0000000000
     47390      1328  PPPE      H10Y           -5.6714285860       33.9639244728       -6.8034830871  MEMB      68              0.0000000000
     47391      1328  PPPE      C311           -7.4444874429       33.3223567327       -5.7824093246  MEMB      68              0.0000000000
     47392      1328  PPPE      H11X           -7.0338591780       32.3009702677       -5.6324922896  MEMB      68              0.0000000000
     47393      1328  PPPE      H11Y           -8.4778780751       33.1551163639       -6.1545053609  MEMB      68              0.0000000000
     47394      1328  PPPE      C312           -7.5401189994       34.0808706792       -4.3992409044  MEMB      68              0.0000000000
     47395      1328  PPPE      H12X           -7.9004952920       35.1260272036       -4.5092307543  MEMB      68              0.0000000000
     47396      1328  PPPE      H12Y           -6.5354664222       34.2368904571       -3.9512989125  MEMB      68              0.0000000000
     47397      1328  PPPE      C313           -8.4034847892       33.2909544498       -3.4293976681  MEMB      68              0.0000000000
     47398      1328  PPPE      H13X           -7.9805337557       32.2716845151       -3.3008588668  MEMB      68              0.0000000000
     47399      1328  PPPE      H13Y           -9.3808971571       33.3256146849       -3.9564505413  MEMB      68              0.0000000000
     47400      1328  PPPE      C314           -8.5841035018       33.9559250567       -2.0049950444  MEMB      68              0.0000000000
     47401      1328  PPPE      H14X           -9.2044787986       33.2051287177       -1.4704294746  MEMB      68              0.0000000000
     47402      1328  PPPE      H14Y           -9.1493516511       34.9042606356       -2.1293942387  MEMB      68              0.0000000000
     47403      1328  PPPE      C315           -7.3084765508       33.9961132036       -1.2146809729  MEMB      68              0.0000000000
     47404      1328  PPPE      H15X           -6.5547029619       34.5729026270       -1.7921412208  MEMB      68              0.0000000000
     47405      1328  PPPE      H15Y           -6.9566425346       32.9530129824       -1.0647618163  MEMB      68              0.0000000000
     47406      1328  PPPE      C316           -7.5043928309       34.6307024933        0.1599158230  MEMB      68              0.0000000000
     47407      1328  PPPE      H16X           -7.6317656076       35.7302543515        0.0646116407  MEMB      68              0.0000000000
     47408      1328  PPPE      H16Y           -8.3601307134       34.1436624207        0.6745279527  MEMB      68              0.0000000000
     47409      1328  PPPE      H16Z           -6.7263768864       34.3729660346        0.9099718929  MEMB      68              0.0000000000
     47410      1329  PPPE      N              25.6942775527       30.5738452187      -21.0716949510  MEMB      69              0.0000000000
     47411      1329  PPPE      HN1            26.3461971019       30.6526286759      -21.8781650796  MEMB      69              0.0000000000
     47412      1329  PPPE      HN2            26.2117517336       30.8972669514      -20.2295436256  MEMB      69              0.0000000000
     47413      1329  PPPE      HN3            25.3760307342       29.5914192254      -20.9485765927  MEMB      69              0.0000000000
     47414      1329  PPPE      C12            24.4258744973       31.2924993724      -21.3133039667  MEMB      69              0.0000000000
     47415      1329  PPPE      H12A           23.8938956120       30.9070104702      -22.2092491501  MEMB      69              0.0000000000
     47416      1329  PPPE      H12B           24.7397743339       32.3029513296      -21.6520881679  MEMB      69              0.0000000000
     47417      1329  PPPE      C11            23.4813908616       31.5371641674      -20.0537553393  MEMB      69              0.0000000000
     47418      1329  PPPE      H11A           22.6116413963       32.1644753008      -20.3441647218  MEMB      69              0.0000000000
     47419      1329  PPPE      H11B           24.0872734831       32.2015373881      -19.4011946351  MEMB      69              0.0000000000
     47420      1329  PPPE      P              22.7584150959       30.1435877676      -17.8699640842  MEMB      69              0.0000000000
     47421      1329  PPPE      O13            22.1388477789       31.3708458374      -17.3466241751  MEMB      69              0.0000000000
     47422      1329  PPPE      O14            22.0421103226       28.8926604493      -17.6450261632  MEMB      69              0.0000000000
     47423      1329  PPPE      O11            24.1594679834       30.0254235613      -17.2234593320  MEMB      69              0.0000000000
     47424      1329  PPPE      O12            23.0533103052       30.3135328288      -19.4761716083  MEMB      69              0.0000000000
     47425      1329  PPPE      C1             25.1350202511       29.0569433902      -17.5660270703  MEMB      69              0.0000000000
     47426      1329  PPPE      HA             26.0284468615       29.5338810167      -17.1092553635  MEMB      69              0.0000000000
     47427      1329  PPPE      HB             25.3840568454       29.1175104425      -18.6470605604  MEMB      69              0.0000000000
     47428      1329  PPPE      C2             24.7632109629       27.6380705599      -17.1958163072  MEMB      69              0.0000000000
     47429      1329  PPPE      HS             24.0734949666       27.2042149682      -17.9510528065  MEMB      69              0.0000000000
     47430      1329  PPPE      O21            24.1457793454       27.6728564832      -15.9252127320  MEMB      69              0.0000000000
     47431      1329  PPPE      C21            23.6919892358       26.5307980405      -15.3365121265  MEMB      69              0.0000000000
     47432      1329  PPPE      O22            23.8619779203       25.3946523732      -15.7350804846  MEMB      69              0.0000000000
     47433      1329  PPPE      C22            23.1859899391       26.8266844990      -13.9116908323  MEMB      69              0.0000000000
     47434      1329  PPPE      H2R            23.1055388000       25.8743278432      -13.3452409982  MEMB      69              0.0000000000
     47435      1329  PPPE      H2S            22.1342076621       27.1819016390      -13.8681497558  MEMB      69              0.0000000000
     47436      1329  PPPE      C3             26.0461942275       26.7174431498      -17.2595728041  MEMB      69              0.0000000000
     47437      1329  PPPE      HX             25.7252217912       25.6554101562      -17.3177416598  MEMB      69              0.0000000000
     47438      1329  PPPE      HY             26.5131516690       26.9050207295      -18.2500708603  MEMB      69              0.0000000000
     47439      1329  PPPE      O31            26.9271553226       26.9598607617      -16.1667582213  MEMB      69              0.0000000000
     47440      1329  PPPE      C31            28.0021336004       27.6480187649      -16.3708058067  MEMB      69              0.0000000000
     47441      1329  PPPE      O32            28.3578216612       28.2304344961      -17.3600971431  MEMB      69              0.0000000000
     47442      1329  PPPE      C32            28.7881558843       27.4981396412      -15.0682291925  MEMB      69              0.0000000000
     47443      1329  PPPE      H2X            29.8462694081       27.7373889383      -15.3079718554  MEMB      69              0.0000000000
     47444      1329  PPPE      H2Y            28.7611764290       26.4126618499      -14.8330036119  MEMB      69              0.0000000000
     47445      1329  PPPE      C23            23.9580088940       27.9423315981      -13.2009472892  MEMB      69              0.0000000000
     47446      1329  PPPE      H3R            25.0187340595       27.9443762715      -13.5313696595  MEMB      69              0.0000000000
     47447      1329  PPPE      H3S            23.9959044376       27.6771342176      -12.1227287227  MEMB      69              0.0000000000
     47448      1329  PPPE      C24            23.3022105035       29.3484532412      -13.3782471673  MEMB      69              0.0000000000
     47449      1329  PPPE      H4R            22.5136991526       29.4278037215      -14.1568833794  MEMB      69              0.0000000000
     47450      1329  PPPE      H4S            24.0664600743       29.9614774856      -13.9021220275  MEMB      69              0.0000000000
     47451      1329  PPPE      C25            22.8092298958       30.0009333285      -12.0684291213  MEMB      69              0.0000000000
     47452      1329  PPPE      H5R            22.1844236935       29.1995476977      -11.6192974253  MEMB      69              0.0000000000
     47453      1329  PPPE      H5S            22.1919545675       30.9000742104      -12.2801786043  MEMB      69              0.0000000000
     47454      1329  PPPE      C26            23.9508420420       30.3217205263      -11.1148387096  MEMB      69              0.0000000000
     47455      1329  PPPE      H6R            24.6916977218       30.8918680294      -11.7151600289  MEMB      69              0.0000000000
     47456      1329  PPPE      H6S            24.3975080052       29.3446604967      -10.8317058504  MEMB      69              0.0000000000
     47457      1329  PPPE      C27            23.4218460090       30.9260696662       -9.8509174053  MEMB      69              0.0000000000
     47458      1329  PPPE      H7R            22.5607804263       30.4188438134       -9.3655216942  MEMB      69              0.0000000000
     47459      1329  PPPE      H7S            23.0916647670       31.9535032227      -10.1148901964  MEMB      69              0.0000000000
     47460      1329  PPPE      C28            24.4555997402       31.0090777624       -8.6476184065  MEMB      69              0.0000000000
     47461      1329  PPPE      H8R            23.8573195309       31.5987287615       -7.9205052858  MEMB      69              0.0000000000
     47462      1329  PPPE      H8S            25.3142120958       31.6411318942       -8.9600498345  MEMB      69              0.0000000000
     47463      1329  PPPE      C29            24.8473696179       29.5631541376       -8.1137505625  MEMB      69              0.0000000000
     47464      1329  PPPE      H91            25.2704249499       28.9070264313       -8.8886832171  MEMB      69              0.0000000000
     47465      1329  PPPE      C210           24.5487525082       28.9646159006       -6.9612551340  MEMB      69              0.0000000000
     47466      1329  PPPE      H101           25.0827361188       28.0215370298       -6.7729369270  MEMB      69              0.0000000000
     47467      1329  PPPE      C211           23.7430128869       29.5957308664       -5.8506413508  MEMB      69              0.0000000000
     47468      1329  PPPE      H11R           23.0549207587       28.8795368450       -5.3527293639  MEMB      69              0.0000000000
     47469      1329  PPPE      H11S           22.9746168033       30.2969048710       -6.2408252483  MEMB      69              0.0000000000
     47470      1329  PPPE      C212           24.5433437105       30.4595108416       -4.7431716737  MEMB      69              0.0000000000
     47471      1329  PPPE      H12R           24.3745494937       31.5469017289       -4.8961768058  MEMB      69              0.0000000000
     47472      1329  PPPE      H12S           25.6035092095       30.1273160373       -4.7390818241  MEMB      69              0.0000000000
     47473      1329  PPPE      C213           24.0064717349       30.0265778555       -3.3471110100  MEMB      69              0.0000000000
     47474      1329  PPPE      H13R           24.2571593038       28.9474305233       -3.2639378291  MEMB      69              0.0000000000
     47475      1329  PPPE      H13S           22.9041209362       30.0772408114       -3.2183593824  MEMB      69              0.0000000000
     47476      1329  PPPE      C214           24.7462309093       30.7253899273       -2.2408542530  MEMB      69              0.0000000000
     47477      1329  PPPE      H14R           24.2227745086       31.6077490346       -1.8145248003  MEMB      69              0.0000000000
     47478      1329  PPPE      H14S           25.7749237894       31.0644733961       -2.4881078874  MEMB      69              0.0000000000
     47479      1329  PPPE      C215           24.9518567265       29.8091226685       -1.0284891143  MEMB      69              0.0000000000
     47480      1329  PPPE      H15R           25.5206073720       30.3670084515       -0.2541460660  MEMB      69              0.0000000000
     47481      1329  PPPE      H15S           25.6343692816       28.9720826709       -1.2889918103  MEMB      69              0.0000000000
     47482      1329  PPPE      C216           23.7371667408       29.2124372863       -0.3829915912  MEMB      69              0.0000000000
     47483      1329  PPPE      H16R           23.8939882601       28.4509797557        0.4106773828  MEMB      69              0.0000000000
     47484      1329  PPPE      H16S           23.2924070282       30.1070485692        0.1029924110  MEMB      69              0.0000000000
     47485      1329  PPPE      H16T           23.0203195217       28.9036669809       -1.1736318147  MEMB      69              0.0000000000
     47486      1329  PPPE      C33            28.1386580932       28.3590272544      -14.1002247244  MEMB      69              0.0000000000
     47487      1329  PPPE      H3X            27.0942378171       28.0462123446      -13.8865564789  MEMB      69              0.0000000000
     47488      1329  PPPE      H3Y            28.0734443560       29.4113111495      -14.4506056209  MEMB      69              0.0000000000
     47489      1329  PPPE      C34            28.9072181637       28.3195192983      -12.8376182673  MEMB      69              0.0000000000
     47490      1329  PPPE      H4X            29.9465396600       28.4479554679      -13.2086114987  MEMB      69              0.0000000000
     47491      1329  PPPE      H4Y            28.7633313436       27.3254362514      -12.3628378141  MEMB      69              0.0000000000
     47492      1329  PPPE      C35            28.5492265330       29.4106039900      -11.8269332307  MEMB      69              0.0000000000
     47493      1329  PPPE      H5X            27.4426531620       29.5067138246      -11.8510013478  MEMB      69              0.0000000000
     47494      1329  PPPE      H5Y            28.9435839044       30.3710341504      -12.2223787652  MEMB      69              0.0000000000
     47495      1329  PPPE      C36            29.0955817247       29.2044103000      -10.4228564138  MEMB      69              0.0000000000
     47496      1329  PPPE      H6X            30.1729311000       29.4651837988      -10.4979330798  MEMB      69              0.0000000000
     47497      1329  PPPE      H6Y            29.0149852650       28.1239376302      -10.1770841200  MEMB      69              0.0000000000
     47498      1329  PPPE      C37            28.3835363770       30.0323848515       -9.3393583617  MEMB      69              0.0000000000
     47499      1329  PPPE      H7X            27.2957821127       29.8083295493       -9.3695391843  MEMB      69              0.0000000000
     47500      1329  PPPE      H7Y            28.5546377732       31.1256895212       -9.4380001961  MEMB      69              0.0000000000
     47501      1329  PPPE      C38            28.9820072643       29.6355848766       -7.9238661985  MEMB      69              0.0000000000
     47502      1329  PPPE      H8X            30.0742969998       29.8300031792       -7.9823953135  MEMB      69              0.0000000000
     47503      1329  PPPE      H8Y            28.8254600309       28.5436282507       -7.7917878473  MEMB      69              0.0000000000
     47504      1329  PPPE      C39            28.2065767600       30.2956919191       -6.7302199957  MEMB      69              0.0000000000
     47505      1329  PPPE      H9X            27.1442151526       30.0039536634       -6.8737386544  MEMB      69              0.0000000000
     47506      1329  PPPE      H9Y            28.3027940098       31.3823402873       -6.9405971923  MEMB      69              0.0000000000
     47507      1329  PPPE      C310           28.5861327034       29.9919690909       -5.2979367100  MEMB      69              0.0000000000
     47508      1329  PPPE      H10X           28.0729480296       30.6918271774       -4.6042789057  MEMB      69              0.0000000000
     47509      1329  PPPE      H10Y           29.6918624007       30.0686110549       -5.2217209259  MEMB      69              0.0000000000
     47510      1329  PPPE      C311           28.1718210033       28.5683042825       -4.9660005552  MEMB      69              0.0000000000
     47511      1329  PPPE      H11X           28.8061690310       27.9780996312       -5.6614011946  MEMB      69              0.0000000000
     47512      1329  PPPE      H11Y           27.0987679256       28.3524654761       -5.1565043661  MEMB      69              0.0000000000
     47513      1329  PPPE      C312           28.5433262892       27.9594037911       -3.5700683451  MEMB      69              0.0000000000
     47514      1329  PPPE      H12X           28.2579622170       28.6263594693       -2.7286062429  MEMB      69              0.0000000000
     47515      1329  PPPE      H12Y           29.6490215558       27.8890849052       -3.6526167065  MEMB      69              0.0000000000
     47516      1329  PPPE      C313           28.0858039980       26.5385959995       -3.2877700493  MEMB      69              0.0000000000
     47517      1329  PPPE      H13X           28.5970829426       25.9134603870       -4.0507381397  MEMB      69              0.0000000000
     47518      1329  PPPE      H13Y           26.9937358351       26.4864451322       -3.4852248914  MEMB      69              0.0000000000
     47519      1329  PPPE      C314           28.2874341074       25.8890164178       -1.8656645743  MEMB      69              0.0000000000
     47520      1329  PPPE      H14X           29.2390405600       26.2664934305       -1.4340660755  MEMB      69              0.0000000000
     47521      1329  PPPE      H14Y           28.5399775563       24.8097574402       -1.9414462704  MEMB      69              0.0000000000
     47522      1329  PPPE      C315           27.1280920073       26.2275047036       -0.8592528328  MEMB      69              0.0000000000
     47523      1329  PPPE      H15X           26.4176126446       25.4218841086       -1.1430054225  MEMB      69              0.0000000000
     47524      1329  PPPE      H15Y           26.6983493498       27.2103108705       -1.1486216053  MEMB      69              0.0000000000
     47525      1329  PPPE      C316           27.4334410136       26.2357530016        0.6335427678  MEMB      69              0.0000000000
     47526      1329  PPPE      H16X           26.5141381268       26.2567741208        1.2570500370  MEMB      69              0.0000000000
     47527      1329  PPPE      H16Y           28.0169154414       25.3499933143        0.9641609291  MEMB      69              0.0000000000
     47528      1329  PPPE      H16Z           28.0722841916       27.1132551976        0.8705876793  MEMB      69              0.0000000000
     47529      1330  PVPG      C13           -25.1977797327      -26.2889065405      -17.2915503956  MEMB      70              0.0000000000
     47530      1330  PVPG      H13A          -25.8192533178      -26.7415555868      -16.4895526648  MEMB      70              0.0000000000
     47531      1330  PVPG      H13B          -24.1646352157      -26.5820151383      -17.0069089722  MEMB      70              0.0000000000
     47532      1330  PVPG      OC3           -25.4598548709      -24.8464855842      -17.1446655768  MEMB      70              0.0000000000
     47533      1330  PVPG      HO3           -25.1876274496      -24.4568310827      -17.9787288123  MEMB      70              0.0000000000
     47534      1330  PVPG      C12           -25.7683445324      -26.8707200074      -18.6291293251  MEMB      70              0.0000000000
     47535      1330  PVPG      H12A          -25.1611280986      -26.4445638690      -19.4612700513  MEMB      70              0.0000000000
     47536      1330  PVPG      OC2           -27.1213129892      -26.4506167867      -18.8108723552  MEMB      70              0.0000000000
     47537      1330  PVPG      HO2           -27.4124205706      -26.9737983173      -19.5894956929  MEMB      70              0.0000000000
     47538      1330  PVPG      C11           -25.6267989504      -28.4322156908      -18.6215261016  MEMB      70              0.0000000000
     47539      1330  PVPG      H11A          -26.1231075464      -28.7614689484      -17.6836609719  MEMB      70              0.0000000000
     47540      1330  PVPG      H11B          -24.5782504069      -28.7614036943      -18.4587312488  MEMB      70              0.0000000000
     47541      1330  PVPG      P             -26.1459345038      -30.6480666334      -19.9737188656  MEMB      70              0.0000000000
     47542      1330  PVPG      O13           -24.7431550732      -31.0690297227      -20.2695980180  MEMB      70              0.0000000000
     47543      1330  PVPG      O14           -27.2282517589      -31.1077501580      -20.9272931865  MEMB      70              0.0000000000
     47544      1330  PVPG      O12           -26.1988741634      -29.0587341400      -19.7563340913  MEMB      70              0.0000000000
     47545      1330  PVPG      O11           -26.4699154479      -31.1944117444      -18.5753120828  MEMB      70              0.0000000000
     47546      1330  PVPG      C1            -27.4869724536      -32.2038533457      -18.4496772948  MEMB      70              0.0000000000
     47547      1330  PVPG      HA            -27.0703366758      -33.2126922050      -18.6569930679  MEMB      70              0.0000000000
     47548      1330  PVPG      HB            -28.3604962875      -32.0590209618      -19.1207218337  MEMB      70              0.0000000000
     47549      1330  PVPG      C2            -28.1001208018      -32.2215737200      -17.0172476384  MEMB      70              0.0000000000
     47550      1330  PVPG      HS            -29.0463452474      -32.8037207850      -17.0080127924  MEMB      70              0.0000000000
     47551      1330  PVPG      O21           -28.3423067128      -30.7807073179      -16.7379653480  MEMB      70              0.0000000000
     47552      1330  PVPG      C21           -29.3699371527      -30.5530326072      -15.8570925879  MEMB      70              0.0000000000
     47553      1330  PVPG      O22           -29.8061442704      -31.3960540496      -15.1414866112  MEMB      70              0.0000000000
     47554      1330  PVPG      C22           -29.7226737639      -29.0093442281      -15.8642779497  MEMB      70              0.0000000000
     47555      1330  PVPG      H2R           -30.8286599002      -28.9522472632      -15.7756450496  MEMB      70              0.0000000000
     47556      1330  PVPG      H2S           -29.3568441734      -28.6378817678      -16.8453516188  MEMB      70              0.0000000000
     47557      1330  PVPG      C3            -26.9982124668      -32.7839814508      -16.0974011706  MEMB      70              0.0000000000
     47558      1330  PVPG      HX            -26.5580594066      -33.7667797026      -16.3707030622  MEMB      70              0.0000000000
     47559      1330  PVPG      HY            -26.0986935433      -32.1347390729      -16.1579906074  MEMB      70              0.0000000000
     47560      1330  PVPG      O31           -27.5150349881      -32.8866955239      -14.7996845047  MEMB      70              0.0000000000
     47561      1330  PVPG      C31           -26.7866918178      -33.3305879699      -13.8062423560  MEMB      70              0.0000000000
     47562      1330  PVPG      O32           -25.6849039275      -33.8208864583      -13.9777037255  MEMB      70              0.0000000000
     47563      1330  PVPG      C32           -27.6371131939      -33.2938144353      -12.5331287026  MEMB      70              0.0000000000
     47564      1330  PVPG      H2X           -28.0601738994      -34.3137898890      -12.4106935479  MEMB      70              0.0000000000
     47565      1330  PVPG      H2Y           -28.5502223702      -32.6624204991      -12.5766498632  MEMB      70              0.0000000000
     47566      1330  PVPG      C23           -28.9214285533      -28.4949021580      -14.6041448384  MEMB      70              0.0000000000
     47567      1330  PVPG      H3R           -28.9844503349      -29.0751350686      -13.6587987799  MEMB      70              0.0000000000
     47568      1330  PVPG      H3S           -29.3783087539      -27.5043724041      -14.3933558107  MEMB      70              0.0000000000
     47569      1330  PVPG      C24           -27.5126958102      -28.1425893652      -14.9799546866  MEMB      70              0.0000000000
     47570      1330  PVPG      H4R           -27.2127175618      -27.2199038907      -14.4386731033  MEMB      70              0.0000000000
     47571      1330  PVPG      H4S           -27.5616070622      -27.8246589496      -16.0433684610  MEMB      70              0.0000000000
     47572      1330  PVPG      C25           -26.3981832369      -29.1370057766      -14.5149123249  MEMB      70              0.0000000000
     47573      1330  PVPG      H5R           -25.4892435943      -28.5800824255      -14.8279400001  MEMB      70              0.0000000000
     47574      1330  PVPG      H5S           -26.5701844843      -30.1193587585      -15.0045236839  MEMB      70              0.0000000000
     47575      1330  PVPG      C26           -26.4236215142      -29.2492890855      -12.9617412422  MEMB      70              0.0000000000
     47576      1330  PVPG      H6R           -27.0221005327      -30.1231591485      -12.6263382615  MEMB      70              0.0000000000
     47577      1330  PVPG      H6S           -26.8232250690      -28.3356547078      -12.4719349799  MEMB      70              0.0000000000
     47578      1330  PVPG      C27           -25.0891358890      -29.4525969301      -12.4122079688  MEMB      70              0.0000000000
     47579      1330  PVPG      H7R           -24.4745397583      -28.5761065368      -12.7094572921  MEMB      70              0.0000000000
     47580      1330  PVPG      H7S           -24.4877133762      -30.2457676916      -12.9056568968  MEMB      70              0.0000000000
     47581      1330  PVPG      C28           -24.9833763475      -29.3797104464      -10.8803528736  MEMB      70              0.0000000000
     47582      1330  PVPG      H8R           -25.6226720857      -30.1492591611      -10.3972196137  MEMB      70              0.0000000000
     47583      1330  PVPG      H8S           -25.2968688801      -28.4305655789      -10.3954119372  MEMB      70              0.0000000000
     47584      1330  PVPG      C29           -23.4830637507      -29.6408386040      -10.4070495871  MEMB      70              0.0000000000
     47585      1330  PVPG      H9R           -22.8204278873      -28.8601513414      -10.8380502675  MEMB      70              0.0000000000
     47586      1330  PVPG      H9S           -23.0533269005      -30.5537936896      -10.8719791350  MEMB      70              0.0000000000
     47587      1330  PVPG      C210          -23.3415295129      -29.8948447876       -8.9238018910  MEMB      70              0.0000000000
     47588      1330  PVPG      H10R          -23.6807985413      -28.9647083552       -8.4197538260  MEMB      70              0.0000000000
     47589      1330  PVPG      H10S          -22.2344492420      -29.9803867856       -8.8867020725  MEMB      70              0.0000000000
     47590      1330  PVPG      C211          -23.8171293012      -31.1520479857       -8.3023735387  MEMB      70              0.0000000000
     47591      1330  PVPG      H111          -23.3495131362      -32.0884577713       -8.6407098565  MEMB      70              0.0000000000
     47592      1330  PVPG      C212          -24.5910002017      -31.1974699785       -7.2111136305  MEMB      70              0.0000000000
     47593      1330  PVPG      H121          -24.8102837273      -32.1452886423       -6.6977377032  MEMB      70              0.0000000000
     47594      1330  PVPG      C213          -25.2151006874      -30.1124899975       -6.4048397770  MEMB      70              0.0000000000
     47595      1330  PVPG      H13R          -26.2261397145      -30.3663443038       -6.0205495174  MEMB      70              0.0000000000
     47596      1330  PVPG      H13S          -25.3302393572      -29.1667574291       -6.9763759223  MEMB      70              0.0000000000
     47597      1330  PVPG      C214          -24.2911959831      -29.6400903904       -5.2704962028  MEMB      70              0.0000000000
     47598      1330  PVPG      H14R          -24.7805013604      -28.8045842410       -4.7256749977  MEMB      70              0.0000000000
     47599      1330  PVPG      H14S          -23.4637819595      -29.2338404005       -5.8907124522  MEMB      70              0.0000000000
     47600      1330  PVPG      C215          -23.8096965457      -30.6920621150       -4.2741500293  MEMB      70              0.0000000000
     47601      1330  PVPG      H15R          -23.0863283012      -30.2296421587       -3.5690066320  MEMB      70              0.0000000000
     47602      1330  PVPG      H15S          -23.2173992450      -31.4018931340       -4.8903032093  MEMB      70              0.0000000000
     47603      1330  PVPG      C216          -24.8908470419      -31.5169894578       -3.5753510680  MEMB      70              0.0000000000
     47604      1330  PVPG      H16R          -25.2755826662      -32.1297138425       -4.4184817199  MEMB      70              0.0000000000
     47605      1330  PVPG      H16S          -25.6538193467      -30.8051708528       -3.1938957458  MEMB      70              0.0000000000
     47606      1330  PVPG      C217          -24.4746430740      -32.4023705095       -2.3847468305  MEMB      70              0.0000000000
     47607      1330  PVPG      H17R          -23.4753974546      -32.8451258190       -2.5842393798  MEMB      70              0.0000000000
     47608      1330  PVPG      H17S          -25.3213685931      -33.1193792774       -2.3275226347  MEMB      70              0.0000000000
     47609      1330  PVPG      C218          -24.5126257908      -31.7211435368       -1.0272577302  MEMB      70              0.0000000000
     47610      1330  PVPG      H18R          -24.0821287344      -30.6976694074       -0.9886101941  MEMB      70              0.0000000000
     47611      1330  PVPG      H18S          -25.5552418339      -31.7215859665       -0.6434954285  MEMB      70              0.0000000000
     47612      1330  PVPG      H18T          -23.8270995672      -32.3089366897       -0.3800533304  MEMB      70              0.0000000000
     47613      1330  PVPG      C33           -26.6452071592      -32.9643250144      -11.2668186690  MEMB      70              0.0000000000
     47614      1330  PVPG      H3X           -26.0881495077      -32.0184863067      -11.4382746031  MEMB      70              0.0000000000
     47615      1330  PVPG      H3Y           -25.9272915399      -33.8012493032      -11.1308919909  MEMB      70              0.0000000000
     47616      1330  PVPG      C34           -27.4552810352      -32.9115166634       -9.9593991417  MEMB      70              0.0000000000
     47617      1330  PVPG      H4X           -26.6644200753      -32.9190972689       -9.1791413403  MEMB      70              0.0000000000
     47618      1330  PVPG      H4Y           -27.9820989495      -33.8838171097       -9.8525566996  MEMB      70              0.0000000000
     47619      1330  PVPG      C35           -28.4544171040      -31.7769579652       -9.7944566903  MEMB      70              0.0000000000
     47620      1330  PVPG      H5X           -29.1651337635      -31.9063759832      -10.6385269652  MEMB      70              0.0000000000
     47621      1330  PVPG      H5Y           -27.8970844333      -30.8163888102       -9.8262113874  MEMB      70              0.0000000000
     47622      1330  PVPG      C36           -29.2363491066      -31.8344689203       -8.4871717446  MEMB      70              0.0000000000
     47623      1330  PVPG      H6X           -29.5424721511      -32.8991054620       -8.4025624424  MEMB      70              0.0000000000
     47624      1330  PVPG      H6Y           -30.1872129736      -31.2827174496       -8.6476375980  MEMB      70              0.0000000000
     47625      1330  PVPG      C37           -28.6219188320      -31.2907164472       -7.2354162638  MEMB      70              0.0000000000
     47626      1330  PVPG      H7X           -28.1440981989      -30.3039080221       -7.4149089493  MEMB      70              0.0000000000
     47627      1330  PVPG      H7Y           -27.7586247919      -31.9486897371       -6.9985286092  MEMB      70              0.0000000000
     47628      1330  PVPG      C38           -29.5656838357      -31.1773218046       -6.0775801113  MEMB      70              0.0000000000
     47629      1330  PVPG      H8X           -29.9606931586      -32.2007566552       -5.9018802879  MEMB      70              0.0000000000
     47630      1330  PVPG      H8Y           -30.5010958301      -30.5816204111       -6.1444038662  MEMB      70              0.0000000000
     47631      1330  PVPG      C39           -28.8147731142      -30.6763739158       -4.8595737447  MEMB      70              0.0000000000
     47632      1330  PVPG      H9X           -28.4620251279      -29.6629596146       -5.1474645451  MEMB      70              0.0000000000
     47633      1330  PVPG      H9Y           -27.9063342351      -31.2895547358       -4.6777242992  MEMB      70              0.0000000000
     47634      1330  PVPG      C310          -29.5446357011      -30.6175656636       -3.4553996913  MEMB      70              0.0000000000
     47635      1330  PVPG      H10X          -29.2995631296      -31.5723182384       -2.9428488529  MEMB      70              0.0000000000
     47636      1330  PVPG      H10Y          -30.6396429088      -30.5369433383       -3.6250476833  MEMB      70              0.0000000000
     47637      1330  PVPG      C311          -28.9592799956      -29.4428266844       -2.6015340040  MEMB      70              0.0000000000
     47638      1330  PVPG      H11X          -29.3196883544      -28.4535078631       -2.9560409209  MEMB      70              0.0000000000
     47639      1330  PVPG      H11Y          -27.8556224595      -29.5246938340       -2.6993028475  MEMB      70              0.0000000000
     47640      1330  PVPG      C312          -29.3192259832      -29.6715403042       -1.1137920170  MEMB      70              0.0000000000
     47641      1330  PVPG      H12X          -29.1685200905      -30.7317896742       -0.8180220140  MEMB      70              0.0000000000
     47642      1330  PVPG      H12Y          -30.4144127530      -29.5616242897       -0.9627766064  MEMB      70              0.0000000000
     47643      1330  PVPG      C313          -28.6017071043      -28.7341973187       -0.1593860368  MEMB      70              0.0000000000
     47644      1330  PVPG      H13X          -28.9953546598      -29.1035795179        0.8116556467  MEMB      70              0.0000000000
     47645      1330  PVPG      H13Y          -28.9318456580      -27.6939696225       -0.3673655512  MEMB      70              0.0000000000
     47646      1330  PVPG      C314          -27.0316827040      -28.6555105862       -0.0893594010  MEMB      70              0.0000000000
     47647      1330  PVPG      H14X          -26.6156768878      -28.2365216160       -1.0304800626  MEMB      70              0.0000000000
     47648      1330  PVPG      H14Y          -26.6925670992      -29.7133303593       -0.1077663685  MEMB      70              0.0000000000
     47649      1330  PVPG      C315          -26.5791989229      -27.8142488016        1.0894782566  MEMB      70              0.0000000000
     47650      1330  PVPG      H15X          -27.0864806035      -26.8259877250        1.0714156199  MEMB      70              0.0000000000
     47651      1330  PVPG      H15Y          -25.4851172979      -27.6462489934        0.9941757037  MEMB      70              0.0000000000
     47652      1330  PVPG      C316          -26.8077067287      -28.4535043988        2.4785074396  MEMB      70              0.0000000000
     47653      1330  PVPG      H16X          -26.4554380509      -29.5039072863        2.5614620351  MEMB      70              0.0000000000
     47654      1330  PVPG      H16Y          -26.4854243178      -27.8542487416        3.3567717059  MEMB      70              0.0000000000
     47655      1330  PVPG      H16Z          -27.9170805297      -28.4875018239        2.5280540150  MEMB      70              0.0000000000
     47656      1331  PPPE      N             -35.1029825232      -22.2306861724      -19.0917883709  MEMB      71              0.0000000000
     47657      1331  PPPE      HN1           -35.5853972910      -23.1262679344      -19.3081429394  MEMB      71              0.0000000000
     47658      1331  PPPE      HN2           -35.2003290292      -21.8480721875      -18.1296396317  MEMB      71              0.0000000000
     47659      1331  PPPE      HN3           -35.4208396533      -21.4521695388      -19.7037350156  MEMB      71              0.0000000000
     47660      1331  PPPE      C12           -33.6570302978      -22.3553901332      -19.4528601224  MEMB      71              0.0000000000
     47661      1331  PPPE      H12A          -33.4410844910      -21.2816514378      -19.6393369908  MEMB      71              0.0000000000
     47662      1331  PPPE      H12B          -33.6264310499      -23.0182479154      -20.3439292817  MEMB      71              0.0000000000
     47663      1331  PPPE      C11           -32.8748364565      -22.8967523242      -18.2992542769  MEMB      71              0.0000000000
     47664      1331  PPPE      H11A          -33.4880157195      -23.6531521974      -17.7642856579  MEMB      71              0.0000000000
     47665      1331  PPPE      H11B          -32.6798220708      -22.1948771983      -17.4604088221  MEMB      71              0.0000000000
     47666      1331  PPPE      P             -30.3791324531      -22.6760746128      -19.0919301956  MEMB      71              0.0000000000
     47667      1331  PPPE      O13           -29.3139742797      -23.6483431182      -19.3140718279  MEMB      71              0.0000000000
     47668      1331  PPPE      O14           -30.6250885620      -21.6867996422      -20.1623401413  MEMB      71              0.0000000000
     47669      1331  PPPE      O11           -30.0993115611      -21.8925304390      -17.8012866442  MEMB      71              0.0000000000
     47670      1331  PPPE      O12           -31.6374958776      -23.4857963257      -18.7864686852  MEMB      71              0.0000000000
     47671      1331  PPPE      C1            -29.4064074579      -22.5499143520      -16.7214608439  MEMB      71              0.0000000000
     47672      1331  PPPE      HA            -29.3266172816      -21.7099446943      -15.9986845980  MEMB      71              0.0000000000
     47673      1331  PPPE      HB            -28.4036244981      -22.9250624517      -17.0181277259  MEMB      71              0.0000000000
     47674      1331  PPPE      C2            -30.1389812032      -23.7059986458      -16.0804422977  MEMB      71              0.0000000000
     47675      1331  PPPE      HS            -30.5115556200      -24.4467466311      -16.8199027269  MEMB      71              0.0000000000
     47676      1331  PPPE      O21           -31.2206270536      -23.1879679367      -15.3268798957  MEMB      71              0.0000000000
     47677      1331  PPPE      C21           -32.1795302892      -24.0367251914      -14.9815144897  MEMB      71              0.0000000000
     47678      1331  PPPE      O22           -32.4358648977      -25.0547390256      -15.6130664468  MEMB      71              0.0000000000
     47679      1331  PPPE      C22           -32.8877280491      -23.4647439121      -13.6881645010  MEMB      71              0.0000000000
     47680      1331  PPPE      H2R           -33.1964142397      -22.4059895848      -13.8226007683  MEMB      71              0.0000000000
     47681      1331  PPPE      H2S           -32.1744746877      -23.5232563508      -12.8383604429  MEMB      71              0.0000000000
     47682      1331  PPPE      C3            -29.2126087442      -24.5839393425      -15.1687521787  MEMB      71              0.0000000000
     47683      1331  PPPE      HX            -29.5634972674      -25.6356240083      -15.0969356900  MEMB      71              0.0000000000
     47684      1331  PPPE      HY            -28.2652887680      -24.6446291887      -15.7460065464  MEMB      71              0.0000000000
     47685      1331  PPPE      O31           -28.9966127563      -23.9436791618      -13.9424450385  MEMB      71              0.0000000000
     47686      1331  PPPE      C31           -29.2106860804      -24.7473972835      -12.8115189055  MEMB      71              0.0000000000
     47687      1331  PPPE      O32           -29.4777237580      -25.9492355398      -12.8069737763  MEMB      71              0.0000000000
     47688      1331  PPPE      C32           -28.9838304677      -23.9029569109      -11.5850390730  MEMB      71              0.0000000000
     47689      1331  PPPE      H2X           -29.5054318867      -22.9248549104      -11.6596677286  MEMB      71              0.0000000000
     47690      1331  PPPE      H2Y           -27.8811977033      -23.8289385398      -11.4708319469  MEMB      71              0.0000000000
     47691      1331  PPPE      C23           -34.2747729820      -24.1719879947      -13.5622232784  MEMB      71              0.0000000000
     47692      1331  PPPE      H3R           -34.1776271627      -25.2787210489      -13.5571600127  MEMB      71              0.0000000000
     47693      1331  PPPE      H3S           -34.9090367634      -23.8085158289      -14.3988345623  MEMB      71              0.0000000000
     47694      1331  PPPE      C24           -34.9601087715      -23.7077825225      -12.2688856359  MEMB      71              0.0000000000
     47695      1331  PPPE      H4R           -35.8466200158      -24.2883964977      -11.9352597593  MEMB      71              0.0000000000
     47696      1331  PPPE      H4S           -35.1745079697      -22.6500103607      -12.5324611230  MEMB      71              0.0000000000
     47697      1331  PPPE      C25           -34.0765724372      -23.6390624738      -10.9837188097  MEMB      71              0.0000000000
     47698      1331  PPPE      H5R           -34.7548334083      -23.1338310189      -10.2632854456  MEMB      71              0.0000000000
     47699      1331  PPPE      H5S           -33.2294096135      -22.9488651244      -11.1843771489  MEMB      71              0.0000000000
     47700      1331  PPPE      C26           -33.6007352894      -24.9172643876      -10.4213215008  MEMB      71              0.0000000000
     47701      1331  PPPE      H6R           -32.8040098154      -25.4494055951      -10.9837939483  MEMB      71              0.0000000000
     47702      1331  PPPE      H6S           -34.5588823285      -25.4794136718      -10.4375521474  MEMB      71              0.0000000000
     47703      1331  PPPE      C27           -33.2317295798      -24.7204857237       -8.9899679254  MEMB      71              0.0000000000
     47704      1331  PPPE      H7R           -34.1504088158      -24.3635078871       -8.4772142949  MEMB      71              0.0000000000
     47705      1331  PPPE      H7S           -32.3418148930      -24.0620340319       -8.8960838497  MEMB      71              0.0000000000
     47706      1331  PPPE      C28           -32.7991498869      -25.9423720942       -8.1007935616  MEMB      71              0.0000000000
     47707      1331  PPPE      H8R           -32.1491169988      -25.6566701916       -7.2463038500  MEMB      71              0.0000000000
     47708      1331  PPPE      H8S           -32.1283445472      -26.6057903909       -8.6874939616  MEMB      71              0.0000000000
     47709      1331  PPPE      C29           -33.9672553717      -26.7950322441       -7.6494508967  MEMB      71              0.0000000000
     47710      1331  PPPE      H91           -34.0588903141      -27.7895993438       -8.1103622999  MEMB      71              0.0000000000
     47711      1331  PPPE      C210          -34.7726903259      -26.4640650792       -6.5945324453  MEMB      71              0.0000000000
     47712      1331  PPPE      H101          -35.6260319523      -27.0888447818       -6.2921115597  MEMB      71              0.0000000000
     47713      1331  PPPE      C211          -34.5420939442      -25.1930870642       -5.7839561986  MEMB      71              0.0000000000
     47714      1331  PPPE      H11R          -35.4572145418      -24.5748863759       -5.9052129537  MEMB      71              0.0000000000
     47715      1331  PPPE      H11S          -33.5748776956      -24.6964226481       -6.0122940762  MEMB      71              0.0000000000
     47716      1331  PPPE      C212          -34.5220929949      -25.3382959199       -4.2124552544  MEMB      71              0.0000000000
     47717      1331  PPPE      H12R          -35.4127073818      -25.8870706789       -3.8383252266  MEMB      71              0.0000000000
     47718      1331  PPPE      H12S          -34.5030665033      -24.3391997558       -3.7268979997  MEMB      71              0.0000000000
     47719      1331  PPPE      C213          -33.2969624082      -26.2091052110       -3.8156003737  MEMB      71              0.0000000000
     47720      1331  PPPE      H13R          -32.3572213458      -25.9041091339       -4.3237195809  MEMB      71              0.0000000000
     47721      1331  PPPE      H13S          -33.4859702969      -27.2406814931       -4.1822710605  MEMB      71              0.0000000000
     47722      1331  PPPE      C214          -33.1682201636      -26.2513383691       -2.3013206187  MEMB      71              0.0000000000
     47723      1331  PPPE      H14R          -34.0142677928      -26.8769311593       -1.9447283167  MEMB      71              0.0000000000
     47724      1331  PPPE      H14S          -33.2340182872      -25.2085142815       -1.9238162751  MEMB      71              0.0000000000
     47725      1331  PPPE      C215          -31.8367588943      -26.5429393927       -1.7105482007  MEMB      71              0.0000000000
     47726      1331  PPPE      H15R          -31.1038289837      -25.8058293502       -2.1027261339  MEMB      71              0.0000000000
     47727      1331  PPPE      H15S          -31.4600511552      -27.5488380280       -1.9944147452  MEMB      71              0.0000000000
     47728      1331  PPPE      C216          -31.6152283512      -26.4450277277       -0.1938741267  MEMB      71              0.0000000000
     47729      1331  PPPE      H16R          -30.5978102357      -26.8266366028        0.0375476626  MEMB      71              0.0000000000
     47730      1331  PPPE      H16S          -31.6877108327      -25.4133938603        0.2120801238  MEMB      71              0.0000000000
     47731      1331  PPPE      H16T          -32.3493234441      -27.1113144655        0.3076110451  MEMB      71              0.0000000000
     47732      1331  PPPE      C33           -29.4405628918      -24.6408038101      -10.2965128853  MEMB      71              0.0000000000
     47733      1331  PPPE      H3X           -29.3768846256      -25.7473581368      -10.3726942527  MEMB      71              0.0000000000
     47734      1331  PPPE      H3Y           -30.5387200253      -24.4880779586      -10.2254725849  MEMB      71              0.0000000000
     47735      1331  PPPE      C34           -28.6623609566      -24.3931451405       -9.0663897238  MEMB      71              0.0000000000
     47736      1331  PPPE      H4X           -27.5883842833      -24.1745546048       -9.2483602785  MEMB      71              0.0000000000
     47737      1331  PPPE      H4Y           -28.7353720984      -25.3420306944       -8.4931475597  MEMB      71              0.0000000000
     47738      1331  PPPE      C35           -29.3381954989      -23.2539869973       -8.2710059980  MEMB      71              0.0000000000
     47739      1331  PPPE      H5X           -30.4045064115      -23.5204501318       -8.1088349904  MEMB      71              0.0000000000
     47740      1331  PPPE      H5Y           -29.2393006787      -22.3349658164       -8.8873994468  MEMB      71              0.0000000000
     47741      1331  PPPE      C36           -28.6489818510      -22.8914365500       -6.9199639832  MEMB      71              0.0000000000
     47742      1331  PPPE      H6X           -29.1709299826      -22.0164698268       -6.4768789110  MEMB      71              0.0000000000
     47743      1331  PPPE      H6Y           -27.5542055091      -22.7714164646       -7.0661862128  MEMB      71              0.0000000000
     47744      1331  PPPE      C37           -28.6559362239      -24.0706989331       -5.9919821185  MEMB      71              0.0000000000
     47745      1331  PPPE      H7X           -28.2084383400      -25.0086612117       -6.3847841143  MEMB      71              0.0000000000
     47746      1331  PPPE      H7Y           -29.7420056452      -24.2579299526       -5.8515586245  MEMB      71              0.0000000000
     47747      1331  PPPE      C38           -27.8893021228      -23.7829322749       -4.6874291144  MEMB      71              0.0000000000
     47748      1331  PPPE      H8X           -26.8180945071      -23.6131356361       -4.9282700277  MEMB      71              0.0000000000
     47749      1331  PPPE      H8Y           -27.9196188037      -24.7221243312       -4.0947064302  MEMB      71              0.0000000000
     47750      1331  PPPE      C39           -28.3719488002      -22.4974844858       -3.8867040949  MEMB      71              0.0000000000
     47751      1331  PPPE      H9X           -28.6300375593      -21.5189589233       -4.3451786482  MEMB      71              0.0000000000
     47752      1331  PPPE      H9Y           -27.7739267137      -22.5405332251       -2.9513766710  MEMB      71              0.0000000000
     47753      1331  PPPE      C310          -29.8158597617      -22.8442333660       -3.4374344270  MEMB      71              0.0000000000
     47754      1331  PPPE      H10X          -29.8258283919      -23.7690213746       -2.8218137926  MEMB      71              0.0000000000
     47755      1331  PPPE      H10Y          -30.6236652073      -22.8083540564       -4.1993294573  MEMB      71              0.0000000000
     47756      1331  PPPE      C311          -30.1660344424      -21.6958954683       -2.4042998648  MEMB      71              0.0000000000
     47757      1331  PPPE      H11X          -29.5532079086      -20.7931271846       -2.6135223911  MEMB      71              0.0000000000
     47758      1331  PPPE      H11Y          -29.8398180792      -22.0522626525       -1.4038468102  MEMB      71              0.0000000000
     47759      1331  PPPE      C312          -31.6228660278      -21.2040250331       -2.3254953105  MEMB      71              0.0000000000
     47760      1331  PPPE      H12X          -32.0673412580      -20.8305909293       -3.2727596558  MEMB      71              0.0000000000
     47761      1331  PPPE      H12Y          -31.7109953020      -20.3646721352       -1.6029713013  MEMB      71              0.0000000000
     47762      1331  PPPE      C313          -32.5435415832      -22.3586990796       -1.8904379415  MEMB      71              0.0000000000
     47763      1331  PPPE      H13X          -32.3028234340      -22.5123521789       -0.8167683007  MEMB      71              0.0000000000
     47764      1331  PPPE      H13Y          -32.2633735711      -23.2301044492       -2.5201041761  MEMB      71              0.0000000000
     47765      1331  PPPE      C314          -34.0404402997      -21.9743294399       -2.1072824203  MEMB      71              0.0000000000
     47766      1331  PPPE      H14X          -34.3590703123      -22.3125104166       -3.1164551220  MEMB      71              0.0000000000
     47767      1331  PPPE      H14Y          -34.1875268350      -20.8750322740       -2.0422263508  MEMB      71              0.0000000000
     47768      1331  PPPE      C315          -35.0810587458      -22.6586488232       -1.2505892424  MEMB      71              0.0000000000
     47769      1331  PPPE      H15X          -35.0977261007      -23.7421356054       -1.4957414239  MEMB      71              0.0000000000
     47770      1331  PPPE      H15Y          -36.0568804560      -22.1545617818       -1.4178891070  MEMB      71              0.0000000000
     47771      1331  PPPE      C316          -34.7035687315      -22.6607237089        0.2670799058  MEMB      71              0.0000000000
     47772      1331  PPPE      H16X          -35.6775590041      -22.5117355820        0.7803697720  MEMB      71              0.0000000000
     47773      1331  PPPE      H16Y          -34.1883133093      -23.5754628484        0.6305151219  MEMB      71              0.0000000000
     47774      1331  PPPE      H16Z          -33.9229173044      -21.8843227617        0.4157604989  MEMB      71              0.0000000000
     47775      1332  PVPG      C13            32.1506489324       27.4722817466      -21.3340469770  MEMB      72              0.0000000000
     47776      1332  PVPG      H13A           33.1307004288       27.1274943575      -21.7276735039  MEMB      72              0.0000000000
     47777      1332  PVPG      H13B           31.5413363931       26.5453002520      -21.3954024039  MEMB      72              0.0000000000
     47778      1332  PVPG      OC3            31.5774156228       28.4827814565      -22.1177188833  MEMB      72              0.0000000000
     47779      1332  PVPG      HO3            31.1330225326       27.9962313239      -22.8158475597  MEMB      72              0.0000000000
     47780      1332  PVPG      C12            32.1392024384       27.9492840767      -19.8409056300  MEMB      72              0.0000000000
     47781      1332  PVPG      H12A           31.1421318806       27.6866945747      -19.4170234573  MEMB      72              0.0000000000
     47782      1332  PVPG      OC2            32.2854293630       29.3686267977      -19.7766808920  MEMB      72              0.0000000000
     47783      1332  PVPG      HO2            32.4010689941       29.5355705930      -18.8157053018  MEMB      72              0.0000000000
     47784      1332  PVPG      C11            33.2263612621       27.2575335068      -18.9622200701  MEMB      72              0.0000000000
     47785      1332  PVPG      H11A           33.3605764874       27.7151506466      -17.9587790234  MEMB      72              0.0000000000
     47786      1332  PVPG      H11B           34.1728487806       27.4104747266      -19.5235499926  MEMB      72              0.0000000000
     47787      1332  PVPG      P              33.4205706009       24.9826371218      -17.6208818852  MEMB      72              0.0000000000
     47788      1332  PVPG      O13            34.8687513681       24.9907868696      -17.4866788297  MEMB      72              0.0000000000
     47789      1332  PVPG      O14            32.7585686710       23.6452295685      -17.6983171940  MEMB      72              0.0000000000
     47790      1332  PVPG      O12            32.9670111188       25.8711904214      -18.8024930168  MEMB      72              0.0000000000
     47791      1332  PVPG      O11            32.7922068252       25.7148789560      -16.3600566242  MEMB      72              0.0000000000
     47792      1332  PVPG      C1             31.4618786300       25.6687883810      -15.9071913000  MEMB      72              0.0000000000
     47793      1332  PVPG      HA             31.4002563003       25.0448257814      -14.9900248984  MEMB      72              0.0000000000
     47794      1332  PVPG      HB             30.8138189337       25.2655195759      -16.7144792162  MEMB      72              0.0000000000
     47795      1332  PVPG      C2             31.0836542798       27.0975831721      -15.4473584318  MEMB      72              0.0000000000
     47796      1332  PVPG      HS             31.4670137799       27.8303859367      -16.1892187552  MEMB      72              0.0000000000
     47797      1332  PVPG      O21            31.6827234683       27.3081294113      -14.1228667439  MEMB      72              0.0000000000
     47798      1332  PVPG      C21            32.4708067481       28.3752374416      -13.9685656755  MEMB      72              0.0000000000
     47799      1332  PVPG      O22            32.5779595035       29.2188661134      -14.8869594461  MEMB      72              0.0000000000
     47800      1332  PVPG      C22            33.2970373515       28.4356692273      -12.7198733406  MEMB      72              0.0000000000
     47801      1332  PVPG      H2R            33.3626278134       29.4383117792      -12.2458201079  MEMB      72              0.0000000000
     47802      1332  PVPG      H2S            34.3429581383       28.1465336038      -12.9581409124  MEMB      72              0.0000000000
     47803      1332  PVPG      C3             29.5350397533       27.2378994839      -15.2917037227  MEMB      72              0.0000000000
     47804      1332  PVPG      HX             29.2513587875       28.2992714942      -15.1263692322  MEMB      72              0.0000000000
     47805      1332  PVPG      HY             29.1666039686       27.0244780692      -16.3178747916  MEMB      72              0.0000000000
     47806      1332  PVPG      O31            28.9300779342       26.3177090703      -14.3138632569  MEMB      72              0.0000000000
     47807      1332  PVPG      C31            28.7091466570       26.7197416618      -13.0875086472  MEMB      72              0.0000000000
     47808      1332  PVPG      O32            28.8798941659       27.8734260745      -12.7014687955  MEMB      72              0.0000000000
     47809      1332  PVPG      C32            27.9871033271       25.5981945584      -12.3214210557  MEMB      72              0.0000000000
     47810      1332  PVPG      H2X            28.1654098595       24.6344211479      -12.8445547763  MEMB      72              0.0000000000
     47811      1332  PVPG      H2Y            26.9258768523       25.9156368926      -12.4071507515  MEMB      72              0.0000000000
     47812      1332  PVPG      C23            32.7575016704       27.5238331333      -11.5714760725  MEMB      72              0.0000000000
     47813      1332  PVPG      H3R            32.5268124890       26.4825592791      -11.8826873062  MEMB      72              0.0000000000
     47814      1332  PVPG      H3S            31.8204127381       27.9295967375      -11.1338217118  MEMB      72              0.0000000000
     47815      1332  PVPG      C24            33.7394965992       27.3757406560      -10.4000419260  MEMB      72              0.0000000000
     47816      1332  PVPG      H4R            34.5799230514       26.6905030232      -10.6418141360  MEMB      72              0.0000000000
     47817      1332  PVPG      H4S            33.1785359920       26.8667025418       -9.5873155068  MEMB      72              0.0000000000
     47818      1332  PVPG      C25            34.3591251252       28.6763058265       -9.9243650879  MEMB      72              0.0000000000
     47819      1332  PVPG      H5R            33.5519066192       29.3808599958       -9.6305580797  MEMB      72              0.0000000000
     47820      1332  PVPG      H5S            34.9421944066       29.1778981922      -10.7260863117  MEMB      72              0.0000000000
     47821      1332  PVPG      C26            35.4516073965       28.5212586288       -8.7872494506  MEMB      72              0.0000000000
     47822      1332  PVPG      H6R            35.9474993179       29.4770169515       -8.5135015259  MEMB      72              0.0000000000
     47823      1332  PVPG      H6S            36.1496824270       27.8285682786       -9.3041559150  MEMB      72              0.0000000000
     47824      1332  PVPG      C27            35.0003053449       27.8152017194       -7.4720381781  MEMB      72              0.0000000000
     47825      1332  PVPG      H7R            34.3160030808       26.9430270752       -7.5452674246  MEMB      72              0.0000000000
     47826      1332  PVPG      H7S            34.4378773956       28.5197173241       -6.8226892875  MEMB      72              0.0000000000
     47827      1332  PVPG      C28            36.1246311558       27.1683615383       -6.6823681247  MEMB      72              0.0000000000
     47828      1332  PVPG      H8R            36.9235995779       27.9402352998       -6.6689030834  MEMB      72              0.0000000000
     47829      1332  PVPG      H8S            36.5246845170       26.2954252802       -7.2411712918  MEMB      72              0.0000000000
     47830      1332  PVPG      C29            35.6820274875       26.5751156064       -5.3718385171  MEMB      72              0.0000000000
     47831      1332  PVPG      H9R            34.9486760833       25.8285082753       -5.7447919443  MEMB      72              0.0000000000
     47832      1332  PVPG      H9S            35.1428799732       27.1729940166       -4.6062127953  MEMB      72              0.0000000000
     47833      1332  PVPG      C210           36.7876260354       25.6782522327       -4.5773480454  MEMB      72              0.0000000000
     47834      1332  PVPG      H10R           37.3531626357       25.0109331866       -5.2623107210  MEMB      72              0.0000000000
     47835      1332  PVPG      H10S           36.1756327315       25.1654053104       -3.8048374523  MEMB      72              0.0000000000
     47836      1332  PVPG      C211           37.7654350095       26.8159128950       -4.1067371877  MEMB      72              0.0000000000
     47837      1332  PVPG      H111           38.2659291692       27.3594430838       -4.9216480575  MEMB      72              0.0000000000
     47838      1332  PVPG      C212           38.0682706786       27.1486030852       -2.8147279496  MEMB      72              0.0000000000
     47839      1332  PVPG      H121           38.6088481723       28.0881984969       -2.6278138881  MEMB      72              0.0000000000
     47840      1332  PVPG      C213           37.5256340103       26.5642305844       -1.5679566065  MEMB      72              0.0000000000
     47841      1332  PVPG      H13R           38.3711184960       26.6600903972       -0.8536118450  MEMB      72              0.0000000000
     47842      1332  PVPG      H13S           37.2822932994       25.4982536543       -1.7649323757  MEMB      72              0.0000000000
     47843      1332  PVPG      C214           36.2852823207       27.3570777290       -1.1284952117  MEMB      72              0.0000000000
     47844      1332  PVPG      H14R           35.5675639252       26.7673422987       -0.5190587435  MEMB      72              0.0000000000
     47845      1332  PVPG      H14S           35.6388112889       27.7491174973       -1.9425611180  MEMB      72              0.0000000000
     47846      1332  PVPG      C215           36.6347418734       28.6834431464       -0.4771972308  MEMB      72              0.0000000000
     47847      1332  PVPG      H15R           37.0377524655       29.2795116681       -1.3237229157  MEMB      72              0.0000000000
     47848      1332  PVPG      H15S           37.2879934942       28.3427990815        0.3543953837  MEMB      72              0.0000000000
     47849      1332  PVPG      C216           35.4265071047       29.4073045668        0.2862336637  MEMB      72              0.0000000000
     47850      1332  PVPG      H16R           35.6470348026       30.3166247997        0.8852538245  MEMB      72              0.0000000000
     47851      1332  PVPG      H16S           34.9528392279       28.5804715850        0.8574662764  MEMB      72              0.0000000000
     47852      1332  PVPG      C217           34.4096745185       30.0363651706       -0.7269288726  MEMB      72              0.0000000000
     47853      1332  PVPG      H17R           33.9652917359       29.2953421897       -1.4253047423  MEMB      72              0.0000000000
     47854      1332  PVPG      H17S           35.1106074845       30.6642843295       -1.3174636463  MEMB      72              0.0000000000
     47855      1332  PVPG      C218           33.3312959551       31.0019405133       -0.1913626709  MEMB      72              0.0000000000
     47856      1332  PVPG      H18R           32.7241090194       31.5319731485       -0.9560260712  MEMB      72              0.0000000000
     47857      1332  PVPG      H18S           32.6335022065       30.4912742366        0.5062230312  MEMB      72              0.0000000000
     47858      1332  PVPG      H18T           33.8494715101       31.8603467366        0.2871296045  MEMB      72              0.0000000000
     47859      1332  PVPG      C33            28.4924562456       25.7005935408      -10.9261256076  MEMB      72              0.0000000000
     47860      1332  PVPG      H3X            27.7570455466       25.0865800862      -10.3635606162  MEMB      72              0.0000000000
     47861      1332  PVPG      H3Y            28.4201865830       26.7487388408      -10.5648927204  MEMB      72              0.0000000000
     47862      1332  PVPG      C34            29.8787052895       25.2694029014      -10.7501404129  MEMB      72              0.0000000000
     47863      1332  PVPG      H4X            30.4106791476       26.0797333792      -11.2929932453  MEMB      72              0.0000000000
     47864      1332  PVPG      H4Y            29.9887083303       24.3335525863      -11.3387022082  MEMB      72              0.0000000000
     47865      1332  PVPG      C35            30.4572553229       25.0916285043       -9.3001244887  MEMB      72              0.0000000000
     47866      1332  PVPG      H5X            31.5241328047       24.8028548234       -9.4128327653  MEMB      72              0.0000000000
     47867      1332  PVPG      H5Y            29.8488988967       24.3358758806       -8.7587725814  MEMB      72              0.0000000000
     47868      1332  PVPG      C36            30.4647479720       26.4244154523       -8.5474834060  MEMB      72              0.0000000000
     47869      1332  PVPG      H6X            29.4320470069       26.7846109180       -8.3522686260  MEMB      72              0.0000000000
     47870      1332  PVPG      H6Y            30.8930279782       27.1752718964       -9.2454172316  MEMB      72              0.0000000000
     47871      1332  PVPG      C37            31.3037029808       26.3907574978       -7.3129896037  MEMB      72              0.0000000000
     47872      1332  PVPG      H7X            32.3143724582       26.1558462889       -7.7100856971  MEMB      72              0.0000000000
     47873      1332  PVPG      H7Y            30.9841935504       25.5123522492       -6.7124579114  MEMB      72              0.0000000000
     47874      1332  PVPG      C38            31.2826439679       27.6270453846       -6.3957179492  MEMB      72              0.0000000000
     47875      1332  PVPG      H8X            30.2321464888       27.7836832322       -6.0697729900  MEMB      72              0.0000000000
     47876      1332  PVPG      H8Y            31.7381234263       28.4536130421       -6.9819311203  MEMB      72              0.0000000000
     47877      1332  PVPG      C39            32.1968972992       27.5169357595       -5.1910788320  MEMB      72              0.0000000000
     47878      1332  PVPG      H9X            32.5535129553       28.5313624903       -4.9116419055  MEMB      72              0.0000000000
     47879      1332  PVPG      H9Y            33.0876594052       26.9083871370       -5.4566583712  MEMB      72              0.0000000000
     47880      1332  PVPG      C310           31.5416028086       26.9932530223       -3.8653609550  MEMB      72              0.0000000000
     47881      1332  PVPG      H10X           30.7477175607       26.2559153511       -4.1111256709  MEMB      72              0.0000000000
     47882      1332  PVPG      H10Y           30.9868592716       27.8398436172       -3.4072504179  MEMB      72              0.0000000000
     47883      1332  PVPG      C311           32.5022271103       26.3692786484       -2.7918063018  MEMB      72              0.0000000000
     47884      1332  PVPG      H11X           33.2639770186       27.0973331596       -2.4396776715  MEMB      72              0.0000000000
     47885      1332  PVPG      H11Y           32.9497723863       25.4844191793       -3.2928525816  MEMB      72              0.0000000000
     47886      1332  PVPG      C312           31.6210004097       25.8081119066       -1.6713506817  MEMB      72              0.0000000000
     47887      1332  PVPG      H12X           30.6613666342       25.4418653945       -2.0947738375  MEMB      72              0.0000000000
     47888      1332  PVPG      H12Y           31.3447745773       26.6315509539       -0.9785531166  MEMB      72              0.0000000000
     47889      1332  PVPG      C313           32.2779724074       24.5744046707       -1.0341871313  MEMB      72              0.0000000000
     47890      1332  PVPG      H13X           32.4925196797       23.7436469374       -1.7399720158  MEMB      72              0.0000000000
     47891      1332  PVPG      H13Y           31.5201398223       24.2026271220       -0.3118356094  MEMB      72              0.0000000000
     47892      1332  PVPG      C314           33.5962070611       24.7477087510       -0.2172353928  MEMB      72              0.0000000000
     47893      1332  PVPG      H14X           33.4948345525       25.5642825952        0.5292580399  MEMB      72              0.0000000000
     47894      1332  PVPG      H14Y           34.2877160187       25.0602265797       -1.0286960643  MEMB      72              0.0000000000
     47895      1332  PVPG      C315           34.2054717447       23.5809019206        0.5122244024  MEMB      72              0.0000000000
     47896      1332  PVPG      H15X           35.2608452891       23.7222828339        0.8292740386  MEMB      72              0.0000000000
     47897      1332  PVPG      H15Y           34.0880614429       22.7358367808       -0.1993929374  MEMB      72              0.0000000000
     47898      1332  PVPG      C316           33.4232506361       23.2050862296        1.7546296051  MEMB      72              0.0000000000
     47899      1332  PVPG      H16X           33.8199169477       23.9151180638        2.5114859747  MEMB      72              0.0000000000
     47900      1332  PVPG      H16Y           32.3719633671       23.3590408771        1.4299548171  MEMB      72              0.0000000000
     47901      1332  PVPG      H16Z           33.5355414891       22.1581792973        2.1091678772  MEMB      72              0.0000000000
     47902      1333  PVPG      C13            -9.5514907351      -37.1790181406      -18.2742208040  MEMB      73              0.0000000000
     47903      1333  PVPG      H13A           -8.8014945910      -36.8538381056      -19.0266068632  MEMB      73              0.0000000000
     47904      1333  PVPG      H13B           -9.1084487685      -37.2143355384      -17.2559932455  MEMB      73              0.0000000000
     47905      1333  PVPG      OC3           -10.0708149473      -38.4594378244      -18.4647222894  MEMB      73              0.0000000000
     47906      1333  PVPG      HO3           -10.8375723818      -38.3970143620      -17.8904518560  MEMB      73              0.0000000000
     47907      1333  PVPG      C12           -10.6902968610      -36.1748863820      -18.3061855362  MEMB      73              0.0000000000
     47908      1333  PVPG      H12A          -10.2471174876      -35.1660713898      -18.1368828654  MEMB      73              0.0000000000
     47909      1333  PVPG      OC2           -11.6076018446      -36.4372730891      -17.2432905870  MEMB      73              0.0000000000
     47910      1333  PVPG      HO2           -12.3540491161      -35.8301868156      -17.4407230240  MEMB      73              0.0000000000
     47911      1333  PVPG      C11           -11.5621928585      -35.9780592741      -19.5489721009  MEMB      73              0.0000000000
     47912      1333  PVPG      H11A          -10.8128585805      -35.6606595931      -20.3053295011  MEMB      73              0.0000000000
     47913      1333  PVPG      H11B          -12.1337034143      -35.0259256029      -19.5152342182  MEMB      73              0.0000000000
     47914      1333  PVPG      P             -13.6075942686      -37.5081538256      -19.6383513968  MEMB      73              0.0000000000
     47915      1333  PVPG      O13           -14.0782251685      -38.3954188122      -20.7116030521  MEMB      73              0.0000000000
     47916      1333  PVPG      O14           -14.4337498358      -36.2612075720      -19.4904502468  MEMB      73              0.0000000000
     47917      1333  PVPG      O12           -12.1583125872      -37.1471815616      -20.0070912161  MEMB      73              0.0000000000
     47918      1333  PVPG      O11           -13.4790719331      -38.3304745354      -18.3151127679  MEMB      73              0.0000000000
     47919      1333  PVPG      C1            -14.5199884592      -39.1962406222      -17.9105713033  MEMB      73              0.0000000000
     47920      1333  PVPG      HA            -14.0234238141      -40.1897429301      -17.9369793379  MEMB      73              0.0000000000
     47921      1333  PVPG      HB            -15.4275641739      -39.2182334067      -18.5509959963  MEMB      73              0.0000000000
     47922      1333  PVPG      C2            -15.2134646395      -38.7000711004      -16.5722128221  MEMB      73              0.0000000000
     47923      1333  PVPG      HS            -15.5081234485      -37.6346033544      -16.6830083022  MEMB      73              0.0000000000
     47924      1333  PVPG      O21           -14.2931933922      -38.9055600440      -15.5033631787  MEMB      73              0.0000000000
     47925      1333  PVPG      C21           -13.7202376376      -37.8116348087      -15.0109980911  MEMB      73              0.0000000000
     47926      1333  PVPG      O22           -14.0841930880      -36.6658461238      -15.2481815078  MEMB      73              0.0000000000
     47927      1333  PVPG      C22           -12.6223271078      -38.2712693465      -14.0457535497  MEMB      73              0.0000000000
     47928      1333  PVPG      H2R           -12.4713325750      -37.4266750988      -13.3399332614  MEMB      73              0.0000000000
     47929      1333  PVPG      H2S           -11.6189446324      -38.4146021345      -14.5007266321  MEMB      73              0.0000000000
     47930      1333  PVPG      C3            -16.5142968468      -39.5952169262      -16.3822687477  MEMB      73              0.0000000000
     47931      1333  PVPG      HX            -17.2035422691      -39.5644949416      -17.2530833201  MEMB      73              0.0000000000
     47932      1333  PVPG      HY            -16.1030215851      -40.6258599170      -16.4365690938  MEMB      73              0.0000000000
     47933      1333  PVPG      O31           -17.0412897211      -39.2243160691      -15.1141957885  MEMB      73              0.0000000000
     47934      1333  PVPG      C31           -16.8860323636      -40.0165867353      -14.0615498903  MEMB      73              0.0000000000
     47935      1333  PVPG      O32           -16.4288918927      -41.1443993919      -14.0434136811  MEMB      73              0.0000000000
     47936      1333  PVPG      C32           -17.2987244655      -39.2601524075      -12.8003663957  MEMB      73              0.0000000000
     47937      1333  PVPG      H2X           -18.3973684488      -39.4246898127      -12.7852138624  MEMB      73              0.0000000000
     47938      1333  PVPG      H2Y           -17.2474176232      -38.1630898875      -12.9681239618  MEMB      73              0.0000000000
     47939      1333  PVPG      C23           -12.9855756370      -39.3617248573      -12.9955803111  MEMB      73              0.0000000000
     47940      1333  PVPG      H3R           -13.1898185542      -40.4116842229      -13.2958983004  MEMB      73              0.0000000000
     47941      1333  PVPG      H3S           -13.8785989091      -39.0143393884      -12.4333047015  MEMB      73              0.0000000000
     47942      1333  PVPG      C24           -11.8786112543      -39.3849520783      -11.8984341760  MEMB      73              0.0000000000
     47943      1333  PVPG      H4R           -11.6006714867      -38.3690385178      -11.5448949311  MEMB      73              0.0000000000
     47944      1333  PVPG      H4S           -10.9740057001      -39.7609152918      -12.4225159948  MEMB      73              0.0000000000
     47945      1333  PVPG      C25           -12.2051873343      -40.3102749825      -10.6917516469  MEMB      73              0.0000000000
     47946      1333  PVPG      H5R           -12.4992940198      -41.3317735053      -11.0148047004  MEMB      73              0.0000000000
     47947      1333  PVPG      H5S           -13.1139027636      -39.8152708467      -10.2873659824  MEMB      73              0.0000000000
     47948      1333  PVPG      C26           -11.0416258147      -40.4000774512       -9.6302479471  MEMB      73              0.0000000000
     47949      1333  PVPG      H6R           -10.9380401036      -39.3916313808       -9.1756850878  MEMB      73              0.0000000000
     47950      1333  PVPG      H6S           -10.0736719495      -40.4365532300      -10.1743578620  MEMB      73              0.0000000000
     47951      1333  PVPG      C27           -11.2963878683      -41.4088068234       -8.4267014456  MEMB      73              0.0000000000
     47952      1333  PVPG      H7R           -10.4106139892      -41.7237397531       -7.8346358280  MEMB      73              0.0000000000
     47953      1333  PVPG      H7S           -11.8203225471      -42.2515295964       -8.9263336352  MEMB      73              0.0000000000
     47954      1333  PVPG      C28           -12.3986273842      -40.8731287211       -7.4882069368  MEMB      73              0.0000000000
     47955      1333  PVPG      H8R           -13.3136579985      -40.9635393819       -8.1117979717  MEMB      73              0.0000000000
     47956      1333  PVPG      H8S           -12.2469217012      -39.8138699295       -7.1894135102  MEMB      73              0.0000000000
     47957      1333  PVPG      C29           -12.6570144937      -41.6800323179       -6.2141405030  MEMB      73              0.0000000000
     47958      1333  PVPG      H9R           -11.8821025733      -41.4428644602       -5.4541507169  MEMB      73              0.0000000000
     47959      1333  PVPG      H9S           -12.7867051446      -42.7239649945       -6.5715000222  MEMB      73              0.0000000000
     47960      1333  PVPG      C210          -14.0287863035      -41.3787935499       -5.5398505808  MEMB      73              0.0000000000
     47961      1333  PVPG      H10R          -14.3418280867      -42.2674220435       -4.9510680405  MEMB      73              0.0000000000
     47962      1333  PVPG      H10S          -14.6831927325      -41.3385903481       -6.4367662684  MEMB      73              0.0000000000
     47963      1333  PVPG      C211          -14.0776021129      -40.0029232825       -4.8567397944  MEMB      73              0.0000000000
     47964      1333  PVPG      H111          -13.4652993113      -39.1851204645       -5.2645192081  MEMB      73              0.0000000000
     47965      1333  PVPG      C212          -14.7320774964      -39.7194792707       -3.7281970931  MEMB      73              0.0000000000
     47966      1333  PVPG      H121          -14.5640187746      -38.7196157931       -3.3015484766  MEMB      73              0.0000000000
     47967      1333  PVPG      C213          -15.5264973661      -40.7356993419       -2.8981429973  MEMB      73              0.0000000000
     47968      1333  PVPG      H13R          -15.9319284462      -41.6138753111       -3.4447257382  MEMB      73              0.0000000000
     47969      1333  PVPG      H13S          -16.3560624155      -40.2031595665       -2.3857524252  MEMB      73              0.0000000000
     47970      1333  PVPG      C214          -14.6937897101      -41.2852392762       -1.7364919545  MEMB      73              0.0000000000
     47971      1333  PVPG      H14R          -14.5353670801      -40.5070597615       -0.9595362021  MEMB      73              0.0000000000
     47972      1333  PVPG      H14S          -13.7740172206      -41.7673408536       -2.1313553252  MEMB      73              0.0000000000
     47973      1333  PVPG      C215          -15.4300810766      -42.4901631646       -0.9842389498  MEMB      73              0.0000000000
     47974      1333  PVPG      H15R          -15.2232458997      -43.4021680289       -1.5840619213  MEMB      73              0.0000000000
     47975      1333  PVPG      H15S          -16.4892717065      -42.2184365072       -0.7877685989  MEMB      73              0.0000000000
     47976      1333  PVPG      C216          -14.6971009943      -42.8437865260        0.3028159284  MEMB      73              0.0000000000
     47977      1333  PVPG      H16R          -14.7925450471      -41.9855391182        1.0018311718  MEMB      73              0.0000000000
     47978      1333  PVPG      H16S          -13.6603816512      -43.0088554504       -0.0608960406  MEMB      73              0.0000000000
     47979      1333  PVPG      C217          -15.3498206258      -44.1481852710        0.8581060608  MEMB      73              0.0000000000
     47980      1333  PVPG      H17R          -15.9211371073      -44.6645614726        0.0573107714  MEMB      73              0.0000000000
     47981      1333  PVPG      H17S          -16.1635527635      -43.8679502066        1.5606934603  MEMB      73              0.0000000000
     47982      1333  PVPG      C218          -14.3648677083      -45.2110082205        1.4486854775  MEMB      73              0.0000000000
     47983      1333  PVPG      H18R          -13.6640044663      -44.8199995747        2.2169453778  MEMB      73              0.0000000000
     47984      1333  PVPG      H18S          -15.0539703735      -45.9581784339        1.8972314159  MEMB      73              0.0000000000
     47985      1333  PVPG      H18T          -13.7946337087      -45.7319213443        0.6500577959  MEMB      73              0.0000000000
     47986      1333  PVPG      C33           -16.6103929887      -39.7322617661      -11.4445630360  MEMB      73              0.0000000000
     47987      1333  PVPG      H3X           -15.5782828235      -39.3230611454      -11.4848669422  MEMB      73              0.0000000000
     47988      1333  PVPG      H3Y           -16.5619286795      -40.8380050203      -11.3481044798  MEMB      73              0.0000000000
     47989      1333  PVPG      C34           -17.3016600860      -39.0714446860      -10.2036810142  MEMB      73              0.0000000000
     47990      1333  PVPG      H4X           -18.3448752881      -39.4399100914      -10.3049508666  MEMB      73              0.0000000000
     47991      1333  PVPG      H4Y           -17.3587574041      -37.9696656636      -10.3346152822  MEMB      73              0.0000000000
     47992      1333  PVPG      C35           -16.8372620506      -39.4350653353       -8.8184959395  MEMB      73              0.0000000000
     47993      1333  PVPG      H5X           -16.7380141763      -40.5416232071       -8.8193210665  MEMB      73              0.0000000000
     47994      1333  PVPG      H5Y           -17.7184470784      -39.0740374702       -8.2462250266  MEMB      73              0.0000000000
     47995      1333  PVPG      C36           -15.4858214391      -38.7749084294       -8.4191445361  MEMB      73              0.0000000000
     47996      1333  PVPG      H6X           -14.7513849119      -38.9001211952       -9.2433088870  MEMB      73              0.0000000000
     47997      1333  PVPG      H6Y           -15.0211074139      -39.3612527578       -7.5978270982  MEMB      73              0.0000000000
     47998      1333  PVPG      C37           -15.6200134908      -37.3410179008       -7.8693913902  MEMB      73              0.0000000000
     47999      1333  PVPG      H7X           -16.0219267459      -37.3295168200       -6.8337014899  MEMB      73              0.0000000000
     48000      1333  PVPG      H7Y           -16.3704722175      -36.8450076410       -8.5213933958  MEMB      73              0.0000000000
     48001      1333  PVPG      C38           -14.3780442060      -36.4412665413       -7.7663026897  MEMB      73              0.0000000000
     48002      1333  PVPG      H8X           -14.7672454701      -35.4773881314       -7.3741527262  MEMB      73              0.0000000000
     48003      1333  PVPG      H8Y           -13.8886866869      -36.2360033471       -8.7423749191  MEMB      73              0.0000000000
     48004      1333  PVPG      C39           -13.4091636639      -37.0191784053       -6.7394801501  MEMB      73              0.0000000000
     48005      1333  PVPG      H9X           -13.1701294787      -38.0276647777       -7.1396538640  MEMB      73              0.0000000000
     48006      1333  PVPG      H9Y           -13.7404822107      -37.0334340145       -5.6791289473  MEMB      73              0.0000000000
     48007      1333  PVPG      C310          -12.0943165486      -36.2561148089       -6.7005830574  MEMB      73              0.0000000000
     48008      1333  PVPG      H10X          -12.1657703115      -35.2735997207       -6.1868907797  MEMB      73              0.0000000000
     48009      1333  PVPG      H10Y          -11.7303187188      -36.0837393403       -7.7360121789  MEMB      73              0.0000000000
     48010      1333  PVPG      C311          -10.8253868794      -36.8459899398       -6.0941730990  MEMB      73              0.0000000000
     48011      1333  PVPG      H11X           -9.9863876557      -36.1359303937       -6.2560892209  MEMB      73              0.0000000000
     48012      1333  PVPG      H11Y          -10.5585116456      -37.8389240181       -6.5151013519  MEMB      73              0.0000000000
     48013      1333  PVPG      C312          -11.0063888413      -36.9211324836       -4.5732796047  MEMB      73              0.0000000000
     48014      1333  PVPG      H12X          -11.7038600479      -37.7725672639       -4.4219070382  MEMB      73              0.0000000000
     48015      1333  PVPG      H12Y          -11.5572551458      -36.0195552348       -4.2297302710  MEMB      73              0.0000000000
     48016      1333  PVPG      C313           -9.7485977407      -37.0625246361       -3.7461493856  MEMB      73              0.0000000000
     48017      1333  PVPG      H13X           -9.1803290437      -36.1080007181       -3.7627488053  MEMB      73              0.0000000000
     48018      1333  PVPG      H13Y           -9.1695625236      -37.9120280963       -4.1673185060  MEMB      73              0.0000000000
     48019      1333  PVPG      C314           -9.9378958531      -37.3893545147       -2.2231782954  MEMB      73              0.0000000000
     48020      1333  PVPG      H14X          -10.1975883029      -36.4440751634       -1.7003705305  MEMB      73              0.0000000000
     48021      1333  PVPG      H14Y           -8.9953245999      -37.8078226421       -1.8099427094  MEMB      73              0.0000000000
     48022      1333  PVPG      C315          -11.0120102047      -38.3759278927       -1.8649016933  MEMB      73              0.0000000000
     48023      1333  PVPG      H15X          -10.9961064805      -39.3401558597       -2.4165652135  MEMB      73              0.0000000000
     48024      1333  PVPG      H15Y          -11.9954629673      -37.9234315598       -2.1146782121  MEMB      73              0.0000000000
     48025      1333  PVPG      C316          -11.2284488720      -38.4517213193       -0.3723392035  MEMB      73              0.0000000000
     48026      1333  PVPG      H16X          -11.6230748818      -39.4677714313       -0.1573215802  MEMB      73              0.0000000000
     48027      1333  PVPG      H16Y          -10.2876493717      -38.3646414283        0.2121549168  MEMB      73              0.0000000000
     48028      1333  PVPG      H16Z          -12.0454005608      -37.8630086276        0.0970516371  MEMB      73              0.0000000000
     48029      1334  PPPE      N              37.0684607709      -13.3441939268      -22.0500926286  MEMB      74              0.0000000000
     48030      1334  PPPE      HN1            36.6860180728      -14.2196372407      -21.6390736670  MEMB      74              0.0000000000
     48031      1334  PPPE      HN2            36.4845095447      -13.0380619399      -22.8543837277  MEMB      74              0.0000000000
     48032      1334  PPPE      HN3            38.0380610437      -13.4702883687      -22.4044589681  MEMB      74              0.0000000000
     48033      1334  PPPE      C12            37.0187413571      -12.2816248036      -21.0472002435  MEMB      74              0.0000000000
     48034      1334  PPPE      H12A           36.1493507162      -12.4058752500      -20.3667278046  MEMB      74              0.0000000000
     48035      1334  PPPE      H12B           36.8192841590      -11.2998216124      -21.5274088647  MEMB      74              0.0000000000
     48036      1334  PPPE      C11            38.3318998462      -12.1670547823      -20.1373124422  MEMB      74              0.0000000000
     48037      1334  PPPE      H11A           39.2194074738      -12.2121914166      -20.8041061848  MEMB      74              0.0000000000
     48038      1334  PPPE      H11B           38.2973773347      -13.1599928464      -19.6401171113  MEMB      74              0.0000000000
     48039      1334  PPPE      P              38.8124400938      -11.3187124869      -17.7132864795  MEMB      74              0.0000000000
     48040      1334  PPPE      O13            40.0844536126      -12.0032167819      -17.5984593215  MEMB      74              0.0000000000
     48041      1334  PPPE      O14            38.7128625425      -10.0663039485      -17.0159562146  MEMB      74              0.0000000000
     48042      1334  PPPE      O11            37.7096082624      -12.2977446259      -17.2155477687  MEMB      74              0.0000000000
     48043      1334  PPPE      O12            38.3211633118      -11.0407243767      -19.2221446917  MEMB      74              0.0000000000
     48044      1334  PPPE      C1             36.3369734432      -12.0017086761      -16.9472538603  MEMB      74              0.0000000000
     48045      1334  PPPE      HA             35.7280217004      -12.7722667783      -17.4666178810  MEMB      74              0.0000000000
     48046      1334  PPPE      HB             36.1443594044      -10.9784518866      -17.3347669247  MEMB      74              0.0000000000
     48047      1334  PPPE      C2             36.0901525589      -11.9929790082      -15.3981530061  MEMB      74              0.0000000000
     48048      1334  PPPE      HS             36.8126823417      -11.2405680995      -15.0158579137  MEMB      74              0.0000000000
     48049      1334  PPPE      O21            36.4354992097      -13.2507050217      -14.7638248292  MEMB      74              0.0000000000
     48050      1334  PPPE      C21            36.2682101103      -13.3337174032      -13.4157269382  MEMB      74              0.0000000000
     48051      1334  PPPE      O22            35.7163818797      -12.5309982105      -12.7201486208  MEMB      74              0.0000000000
     48052      1334  PPPE      C22            36.8870896097      -14.5572541584      -12.8961065255  MEMB      74              0.0000000000
     48053      1334  PPPE      H2R            36.4270758929      -15.4194876793      -13.4245587332  MEMB      74              0.0000000000
     48054      1334  PPPE      H2S            36.5111148388      -14.5759309785      -11.8508241962  MEMB      74              0.0000000000
     48055      1334  PPPE      C3             34.6178531127      -11.5650340337      -15.0956556606  MEMB      74              0.0000000000
     48056      1334  PPPE      HX             34.4155298858      -11.2689554265      -14.0441216525  MEMB      74              0.0000000000
     48057      1334  PPPE      HY             34.3588691250      -10.6482013057      -15.6672027216  MEMB      74              0.0000000000
     48058      1334  PPPE      O31            33.7141293696      -12.6092710498      -15.4638030900  MEMB      74              0.0000000000
     48059      1334  PPPE      C31            32.7345080460      -12.8583936813      -14.7494510332  MEMB      74              0.0000000000
     48060      1334  PPPE      O32            32.1498509651      -12.0356151441      -14.0079561571  MEMB      74              0.0000000000
     48061      1334  PPPE      C32            32.4464900852      -14.3227156262      -14.7825938495  MEMB      74              0.0000000000
     48062      1334  PPPE      H2X            33.1716082681      -14.8871119529      -15.4070787631  MEMB      74              0.0000000000
     48063      1334  PPPE      H2Y            31.4458612253      -14.3328457509      -15.2652534245  MEMB      74              0.0000000000
     48064      1334  PPPE      C23            38.4469815153      -14.5265285204      -12.9874073563  MEMB      74              0.0000000000
     48065      1334  PPPE      H3R            38.7908689398      -14.5451470784      -14.0436818417  MEMB      74              0.0000000000
     48066      1334  PPPE      H3S            38.9643547609      -15.4293318811      -12.5980591616  MEMB      74              0.0000000000
     48067      1334  PPPE      C24            39.1121497057      -13.3299947013      -12.2275408681  MEMB      74              0.0000000000
     48068      1334  PPPE      H4R            38.8024151028      -12.3778443432      -12.7089919779  MEMB      74              0.0000000000
     48069      1334  PPPE      H4S            40.1882048254      -13.5867927444      -12.3299183288  MEMB      74              0.0000000000
     48070      1334  PPPE      C25            38.8202827213      -13.1739503775      -10.6901021759  MEMB      74              0.0000000000
     48071      1334  PPPE      H5R            38.9922270799      -14.1853417518      -10.2636709089  MEMB      74              0.0000000000
     48072      1334  PPPE      H5S            37.7864454749      -12.8181408859      -10.4928684217  MEMB      74              0.0000000000
     48073      1334  PPPE      C26            39.7690540626      -12.2079572867       -9.8902450195  MEMB      74              0.0000000000
     48074      1334  PPPE      H6R            39.4982916216      -11.1306291678       -9.8709363547  MEMB      74              0.0000000000
     48075      1334  PPPE      H6S            40.7228733421      -12.2762634698      -10.4558279467  MEMB      74              0.0000000000
     48076      1334  PPPE      C27            39.8229487020      -12.6059194103       -8.4229890232  MEMB      74              0.0000000000
     48077      1334  PPPE      H7R            40.6028874900      -11.9949569996       -7.9202550779  MEMB      74              0.0000000000
     48078      1334  PPPE      H7S            40.0762568048      -13.6826064279       -8.3185808289  MEMB      74              0.0000000000
     48079      1334  PPPE      C28            38.5354777971      -12.4023137325       -7.6332092441  MEMB      74              0.0000000000
     48080      1334  PPPE      H8R            38.5558215152      -12.9125488047       -6.6465141016  MEMB      74              0.0000000000
     48081      1334  PPPE      H8S            37.8053916594      -12.9714694375       -8.2475031600  MEMB      74              0.0000000000
     48082      1334  PPPE      C29            37.9489424879      -10.9777050637       -7.5631795539  MEMB      74              0.0000000000
     48083      1334  PPPE      H91            37.5233023367      -10.5200204767       -8.4683620109  MEMB      74              0.0000000000
     48084      1334  PPPE      C210           37.8766864356      -10.2114636980       -6.4466857730  MEMB      74              0.0000000000
     48085      1334  PPPE      H101           37.4472459014       -9.2198733427       -6.6524268601  MEMB      74              0.0000000000
     48086      1334  PPPE      C211           38.2903583066      -10.6682652657       -5.1034631226  MEMB      74              0.0000000000
     48087      1334  PPPE      H11R           39.2658807300      -10.2163685091       -4.8233447139  MEMB      74              0.0000000000
     48088      1334  PPPE      H11S           38.4390425925      -11.7566927027       -4.9375122336  MEMB      74              0.0000000000
     48089      1334  PPPE      C212           37.4363005314      -10.0389181891       -3.9930590319  MEMB      74              0.0000000000
     48090      1334  PPPE      H12R           36.3713881567      -10.1755665919       -4.2787334059  MEMB      74              0.0000000000
     48091      1334  PPPE      H12S           37.5234632199       -8.9316426503       -4.0188378416  MEMB      74              0.0000000000
     48092      1334  PPPE      C213           37.7125710077      -10.5291422731       -2.5877542182  MEMB      74              0.0000000000
     48093      1334  PPPE      H13R           38.6678703103      -10.1108987948       -2.2046137280  MEMB      74              0.0000000000
     48094      1334  PPPE      H13S           37.6748562797      -11.6374592009       -2.6550757362  MEMB      74              0.0000000000
     48095      1334  PPPE      C214           36.6513603160       -9.9692399332       -1.6852671895  MEMB      74              0.0000000000
     48096      1334  PPPE      H14R           35.6891108215      -10.1870359606       -2.1961113936  MEMB      74              0.0000000000
     48097      1334  PPPE      H14S           36.6444642654       -8.8757363395       -1.4889935661  MEMB      74              0.0000000000
     48098      1334  PPPE      C215           36.8396990059      -10.5912498367       -0.2931573298  MEMB      74              0.0000000000
     48099      1334  PPPE      H15R           37.8882430219      -10.3382331606       -0.0269637757  MEMB      74              0.0000000000
     48100      1334  PPPE      H15S           36.6740128525      -11.6897551954       -0.3056102588  MEMB      74              0.0000000000
     48101      1334  PPPE      C216           35.9560104012      -10.0593859535        0.8792532101  MEMB      74              0.0000000000
     48102      1334  PPPE      H16R           36.1663896919      -10.7291042229        1.7403797941  MEMB      74              0.0000000000
     48103      1334  PPPE      H16S           36.1022046480       -8.9634086040        0.9877976316  MEMB      74              0.0000000000
     48104      1334  PPPE      H16T           34.8703442926      -10.2066910008        0.6949943600  MEMB      74              0.0000000000
     48105      1334  PPPE      C33            32.2092375927      -15.0352140530      -13.4791717782  MEMB      74              0.0000000000
     48106      1334  PPPE      H3X            31.9466654692      -16.0882106274      -13.7170269746  MEMB      74              0.0000000000
     48107      1334  PPPE      H3Y            31.3340151206      -14.5581937689      -12.9885005309  MEMB      74              0.0000000000
     48108      1334  PPPE      C34            33.3641288608      -15.1087741973      -12.5275979874  MEMB      74              0.0000000000
     48109      1334  PPPE      H4X            33.8774761824      -14.1235851702      -12.5135228797  MEMB      74              0.0000000000
     48110      1334  PPPE      H4Y            34.0610371372      -15.8752994634      -12.9289443098  MEMB      74              0.0000000000
     48111      1334  PPPE      C35            32.9949651458      -15.4151867619      -11.0750307705  MEMB      74              0.0000000000
     48112      1334  PPPE      H5X            33.8649587731      -16.0441869993      -10.7890398795  MEMB      74              0.0000000000
     48113      1334  PPPE      H5Y            32.0676020020      -15.9939859865      -10.8767631308  MEMB      74              0.0000000000
     48114      1334  PPPE      C36            33.0627094873      -14.2305135683      -10.1247204050  MEMB      74              0.0000000000
     48115      1334  PPPE      H6X            32.0162566066      -13.9096173203       -9.9342395229  MEMB      74              0.0000000000
     48116      1334  PPPE      H6Y            33.5883304497      -13.3110231388      -10.4602512586  MEMB      74              0.0000000000
     48117      1334  PPPE      C37            33.5877271738      -14.5370706637       -8.6423521937  MEMB      74              0.0000000000
     48118      1334  PPPE      H7X            33.1961313782      -15.5588018012       -8.4498964447  MEMB      74              0.0000000000
     48119      1334  PPPE      H7Y            33.0342281583      -13.9633200083       -7.8685498769  MEMB      74              0.0000000000
     48120      1334  PPPE      C38            35.1326443143      -14.3486419356       -8.3574658611  MEMB      74              0.0000000000
     48121      1334  PPPE      H8X            35.3453094703      -13.2688717885       -8.5097516474  MEMB      74              0.0000000000
     48122      1334  PPPE      H8Y            35.8254404328      -14.8590049198       -9.0602347865  MEMB      74              0.0000000000
     48123      1334  PPPE      C39            35.4839940011      -14.7906658905       -6.8875722494  MEMB      74              0.0000000000
     48124      1334  PPPE      H9X            36.5419955535      -14.4604620893       -6.8106361408  MEMB      74              0.0000000000
     48125      1334  PPPE      H9Y            35.4614950558      -15.8988243895       -6.8114175473  MEMB      74              0.0000000000
     48126      1334  PPPE      C310           34.6579384301      -14.1292522194       -5.7567422613  MEMB      74              0.0000000000
     48127      1334  PPPE      H10X           33.6168395733      -14.5165305554       -5.7355370558  MEMB      74              0.0000000000
     48128      1334  PPPE      H10Y           34.5893396770      -13.0216008558       -5.8089310331  MEMB      74              0.0000000000
     48129      1334  PPPE      C311           35.1511050666      -14.3637446770       -4.3060485392  MEMB      74              0.0000000000
     48130      1334  PPPE      H11X           36.1311854981      -13.8881184957       -4.0880047739  MEMB      74              0.0000000000
     48131      1334  PPPE      H11Y           35.2706999680      -15.4434828766       -4.0732750870  MEMB      74              0.0000000000
     48132      1334  PPPE      C312           34.1379789415      -13.8022713370       -3.2633738793  MEMB      74              0.0000000000
     48133      1334  PPPE      H12X           33.1473275992      -14.3004356520       -3.3323900607  MEMB      74              0.0000000000
     48134      1334  PPPE      H12Y           33.9333196402      -12.7408803373       -3.5200540622  MEMB      74              0.0000000000
     48135      1334  PPPE      C313           34.5158423917      -13.6793283358       -1.8380070764  MEMB      74              0.0000000000
     48136      1334  PPPE      H13X           33.8907491993      -12.9751583646       -1.2483256773  MEMB      74              0.0000000000
     48137      1334  PPPE      H13Y           35.5726216054      -13.3384049879       -1.8742005077  MEMB      74              0.0000000000
     48138      1334  PPPE      C314           34.5672682389      -15.0446214703       -1.0635746600  MEMB      74              0.0000000000
     48139      1334  PPPE      H14X           35.0927788696      -15.7936401380       -1.6937576593  MEMB      74              0.0000000000
     48140      1334  PPPE      H14Y           33.5190525357      -15.3878627934       -0.9303446574  MEMB      74              0.0000000000
     48141      1334  PPPE      C315           35.3507927517      -15.0074807438        0.2067403282  MEMB      74              0.0000000000
     48142      1334  PPPE      H15X           34.9772280777      -14.2081470250        0.8818966362  MEMB      74              0.0000000000
     48143      1334  PPPE      H15Y           36.3887509872      -14.7617943424       -0.1040681230  MEMB      74              0.0000000000
     48144      1334  PPPE      C316           35.4491099912      -16.3750830232        0.9603181548  MEMB      74              0.0000000000
     48145      1334  PPPE      H16X           34.6464553718      -17.1020524986        0.7121610597  MEMB      74              0.0000000000
     48146      1334  PPPE      H16Y           36.4311663241      -16.8529583319        0.7565497854  MEMB      74              0.0000000000
     48147      1334  PPPE      H16Z           35.5985887444      -16.2328116560        2.0519847525  MEMB      74              0.0000000000
     48148      1335  PPPE      N               2.3646755393       38.1172589988      -21.2760033722  MEMB      75              0.0000000000
     48149      1335  PPPE      HN1             1.7400174267       37.2908941289      -21.1836814134  MEMB      75              0.0000000000
     48150      1335  PPPE      HN2             2.0819862182       38.6322549366      -22.1341793051  MEMB      75              0.0000000000
     48151      1335  PPPE      HN3             3.4034913507       38.0719469786      -21.2557912230  MEMB      75              0.0000000000
     48152      1335  PPPE      C12             1.9734907248       38.9162421032      -20.1214716405  MEMB      75              0.0000000000
     48153      1335  PPPE      H12A            0.8852749362       38.7905938386      -19.9362153023  MEMB      75              0.0000000000
     48154      1335  PPPE      H12B            2.1895060548       39.9496558844      -20.4674692332  MEMB      75              0.0000000000
     48155      1335  PPPE      C11             2.7266395846       38.5830292898      -18.8538780872  MEMB      75              0.0000000000
     48156      1335  PPPE      H11A            2.7754744771       37.4732265219      -18.8373260628  MEMB      75              0.0000000000
     48157      1335  PPPE      H11B            2.2049412563       38.8798358737      -17.9189675536  MEMB      75              0.0000000000
     48158      1335  PPPE      P               4.6300484971       40.3313588327      -18.3452648416  MEMB      75              0.0000000000
     48159      1335  PPPE      O13             6.0689175205       40.3853823360      -18.2459661783  MEMB      75              0.0000000000
     48160      1335  PPPE      O14             4.1556724384       41.4131742991      -19.2490824551  MEMB      75              0.0000000000
     48161      1335  PPPE      O11             3.8962508291       40.5044675480      -16.9737576884  MEMB      75              0.0000000000
     48162      1335  PPPE      O12             4.0601572697       39.0095122141      -18.9345760553  MEMB      75              0.0000000000
     48163      1335  PPPE      C1              3.9783330901       41.7883992121      -16.4169489615  MEMB      75              0.0000000000
     48164      1335  PPPE      HA              3.1175719880       41.9669682603      -15.7375930753  MEMB      75              0.0000000000
     48165      1335  PPPE      HB              3.9610634173       42.5493311911      -17.2262729274  MEMB      75              0.0000000000
     48166      1335  PPPE      C2              5.3094293523       42.0487331372      -15.6370546647  MEMB      75              0.0000000000
     48167      1335  PPPE      HS              6.1560429031       42.0025819295      -16.3549937719  MEMB      75              0.0000000000
     48168      1335  PPPE      O21             5.4893729614       41.0305019366      -14.6686098998  MEMB      75              0.0000000000
     48169      1335  PPPE      C21             6.7971782436       40.7154080658      -14.3368903005  MEMB      75              0.0000000000
     48170      1335  PPPE      O22             7.7721263067       41.1890155290      -14.8734399831  MEMB      75              0.0000000000
     48171      1335  PPPE      C22             6.7515312625       39.4573973412      -13.4870301187  MEMB      75              0.0000000000
     48172      1335  PPPE      H2R             7.7796437276       39.0363208989      -13.4876538595  MEMB      75              0.0000000000
     48173      1335  PPPE      H2S             6.0965845548       38.6636566353      -13.9057681061  MEMB      75              0.0000000000
     48174      1335  PPPE      C3              5.3278643369       43.4512794338      -14.9869052242  MEMB      75              0.0000000000
     48175      1335  PPPE      HX              6.2809399366       43.8152758620      -14.5470478592  MEMB      75              0.0000000000
     48176      1335  PPPE      HY              5.1632647025       44.2623358561      -15.7281308581  MEMB      75              0.0000000000
     48177      1335  PPPE      O31             4.2090889716       43.5489761286      -14.0374279435  MEMB      75              0.0000000000
     48178      1335  PPPE      C31             4.4748710452       43.5199757451      -12.7511638155  MEMB      75              0.0000000000
     48179      1335  PPPE      O32             5.5125338786       43.3527384810      -12.1740881414  MEMB      75              0.0000000000
     48180      1335  PPPE      C32             3.1528063127       43.7990662364      -12.1059212951  MEMB      75              0.0000000000
     48181      1335  PPPE      H2X             2.4843052608       44.3609939742      -12.7926996881  MEMB      75              0.0000000000
     48182      1335  PPPE      H2Y             3.3405140221       44.4209576654      -11.2046234162  MEMB      75              0.0000000000
     48183      1335  PPPE      C23             6.0696068969       39.8812329751      -12.1725015343  MEMB      75              0.0000000000
     48184      1335  PPPE      H3R             5.0345139741       40.2656576637      -12.2954702289  MEMB      75              0.0000000000
     48185      1335  PPPE      H3S             6.6789623688       40.7128325258      -11.7584374134  MEMB      75              0.0000000000
     48186      1335  PPPE      C24             5.8684800841       38.7266450122      -11.1421358788  MEMB      75              0.0000000000
     48187      1335  PPPE      H4R             6.8837467982       38.4593347989      -10.7786805874  MEMB      75              0.0000000000
     48188      1335  PPPE      H4S             5.3462557900       37.8355697057      -11.5515105053  MEMB      75              0.0000000000
     48189      1335  PPPE      C25             5.1701594539       39.2779648065       -9.8812858866  MEMB      75              0.0000000000
     48190      1335  PPPE      H5R             4.2114833915       39.6529531304      -10.2991913357  MEMB      75              0.0000000000
     48191      1335  PPPE      H5S             5.7906535345       40.0730085892       -9.4152242175  MEMB      75              0.0000000000
     48192      1335  PPPE      C26             4.8191357560       38.1313937957       -8.8856276316  MEMB      75              0.0000000000
     48193      1335  PPPE      H6R             5.6966925335       37.4557328174       -8.7978931193  MEMB      75              0.0000000000
     48194      1335  PPPE      H6S             4.0124962591       37.5534084474       -9.3852141197  MEMB      75              0.0000000000
     48195      1335  PPPE      C27             4.3135323898       38.6037423402       -7.5031633760  MEMB      75              0.0000000000
     48196      1335  PPPE      H7R             3.7996854469       37.7618377648       -6.9918131973  MEMB      75              0.0000000000
     48197      1335  PPPE      H7S             3.4597678544       39.2851921380       -7.7057301330  MEMB      75              0.0000000000
     48198      1335  PPPE      C28             5.3596043341       39.0659162794       -6.4666272872  MEMB      75              0.0000000000
     48199      1335  PPPE      H8R             5.9974514996       39.7954472012       -7.0100025054  MEMB      75              0.0000000000
     48200      1335  PPPE      H8S             6.0859102736       38.3162168499       -6.0861651371  MEMB      75              0.0000000000
     48201      1335  PPPE      C29             4.7883081414       39.9531457221       -5.5094351859  MEMB      75              0.0000000000
     48202      1335  PPPE      H91             4.3037373187       40.8884577613       -5.8262671717  MEMB      75              0.0000000000
     48203      1335  PPPE      C210            4.6046336415       39.6919783213       -4.2032176548  MEMB      75              0.0000000000
     48204      1335  PPPE      H101            4.1306620500       40.4720303327       -3.5893204403  MEMB      75              0.0000000000
     48205      1335  PPPE      C211            4.9841741673       38.3955005777       -3.5560976740  MEMB      75              0.0000000000
     48206      1335  PPPE      H11R            5.4182199575       37.6851266986       -4.2918246640  MEMB      75              0.0000000000
     48207      1335  PPPE      H11S            4.0217760051       37.9288613490       -3.2555005885  MEMB      75              0.0000000000
     48208      1335  PPPE      C212            5.8309256873       38.5360490161       -2.2779092897  MEMB      75              0.0000000000
     48209      1335  PPPE      H12R            6.7915553569       39.0297919574       -2.5381582976  MEMB      75              0.0000000000
     48210      1335  PPPE      H12S            6.1773492330       37.5451983385       -1.9138671743  MEMB      75              0.0000000000
     48211      1335  PPPE      C213            5.0981428914       39.2280566097       -1.1344150101  MEMB      75              0.0000000000
     48212      1335  PPPE      H13R            4.7855520511       40.2796963565       -1.3095201476  MEMB      75              0.0000000000
     48213      1335  PPPE      H13S            5.8453454484       39.4543958407       -0.3439848162  MEMB      75              0.0000000000
     48214      1335  PPPE      C214            3.9634119106       38.5112302533       -0.3760497775  MEMB      75              0.0000000000
     48215      1335  PPPE      H14R            4.2551203906       37.4429979642       -0.4660883204  MEMB      75              0.0000000000
     48216      1335  PPPE      H14S            3.0678398013       38.6762811440       -1.0124692935  MEMB      75              0.0000000000
     48217      1335  PPPE      C215            3.8875940699       38.7923458555        1.1327229300  MEMB      75              0.0000000000
     48218      1335  PPPE      H15R            4.8714829685       38.8258023802        1.6476639910  MEMB      75              0.0000000000
     48219      1335  PPPE      H15S            3.2422081066       38.0277999916        1.6157007558  MEMB      75              0.0000000000
     48220      1335  PPPE      C216            3.3190766250       40.2335878980        1.3473422807  MEMB      75              0.0000000000
     48221      1335  PPPE      H16R            3.5098191697       40.4707684321        2.4158382685  MEMB      75              0.0000000000
     48222      1335  PPPE      H16S            3.8268840379       41.0348844223        0.7690892984  MEMB      75              0.0000000000
     48223      1335  PPPE      H16T            2.2266590244       40.2956049547        1.1547321288  MEMB      75              0.0000000000
     48224      1335  PPPE      C33             2.6271538151       42.3336996991      -11.7638068311  MEMB      75              0.0000000000
     48225      1335  PPPE      H3X             3.2897802941       41.8042862723      -11.0461937231  MEMB      75              0.0000000000
     48226      1335  PPPE      H3Y             2.6074549215       41.7505394403      -12.7092469752  MEMB      75              0.0000000000
     48227      1335  PPPE      C34             1.2069525912       42.2905762661      -11.1512005408  MEMB      75              0.0000000000
     48228      1335  PPPE      H4X             0.7411129217       41.3374556020      -11.4811632690  MEMB      75              0.0000000000
     48229      1335  PPPE      H4Y             0.5842718430       43.0685255261      -11.6425096439  MEMB      75              0.0000000000
     48230      1335  PPPE      C35             1.1443312390       42.7222701794       -9.6169273909  MEMB      75              0.0000000000
     48231      1335  PPPE      H5X             0.1091098986       42.4035023821       -9.3698952720  MEMB      75              0.0000000000
     48232      1335  PPPE      H5Y             1.2292638374       43.8075378737       -9.3948880127  MEMB      75              0.0000000000
     48233      1335  PPPE      C36             2.2226207666       42.0332228079       -8.8066787832  MEMB      75              0.0000000000
     48234      1335  PPPE      H6X             3.2096302509       42.3468681199       -9.2088726371  MEMB      75              0.0000000000
     48235      1335  PPPE      H6Y             2.3217731161       40.9562598963       -9.0609241344  MEMB      75              0.0000000000
     48236      1335  PPPE      C37             1.9612707983       42.3648735001       -7.3775823773  MEMB      75              0.0000000000
     48237      1335  PPPE      H7X             2.6925140668       41.6981668068       -6.8725017230  MEMB      75              0.0000000000
     48238      1335  PPPE      H7Y             0.9950364792       41.9727822155       -6.9942070196  MEMB      75              0.0000000000
     48239      1335  PPPE      C38             2.5308037301       43.7100589770       -6.9654989172  MEMB      75              0.0000000000
     48240      1335  PPPE      H8X             2.1130443844       44.4683798839       -7.6617370454  MEMB      75              0.0000000000
     48241      1335  PPPE      H8Y             3.6294423154       43.6623181190       -7.1237236604  MEMB      75              0.0000000000
     48242      1335  PPPE      C39             2.1743988378       44.1866118878       -5.5238860268  MEMB      75              0.0000000000
     48243      1335  PPPE      H9X             1.0918922843       44.0385458079       -5.3224486976  MEMB      75              0.0000000000
     48244      1335  PPPE      H9Y             2.4275125465       45.2676812116       -5.5631742880  MEMB      75              0.0000000000
     48245      1335  PPPE      C310            2.9595491252       43.4921606461       -4.3509693020  MEMB      75              0.0000000000
     48246      1335  PPPE      H10X            3.1114787390       42.4287011295       -4.6343281716  MEMB      75              0.0000000000
     48247      1335  PPPE      H10Y            2.4079087710       43.5757281393       -3.3902245942  MEMB      75              0.0000000000
     48248      1335  PPPE      C311            4.3191571274       44.1004368265       -4.0382891357  MEMB      75              0.0000000000
     48249      1335  PPPE      H11X            4.1491456652       45.1628749640       -3.7614456660  MEMB      75              0.0000000000
     48250      1335  PPPE      H11Y            4.9467695872       43.8165378983       -4.9099685487  MEMB      75              0.0000000000
     48251      1335  PPPE      C312            5.0181509154       43.5633177770       -2.7276036878  MEMB      75              0.0000000000
     48252      1335  PPPE      H12X            5.2427162559       42.4817595326       -2.8464446389  MEMB      75              0.0000000000
     48253      1335  PPPE      H12Y            4.2867233789       43.7130591786       -1.9048569033  MEMB      75              0.0000000000
     48254      1335  PPPE      C313            6.2633110956       44.2917129889       -2.3690963773  MEMB      75              0.0000000000
     48255      1335  PPPE      H13X            6.1165203729       45.3876482963       -2.4772596147  MEMB      75              0.0000000000
     48256      1335  PPPE      H13Y            7.0946351003       44.0503893251       -3.0655045110  MEMB      75              0.0000000000
     48257      1335  PPPE      C314            6.7553575671       44.0762539256       -0.9108812094  MEMB      75              0.0000000000
     48258      1335  PPPE      H14X            5.9872028550       44.4249401389       -0.1879169898  MEMB      75              0.0000000000
     48259      1335  PPPE      H14Y            7.6579514193       44.7106310031       -0.7796902737  MEMB      75              0.0000000000
     48260      1335  PPPE      C315            7.0921558819       42.6166293549       -0.5519962798  MEMB      75              0.0000000000
     48261      1335  PPPE      H15X            7.7301024719       42.4481134547       -1.4458349341  MEMB      75              0.0000000000
     48262      1335  PPPE      H15Y            6.1836719967       41.9793864847       -0.6058437922  MEMB      75              0.0000000000
     48263      1335  PPPE      C316            7.8002601426       42.4221388081        0.7933704638  MEMB      75              0.0000000000
     48264      1335  PPPE      H16X            8.8113919127       42.8821131829        0.7744728978  MEMB      75              0.0000000000
     48265      1335  PPPE      H16Y            7.0964413408       42.7129511156        1.6023131663  MEMB      75              0.0000000000
     48266      1335  PPPE      H16Z            7.9539316889       41.3364573715        0.9722611401  MEMB      75              0.0000000000
     48267      1336  PPPE      N             -13.6504878489       34.6048626327      -17.5100227532  MEMB      76              0.0000000000
     48268      1336  PPPE      HN1           -14.4104876566       33.9029670734      -17.6165258807  MEMB      76              0.0000000000
     48269      1336  PPPE      HN2           -13.1685885083       34.5853256808      -18.4314300101  MEMB      76              0.0000000000
     48270      1336  PPPE      HN3           -13.0450565758       34.3052020538      -16.7192911230  MEMB      76              0.0000000000
     48271      1336  PPPE      C12           -14.2902113156       35.9959133123      -17.3033174701  MEMB      76              0.0000000000
     48272      1336  PPPE      H12A          -13.8624178632       36.6015652999      -16.4759726617  MEMB      76              0.0000000000
     48273      1336  PPPE      H12B          -15.3670383819       35.8545367530      -17.0692723078  MEMB      76              0.0000000000
     48274      1336  PPPE      C11           -14.3523486604       36.8118039950      -18.5802299818  MEMB      76              0.0000000000
     48275      1336  PPPE      H11A          -13.3185315450       36.9501728955      -18.9628488774  MEMB      76              0.0000000000
     48276      1336  PPPE      H11B          -14.6293988993       37.8558896029      -18.3205197422  MEMB      76              0.0000000000
     48277      1336  PPPE      P             -16.6055110670       36.7699064644      -19.7785692424  MEMB      76              0.0000000000
     48278      1336  PPPE      O13           -16.4286281009       37.8796845008      -20.7126946452  MEMB      76              0.0000000000
     48279      1336  PPPE      O14           -17.5859911242       35.7315100530      -20.2675873611  MEMB      76              0.0000000000
     48280      1336  PPPE      O11           -17.0554315087       37.3139672466      -18.3241267985  MEMB      76              0.0000000000
     48281      1336  PPPE      O12           -15.1930498666       36.2102868142      -19.5234516517  MEMB      76              0.0000000000
     48282      1336  PPPE      C1            -18.3552625098       36.9242374697      -17.8420110989  MEMB      76              0.0000000000
     48283      1336  PPPE      HA            -18.1600799716       35.8550778268      -17.6115280521  MEMB      76              0.0000000000
     48284      1336  PPPE      HB            -19.0828176257       37.0627745301      -18.6701367150  MEMB      76              0.0000000000
     48285      1336  PPPE      C2            -18.6722757332       37.8251621315      -16.5463885281  MEMB      76              0.0000000000
     48286      1336  PPPE      HS            -19.1171920857       38.7396563042      -16.9936813263  MEMB      76              0.0000000000
     48287      1336  PPPE      O21           -17.4977203662       38.0907071959      -15.7100585770  MEMB      76              0.0000000000
     48288      1336  PPPE      C21           -17.3655609746       39.4006242317      -15.3544278930  MEMB      76              0.0000000000
     48289      1336  PPPE      O22           -18.2426079009       40.1952850452      -15.2773964889  MEMB      76              0.0000000000
     48290      1336  PPPE      C22           -15.8658297205       39.6836919614      -15.0892831316  MEMB      76              0.0000000000
     48291      1336  PPPE      H2R           -15.6560474336       40.6938028534      -14.6769866632  MEMB      76              0.0000000000
     48292      1336  PPPE      H2S           -15.3064917332       39.4833623026      -16.0280749316  MEMB      76              0.0000000000
     48293      1336  PPPE      C3            -19.7309008779       37.1657830392      -15.6556716621  MEMB      76              0.0000000000
     48294      1336  PPPE      HX            -20.1323468235       37.7423571707      -14.7950181758  MEMB      76              0.0000000000
     48295      1336  PPPE      HY            -20.5542543263       36.8286947363      -16.3210900080  MEMB      76              0.0000000000
     48296      1336  PPPE      O31           -19.3015026974       35.8858031639      -15.0534616075  MEMB      76              0.0000000000
     48297      1336  PPPE      C31           -18.8818241450       35.7557129901      -13.8057719036  MEMB      76              0.0000000000
     48298      1336  PPPE      O32           -19.0806448820       36.5200884451      -12.8875204567  MEMB      76              0.0000000000
     48299      1336  PPPE      C32           -18.0096750534       34.5650380533      -13.7242395313  MEMB      76              0.0000000000
     48300      1336  PPPE      H2X           -17.0978842796       34.6328219244      -14.3554003125  MEMB      76              0.0000000000
     48301      1336  PPPE      H2Y           -18.6002806811       33.6681987716      -14.0091698655  MEMB      76              0.0000000000
     48302      1336  PPPE      C23           -15.2983796612       38.6516796116      -14.0321292751  MEMB      76              0.0000000000
     48303      1336  PPPE      H3R           -15.4233977777       37.5850542912      -14.3167375965  MEMB      76              0.0000000000
     48304      1336  PPPE      H3S           -15.8136653820       38.8112404655      -13.0608713486  MEMB      76              0.0000000000
     48305      1336  PPPE      C24           -13.8176749462       38.8440734777      -13.6107038004  MEMB      76              0.0000000000
     48306      1336  PPPE      H4R           -13.6214730989       39.7413403148      -12.9856133603  MEMB      76              0.0000000000
     48307      1336  PPPE      H4S           -13.2104793921       39.0335202847      -14.5216069052  MEMB      76              0.0000000000
     48308      1336  PPPE      C25           -13.0871391166       37.7063593889      -12.8774030364  MEMB      76              0.0000000000
     48309      1336  PPPE      H5R           -11.9885397365       37.8604762338      -12.8170010491  MEMB      76              0.0000000000
     48310      1336  PPPE      H5S           -13.2987053708       36.8269907026      -13.5225940420  MEMB      76              0.0000000000
     48311      1336  PPPE      C26           -13.6189542356       37.4233449166      -11.4744887115  MEMB      76              0.0000000000
     48312      1336  PPPE      H6R           -13.0795013987       36.5171589906      -11.1250052293  MEMB      76              0.0000000000
     48313      1336  PPPE      H6S           -14.7098572774       37.2141736069      -11.4968251535  MEMB      76              0.0000000000
     48314      1336  PPPE      C27           -13.2799397006       38.5008941385      -10.5267741523  MEMB      76              0.0000000000
     48315      1336  PPPE      H7R           -13.8978068293       39.2977686672      -10.9931990624  MEMB      76              0.0000000000
     48316      1336  PPPE      H7S           -12.2344242772       38.8452616569      -10.6772052388  MEMB      76              0.0000000000
     48317      1336  PPPE      C28           -13.6268995766       38.1536126657       -9.0783355412  MEMB      76              0.0000000000
     48318      1336  PPPE      H8R           -12.9656811779       37.2824572174       -8.8828888366  MEMB      76              0.0000000000
     48319      1336  PPPE      H8S           -14.6611894315       37.7682442730       -9.2050505682  MEMB      76              0.0000000000
     48320      1336  PPPE      C29           -13.5909083496       39.2503803433       -7.9709616739  MEMB      76              0.0000000000
     48321      1336  PPPE      H91           -12.9268017165       40.1049240953       -8.1677289368  MEMB      76              0.0000000000
     48322      1336  PPPE      C210          -14.3840907535       39.3260498804       -6.8430704466  MEMB      76              0.0000000000
     48323      1336  PPPE      H101          -14.3286775925       40.2154917184       -6.1982273661  MEMB      76              0.0000000000
     48324      1336  PPPE      C211          -15.4632130144       38.3427518056       -6.5598387428  MEMB      76              0.0000000000
     48325      1336  PPPE      H11R          -15.1905035627       37.7747093218       -5.6448096221  MEMB      76              0.0000000000
     48326      1336  PPPE      H11S          -15.5381274293       37.6060249470       -7.3880551193  MEMB      76              0.0000000000
     48327      1336  PPPE      C212          -16.8323756146       39.0091939267       -6.3784621579  MEMB      76              0.0000000000
     48328      1336  PPPE      H12R          -17.6627510975       38.2718787128       -6.3443471682  MEMB      76              0.0000000000
     48329      1336  PPPE      H12S          -17.0875476913       39.5681946250       -7.3040573344  MEMB      76              0.0000000000
     48330      1336  PPPE      C213          -17.0176341320       39.8625128652       -5.1340976047  MEMB      76              0.0000000000
     48331      1336  PPPE      H13R          -18.1228943819       39.9544253133       -5.0687303196  MEMB      76              0.0000000000
     48332      1336  PPPE      H13S          -16.7642522576       40.9330809093       -5.2890256162  MEMB      76              0.0000000000
     48333      1336  PPPE      C214          -16.4969826725       39.3692529005       -3.7555108190  MEMB      76              0.0000000000
     48334      1336  PPPE      H14R          -15.3884852767       39.4341459235       -3.7188581397  MEMB      76              0.0000000000
     48335      1336  PPPE      H14S          -16.6874653540       38.2850192271       -3.6055952110  MEMB      76              0.0000000000
     48336      1336  PPPE      C215          -17.3427774208       40.1468007804       -2.6914557827  MEMB      76              0.0000000000
     48337      1336  PPPE      H15R          -18.3286587596       40.3833448612       -3.1457749256  MEMB      76              0.0000000000
     48338      1336  PPPE      H15S          -16.8186318077       41.1234327524       -2.6154139019  MEMB      76              0.0000000000
     48339      1336  PPPE      C216          -17.5125421671       39.3531964456       -1.4749972850  MEMB      76              0.0000000000
     48340      1336  PPPE      H16R          -18.1970191445       38.5429823942       -1.8057017730  MEMB      76              0.0000000000
     48341      1336  PPPE      H16S          -16.5594389898       39.0019332863       -1.0249644790  MEMB      76              0.0000000000
     48342      1336  PPPE      H16T          -17.8670400615       39.9602617441       -0.6146927074  MEMB      76              0.0000000000
     48343      1336  PPPE      C33           -17.5000605011       34.3947302157      -12.2486608731  MEMB      76              0.0000000000
     48344      1336  PPPE      H3X           -18.3866973628       34.3561429333      -11.5802993713  MEMB      76              0.0000000000
     48345      1336  PPPE      H3Y           -16.9453349424       35.2674341642      -11.8424732651  MEMB      76              0.0000000000
     48346      1336  PPPE      C34           -16.8581965769       33.0645506722      -12.0943069305  MEMB      76              0.0000000000
     48347      1336  PPPE      H4X           -15.9793794529       32.9668705904      -12.7669584482  MEMB      76              0.0000000000
     48348      1336  PPPE      H4Y           -17.4014843693       32.1726161492      -12.4732689092  MEMB      76              0.0000000000
     48349      1336  PPPE      C35           -16.2630588306       32.7278936602      -10.6917724381  MEMB      76              0.0000000000
     48350      1336  PPPE      H5X           -15.5540924816       31.8822647397      -10.8206112702  MEMB      76              0.0000000000
     48351      1336  PPPE      H5Y           -17.1284743427       32.5183255032      -10.0273492454  MEMB      76              0.0000000000
     48352      1336  PPPE      C36           -15.5389789084       33.9615655221      -10.0116360686  MEMB      76              0.0000000000
     48353      1336  PPPE      H6X           -16.2711076847       34.7647065481       -9.7808267377  MEMB      76              0.0000000000
     48354      1336  PPPE      H6Y           -14.8441686552       34.4271382996      -10.7429374436  MEMB      76              0.0000000000
     48355      1336  PPPE      C37           -14.8833396266       33.6414141402       -8.7036704247  MEMB      76              0.0000000000
     48356      1336  PPPE      H7X           -14.1428039962       32.8375118885       -8.9028415816  MEMB      76              0.0000000000
     48357      1336  PPPE      H7Y           -15.7409927607       33.2810638982       -8.0962992000  MEMB      76              0.0000000000
     48358      1336  PPPE      C38           -14.2975013011       34.9359498947       -8.0497766276  MEMB      76              0.0000000000
     48359      1336  PPPE      H8X           -15.0304409162       35.7227698938       -8.3291237409  MEMB      76              0.0000000000
     48360      1336  PPPE      H8Y           -13.3276633795       35.1856806660       -8.5307859290  MEMB      76              0.0000000000
     48361      1336  PPPE      C39           -14.3050313796       34.9406071795       -6.5437405295  MEMB      76              0.0000000000
     48362      1336  PPPE      H9X           -15.3744036850       34.9680351713       -6.2437212341  MEMB      76              0.0000000000
     48363      1336  PPPE      H9Y           -13.7585361569       35.8760949753       -6.2977190765  MEMB      76              0.0000000000
     48364      1336  PPPE      C310          -13.5896056635       33.7654165767       -5.7647152570  MEMB      76              0.0000000000
     48365      1336  PPPE      H10X          -12.6468421952       33.4103728866       -6.2331829942  MEMB      76              0.0000000000
     48366      1336  PPPE      H10Y          -14.3329166722       32.9678535768       -5.5509326442  MEMB      76              0.0000000000
     48367      1336  PPPE      C311          -13.2720365862       34.0932283104       -4.3160486451  MEMB      76              0.0000000000
     48368      1336  PPPE      H11X          -12.6683612580       35.0247014306       -4.2685626024  MEMB      76              0.0000000000
     48369      1336  PPPE      H11Y          -12.8396107257       33.2627717099       -3.7179928703  MEMB      76              0.0000000000
     48370      1336  PPPE      C312          -14.4795637156       34.4920707731       -3.5474388082  MEMB      76              0.0000000000
     48371      1336  PPPE      H12X          -15.2478688235       33.7216564049       -3.3227390923  MEMB      76              0.0000000000
     48372      1336  PPPE      H12Y          -14.9714876040       35.3321298751       -4.0828196009  MEMB      76              0.0000000000
     48373      1336  PPPE      C313          -14.1152380081       34.9215364846       -2.0216062392  MEMB      76              0.0000000000
     48374      1336  PPPE      H13X          -13.3107812712       35.6845654851       -2.0920129370  MEMB      76              0.0000000000
     48375      1336  PPPE      H13Y          -13.8509709155       34.0352280630       -1.4060241686  MEMB      76              0.0000000000
     48376      1336  PPPE      C314          -15.4041913869       35.5460658647       -1.4318248633  MEMB      76              0.0000000000
     48377      1336  PPPE      H14X          -16.3435954422       35.0240620789       -1.7135216304  MEMB      76              0.0000000000
     48378      1336  PPPE      H14Y          -15.6504059250       36.5985230976       -1.6887940715  MEMB      76              0.0000000000
     48379      1336  PPPE      C315          -15.5253873477       35.4844398196        0.1227176454  MEMB      76              0.0000000000
     48380      1336  PPPE      H15X          -16.2564110174       36.2688378796        0.4136559171  MEMB      76              0.0000000000
     48381      1336  PPPE      H15Y          -14.5506533053       35.7911339606        0.5587832948  MEMB      76              0.0000000000
     48382      1336  PPPE      C316          -15.8545528158       34.1018882706        0.7374320641  MEMB      76              0.0000000000
     48383      1336  PPPE      H16X          -16.8525338347       33.7538891710        0.3950119818  MEMB      76              0.0000000000
     48384      1336  PPPE      H16Y          -14.9834459280       33.4368940219        0.5550137554  MEMB      76              0.0000000000
     48385      1336  PPPE      H16Z          -16.0538758915       34.2355450302        1.8222026307  MEMB      76              0.0000000000
     48386      1337  PPPE      N              40.6909536935       -3.4578509862      -21.6351170425  MEMB      77              0.0000000000
     48387      1337  PPPE      HN1            39.9537289648       -3.1078610392      -22.2797927257  MEMB      77              0.0000000000
     48388      1337  PPPE      HN2            41.2590390805       -2.6371734593      -21.3429400589  MEMB      77              0.0000000000
     48389      1337  PPPE      HN3            41.2745966315       -4.2378178510      -21.9992771870  MEMB      77              0.0000000000
     48390      1337  PPPE      C12            39.8965319015       -4.1315185437      -20.5989204157  MEMB      77              0.0000000000
     48391      1337  PPPE      H12A           40.5513940439       -4.4906330439      -19.7764160995  MEMB      77              0.0000000000
     48392      1337  PPPE      H12B           39.4521935623       -5.0224313989      -21.0920316861  MEMB      77              0.0000000000
     48393      1337  PPPE      C11            38.7508007243       -3.2689205394      -20.0222052959  MEMB      77              0.0000000000
     48394      1337  PPPE      H11A           38.1747487192       -3.9221545468      -19.3324441639  MEMB      77              0.0000000000
     48395      1337  PPPE      H11B           38.0585115068       -2.9607794166      -20.8346741800  MEMB      77              0.0000000000
     48396      1337  PPPE      P              39.5736646263       -2.1120320515      -17.8860709367  MEMB      77              0.0000000000
     48397      1337  PPPE      O13            40.6124263365       -1.0881627836      -17.5978478484  MEMB      77              0.0000000000
     48398      1337  PPPE      O14            38.2512510702       -1.9642763208      -17.1687202837  MEMB      77              0.0000000000
     48399      1337  PPPE      O11            40.0976017166       -3.5613361092      -17.6205277229  MEMB      77              0.0000000000
     48400      1337  PPPE      O12            39.2270539242       -2.0735951064      -19.4705901585  MEMB      77              0.0000000000
     48401      1337  PPPE      C1             39.3775295704       -4.4814382564      -16.8169687703  MEMB      77              0.0000000000
     48402      1337  PPPE      HA             38.9810020253       -5.2615474100      -17.5014515053  MEMB      77              0.0000000000
     48403      1337  PPPE      HB             38.5741558490       -4.0023352112      -16.2174923855  MEMB      77              0.0000000000
     48404      1337  PPPE      C2             40.3080014321       -5.1017389378      -15.7549088544  MEMB      77              0.0000000000
     48405      1337  PPPE      HS             39.7710170724       -5.7069790716      -14.9935592777  MEMB      77              0.0000000000
     48406      1337  PPPE      O21            41.0430766508       -4.0628830749      -15.1385532453  MEMB      77              0.0000000000
     48407      1337  PPPE      C21            40.3440001696       -3.2653382110      -14.2108185837  MEMB      77              0.0000000000
     48408      1337  PPPE      O22            39.2280774586       -3.3930395297      -13.8228407173  MEMB      77              0.0000000000
     48409      1337  PPPE      C22            41.2051646739       -2.1526630360      -13.6798488481  MEMB      77              0.0000000000
     48410      1337  PPPE      H2R            40.6066138787       -1.5227715113      -12.9875377817  MEMB      77              0.0000000000
     48411      1337  PPPE      H2S            41.5876560528       -1.5436271025      -14.5266643987  MEMB      77              0.0000000000
     48412      1337  PPPE      C3             41.3020832901       -6.0992692216      -16.4737270360  MEMB      77              0.0000000000
     48413      1337  PPPE      HX             40.6897041778       -6.7127834921      -17.1686465008  MEMB      77              0.0000000000
     48414      1337  PPPE      HY             41.9806753378       -5.4729167488      -17.0913971848  MEMB      77              0.0000000000
     48415      1337  PPPE      O31            41.9947932301       -6.9259812333      -15.5294918380  MEMB      77              0.0000000000
     48416      1337  PPPE      C31            43.2792337931       -6.6023816767      -15.1570911553  MEMB      77              0.0000000000
     48417      1337  PPPE      O32            43.9260417041       -5.5987329248      -15.4411904430  MEMB      77              0.0000000000
     48418      1337  PPPE      C32            43.8022260808       -7.6229538726      -14.1639879486  MEMB      77              0.0000000000
     48419      1337  PPPE      H2X            44.8641106158       -7.9220193572      -14.2954492361  MEMB      77              0.0000000000
     48420      1337  PPPE      H2Y            43.2434713522       -8.5766778932      -14.2759015130  MEMB      77              0.0000000000
     48421      1337  PPPE      C23            42.4121023806       -2.6668679179      -12.8649133981  MEMB      77              0.0000000000
     48422      1337  PPPE      H3R            42.9557931255       -1.7148957798      -12.6847178871  MEMB      77              0.0000000000
     48423      1337  PPPE      H3S            43.2104143170       -3.2234412627      -13.4008659744  MEMB      77              0.0000000000
     48424      1337  PPPE      C24            42.1177625847       -3.2675675866      -11.4861963666  MEMB      77              0.0000000000
     48425      1337  PPPE      H4R            41.6997115352       -4.2636544553      -11.7457445707  MEMB      77              0.0000000000
     48426      1337  PPPE      H4S            41.3242555628       -2.7039800935      -10.9504382646  MEMB      77              0.0000000000
     48427      1337  PPPE      C25            43.3960870523       -3.3372339977      -10.5914168074  MEMB      77              0.0000000000
     48428      1337  PPPE      H5R            44.0138101830       -2.4297226456      -10.7621864759  MEMB      77              0.0000000000
     48429      1337  PPPE      H5S            43.9502222225       -4.2436950406      -10.9163530950  MEMB      77              0.0000000000
     48430      1337  PPPE      C26            43.0353637264       -3.4075856511       -9.1648283071  MEMB      77              0.0000000000
     48431      1337  PPPE      H6R            42.6237538560       -4.4066725845       -8.9065191630  MEMB      77              0.0000000000
     48432      1337  PPPE      H6S            42.2385501575       -2.7201832715       -8.8086161443  MEMB      77              0.0000000000
     48433      1337  PPPE      C27            44.3017964652       -3.2934419271       -8.2780341537  MEMB      77              0.0000000000
     48434      1337  PPPE      H7R            44.5922324483       -2.2225990750       -8.2209068754  MEMB      77              0.0000000000
     48435      1337  PPPE      H7S            45.1611556859       -3.7822530766       -8.7848737633  MEMB      77              0.0000000000
     48436      1337  PPPE      C28            44.1269956122       -3.7712857114       -6.8565950322  MEMB      77              0.0000000000
     48437      1337  PPPE      H8R            45.1762601647       -3.6797655174       -6.5030572649  MEMB      77              0.0000000000
     48438      1337  PPPE      H8S            43.8797079866       -4.8525009727       -6.7922258706  MEMB      77              0.0000000000
     48439      1337  PPPE      C29            43.2013424607       -2.8621680255       -5.9995617627  MEMB      77              0.0000000000
     48440      1337  PPPE      H91            42.3399815485       -2.3788897007       -6.4838131848  MEMB      77              0.0000000000
     48441      1337  PPPE      C210           43.3637838812       -2.7057341201       -4.6523860871  MEMB      77              0.0000000000
     48442      1337  PPPE      H101           42.6727245703       -2.0365623281       -4.1188636961  MEMB      77              0.0000000000
     48443      1337  PPPE      C211           44.4532384012       -3.3118284733       -3.8043416661  MEMB      77              0.0000000000
     48444      1337  PPPE      H11R           44.7160063407       -2.6540762792       -2.9484000436  MEMB      77              0.0000000000
     48445      1337  PPPE      H11S           45.3983043373       -3.5062252679       -4.3551422314  MEMB      77              0.0000000000
     48446      1337  PPPE      C212           43.9461798782       -4.7112637474       -3.2687883992  MEMB      77              0.0000000000
     48447      1337  PPPE      H12R           44.7399689437       -5.1532806960       -2.6293816923  MEMB      77              0.0000000000
     48448      1337  PPPE      H12S           43.7737139394       -5.4338464524       -4.0948941639  MEMB      77              0.0000000000
     48449      1337  PPPE      C213           42.6908851659       -4.7062405788       -2.4410964189  MEMB      77              0.0000000000
     48450      1337  PPPE      H13R           42.3174861016       -5.7185975329       -2.1764692544  MEMB      77              0.0000000000
     48451      1337  PPPE      H13S           41.8395960700       -4.3982609011       -3.0851277794  MEMB      77              0.0000000000
     48452      1337  PPPE      C214           42.7837961320       -3.9151846880       -1.0642632388  MEMB      77              0.0000000000
     48453      1337  PPPE      H14R           41.8296439039       -3.9153275878       -0.4951283646  MEMB      77              0.0000000000
     48454      1337  PPPE      H14S           42.9516484388       -2.8237227706       -1.1861545267  MEMB      77              0.0000000000
     48455      1337  PPPE      C215           43.8724014793       -4.4802924378       -0.0229538692  MEMB      77              0.0000000000
     48456      1337  PPPE      H15R           44.7540451752       -3.8794102855       -0.3327377175  MEMB      77              0.0000000000
     48457      1337  PPPE      H15S           44.1353633808       -5.5550632634       -0.1231522267  MEMB      77              0.0000000000
     48458      1337  PPPE      C216           43.3889165313       -4.1135123866        1.3453335002  MEMB      77              0.0000000000
     48459      1337  PPPE      H16R           43.1704860899       -3.0266444009        1.4183206490  MEMB      77              0.0000000000
     48460      1337  PPPE      H16S           42.5065914708       -4.7730084857        1.4898616398  MEMB      77              0.0000000000
     48461      1337  PPPE      H16T           44.0910314859       -4.4202569739        2.1498602858  MEMB      77              0.0000000000
     48462      1337  PPPE      C33            43.6770246765       -7.0794488619      -12.7603539127  MEMB      77              0.0000000000
     48463      1337  PPPE      H3X            43.9467732992       -6.0017416356      -12.7705428722  MEMB      77              0.0000000000
     48464      1337  PPPE      H3Y            44.3678107142       -7.6308208449      -12.0872086189  MEMB      77              0.0000000000
     48465      1337  PPPE      C34            42.2758037980       -7.2985588251      -12.1194760051  MEMB      77              0.0000000000
     48466      1337  PPPE      H4X            41.7855608744       -8.1996712557      -12.5460662809  MEMB      77              0.0000000000
     48467      1337  PPPE      H4Y            41.5656780051       -6.5756041345      -12.5748647112  MEMB      77              0.0000000000
     48468      1337  PPPE      C35            42.2954340871       -7.0562165561      -10.6513786441  MEMB      77              0.0000000000
     48469      1337  PPPE      H5X            42.5161469708       -5.9817616460      -10.4748751908  MEMB      77              0.0000000000
     48470      1337  PPPE      H5Y            43.0996459304       -7.5816215185      -10.0932443085  MEMB      77              0.0000000000
     48471      1337  PPPE      C36            41.0529601697       -7.4455577626       -9.9146798514  MEMB      77              0.0000000000
     48472      1337  PPPE      H6X            40.6009974001       -8.4023364764      -10.2532432099  MEMB      77              0.0000000000
     48473      1337  PPPE      H6Y            40.3137381963       -6.6235802320      -10.0252457289  MEMB      77              0.0000000000
     48474      1337  PPPE      C37            41.3740821361       -7.4514004999       -8.4278514140  MEMB      77              0.0000000000
     48475      1337  PPPE      H7X            41.6990159216       -6.4362107676       -8.1145961788  MEMB      77              0.0000000000
     48476      1337  PPPE      H7Y            42.1815818734       -8.1792171544       -8.1986177089  MEMB      77              0.0000000000
     48477      1337  PPPE      C38            40.1848967209       -7.9173212056       -7.5264670350  MEMB      77              0.0000000000
     48478      1337  PPPE      H8X            39.6355694059       -8.8572472939       -7.7480509908  MEMB      77              0.0000000000
     48479      1337  PPPE      H8Y            39.4804108729       -7.0623605196       -7.6105081873  MEMB      77              0.0000000000
     48480      1337  PPPE      C39            40.5618616693       -7.8384338006       -6.0177919876  MEMB      77              0.0000000000
     48481      1337  PPPE      H9X            41.3487256263       -7.0669808817       -5.8762769460  MEMB      77              0.0000000000
     48482      1337  PPPE      H9Y            41.0529473748       -8.7858888126       -5.7087857904  MEMB      77              0.0000000000
     48483      1337  PPPE      C310           39.3541117984       -7.5503675467       -5.0834377611  MEMB      77              0.0000000000
     48484      1337  PPPE      H10X           38.5504189043       -8.3152815913       -5.0259465771  MEMB      77              0.0000000000
     48485      1337  PPPE      H10Y           38.9122500595       -6.6515480409       -5.5642731800  MEMB      77              0.0000000000
     48486      1337  PPPE      C311           39.7793545030       -7.2289418156       -3.6624402273  MEMB      77              0.0000000000
     48487      1337  PPPE      H11X           40.6610231441       -6.5529407024       -3.6644156389  MEMB      77              0.0000000000
     48488      1337  PPPE      H11Y           40.2540415687       -8.1034411523       -3.1682296449  MEMB      77              0.0000000000
     48489      1337  PPPE      C312           38.6185603921       -6.7468300897       -2.7536850084  MEMB      77              0.0000000000
     48490      1337  PPPE      H12X           38.0258261529       -7.6227111176       -2.4133622990  MEMB      77              0.0000000000
     48491      1337  PPPE      H12Y           38.0645034859       -5.9717785830       -3.3252067550  MEMB      77              0.0000000000
     48492      1337  PPPE      C313           39.2610867135       -5.9600884716       -1.5781790774  MEMB      77              0.0000000000
     48493      1337  PPPE      H13X           39.7695584224       -5.0630630121       -1.9918490501  MEMB      77              0.0000000000
     48494      1337  PPPE      H13Y           40.0584615138       -6.4616247256       -0.9891325481  MEMB      77              0.0000000000
     48495      1337  PPPE      C314           38.1761687963       -5.5637266138       -0.6125677912  MEMB      77              0.0000000000
     48496      1337  PPPE      H14X           37.6219383646       -6.4932311633       -0.3612295307  MEMB      77              0.0000000000
     48497      1337  PPPE      H14Y           37.4640618329       -4.7910634604       -0.9734227815  MEMB      77              0.0000000000
     48498      1337  PPPE      C315           38.7331260600       -4.9630104830        0.7235211043  MEMB      77              0.0000000000
     48499      1337  PPPE      H15X           37.8562438805       -4.7516654052        1.3721596025  MEMB      77              0.0000000000
     48500      1337  PPPE      H15Y           39.0521062026       -3.9597890030        0.3683882692  MEMB      77              0.0000000000
     48501      1337  PPPE      C316           39.8270189796       -5.6984882703        1.4651911176  MEMB      77              0.0000000000
     48502      1337  PPPE      H16X           40.7942098611       -5.5674346777        0.9344484733  MEMB      77              0.0000000000
     48503      1337  PPPE      H16Y           40.0287404519       -5.3260801303        2.4922946299  MEMB      77              0.0000000000
     48504      1337  PPPE      H16Z           39.5848965250       -6.7766693789        1.5801833532  MEMB      77              0.0000000000
     48505      1338  PPPE      N              15.9071168998       38.1036817431      -20.6930283982  MEMB      78              0.0000000000
     48506      1338  PPPE      HN1            14.9743939798       38.0683938004      -21.1517033547  MEMB      78              0.0000000000
     48507      1338  PPPE      HN2            15.8786249880       38.2999072482      -19.6721054030  MEMB      78              0.0000000000
     48508      1338  PPPE      HN3            16.3718978288       38.9053492358      -21.1651596502  MEMB      78              0.0000000000
     48509      1338  PPPE      C12            16.5476010714       36.7937201445      -20.9141405908  MEMB      78              0.0000000000
     48510      1338  PPPE      H12A           16.5780218948       36.5590430414      -21.9996461093  MEMB      78              0.0000000000
     48511      1338  PPPE      H12B           15.8846987724       36.0835592859      -20.3751108172  MEMB      78              0.0000000000
     48512      1338  PPPE      C11            18.0066765833       36.7368776946      -20.4413393988  MEMB      78              0.0000000000
     48513      1338  PPPE      H11A           18.5863931714       37.5520581878      -20.9247961611  MEMB      78              0.0000000000
     48514      1338  PPPE      H11B           18.5293606810       35.8751663614      -20.9088604277  MEMB      78              0.0000000000
     48515      1338  PPPE      P              17.5920760793       35.7667290724      -17.9991577097  MEMB      78              0.0000000000
     48516      1338  PPPE      O13            16.2154927557       36.0616620302      -17.6826957447  MEMB      78              0.0000000000
     48517      1338  PPPE      O14            17.8745311578       34.3845048080      -18.5086727862  MEMB      78              0.0000000000
     48518      1338  PPPE      O11            18.4721434082       36.1291742392      -16.7197782617  MEMB      78              0.0000000000
     48519      1338  PPPE      O12            18.1223332212       36.8960086764      -19.0411869964  MEMB      78              0.0000000000
     48520      1338  PPPE      C1             19.7598873342       35.6082988316      -16.5160626709  MEMB      78              0.0000000000
     48521      1338  PPPE      HA             20.3691999348       36.3504633730      -15.9572684796  MEMB      78              0.0000000000
     48522      1338  PPPE      HB             20.4110384725       35.4323609007      -17.3988814742  MEMB      78              0.0000000000
     48523      1338  PPPE      C2             19.6839669633       34.3674516746      -15.5517184954  MEMB      78              0.0000000000
     48524      1338  PPPE      HS             19.0984964679       33.5705265452      -16.0581329868  MEMB      78              0.0000000000
     48525      1338  PPPE      O21            18.9711390028       34.8535103432      -14.3339010838  MEMB      78              0.0000000000
     48526      1338  PPPE      C21            18.4499148995       33.9239583865      -13.5008321244  MEMB      78              0.0000000000
     48527      1338  PPPE      O22            18.6019796786       32.7509337046      -13.5479733605  MEMB      78              0.0000000000
     48528      1338  PPPE      C22            17.4812497452       34.7038593832      -12.5878370136  MEMB      78              0.0000000000
     48529      1338  PPPE      H2R            16.9984541620       34.0478398746      -11.8322790547  MEMB      78              0.0000000000
     48530      1338  PPPE      H2S            16.7235751637       35.1836355736      -13.2436304536  MEMB      78              0.0000000000
     48531      1338  PPPE      C3             21.0764365477       33.7835618084      -15.2267379104  MEMB      78              0.0000000000
     48532      1338  PPPE      HX             20.9584703552       32.8182868048      -14.6894771313  MEMB      78              0.0000000000
     48533      1338  PPPE      HY             21.5719672413       33.5139789643      -16.1838666488  MEMB      78              0.0000000000
     48534      1338  PPPE      O31            21.9696114673       34.7558789793      -14.6116538115  MEMB      78              0.0000000000
     48535      1338  PPPE      C31            22.1007145065       34.6872422709      -13.2790599480  MEMB      78              0.0000000000
     48536      1338  PPPE      O32            21.7589127113       33.7222919024      -12.6205803060  MEMB      78              0.0000000000
     48537      1338  PPPE      C32            22.7906667213       35.9268247967      -12.8531944955  MEMB      78              0.0000000000
     48538      1338  PPPE      H2X            22.1873193977       36.8299747061      -13.0868892715  MEMB      78              0.0000000000
     48539      1338  PPPE      H2Y            23.8329872436       36.0166648459      -13.2271165388  MEMB      78              0.0000000000
     48540      1338  PPPE      C23            18.2684159741       35.8941461969      -11.8999610566  MEMB      78              0.0000000000
     48541      1338  PPPE      H3R            18.7104625456       36.4455546193      -12.7572034846  MEMB      78              0.0000000000
     48542      1338  PPPE      H3S            19.1341129105       35.4999256967      -11.3259575623  MEMB      78              0.0000000000
     48543      1338  PPPE      C24            17.4273066362       36.6938645644      -11.0187916646  MEMB      78              0.0000000000
     48544      1338  PPPE      H4R            17.0567784562       36.1869801382      -10.1022230385  MEMB      78              0.0000000000
     48545      1338  PPPE      H4S            16.5537623764       37.1309255285      -11.5481489540  MEMB      78              0.0000000000
     48546      1338  PPPE      C25            18.1194915642       37.9323017274      -10.4170661003  MEMB      78              0.0000000000
     48547      1338  PPPE      H5R            18.4046547147       38.6595886788      -11.2070386744  MEMB      78              0.0000000000
     48548      1338  PPPE      H5S            19.0481216748       37.5716783416       -9.9252146073  MEMB      78              0.0000000000
     48549      1338  PPPE      C26            17.1597205761       38.6107392407       -9.4517643072  MEMB      78              0.0000000000
     48550      1338  PPPE      H6R            16.9569236430       37.8763244023       -8.6431672202  MEMB      78              0.0000000000
     48551      1338  PPPE      H6S            16.2326954357       38.8877524154       -9.9978495479  MEMB      78              0.0000000000
     48552      1338  PPPE      C27            17.6655311494       39.9178681818       -8.7894080379  MEMB      78              0.0000000000
     48553      1338  PPPE      H7R            16.8680402474       40.0186768436       -8.0224876541  MEMB      78              0.0000000000
     48554      1338  PPPE      H7S            17.6047820559       40.7829832054       -9.4838189708  MEMB      78              0.0000000000
     48555      1338  PPPE      C28            19.0801524133       39.8297087711       -8.1222688336  MEMB      78              0.0000000000
     48556      1338  PPPE      H8R            19.7145112288       39.6584859569       -9.0181441826  MEMB      78              0.0000000000
     48557      1338  PPPE      H8S            19.0456728531       38.9456037293       -7.4503384538  MEMB      78              0.0000000000
     48558      1338  PPPE      C29            19.5385035345       41.0783809618       -7.4215342041  MEMB      78              0.0000000000
     48559      1338  PPPE      H91            19.7314478619       41.8719743133       -8.1584073811  MEMB      78              0.0000000000
     48560      1338  PPPE      C210           19.6830477876       41.3247895650       -6.1673421944  MEMB      78              0.0000000000
     48561      1338  PPPE      H101           20.1009220960       42.2722249736       -5.7961990834  MEMB      78              0.0000000000
     48562      1338  PPPE      C211           19.3937903892       40.3717580972       -5.0539452877  MEMB      78              0.0000000000
     48563      1338  PPPE      H11R           20.3781243635       39.9181764552       -4.8096681476  MEMB      78              0.0000000000
     48564      1338  PPPE      H11S           18.6415108159       39.6021398255       -5.3297788600  MEMB      78              0.0000000000
     48565      1338  PPPE      C212           18.7220437100       40.9278531949       -3.8578843940  MEMB      78              0.0000000000
     48566      1338  PPPE      H12R           17.7279998081       41.3776502879       -4.0673606367  MEMB      78              0.0000000000
     48567      1338  PPPE      H12S           19.3096447696       41.6790735126       -3.2880475498  MEMB      78              0.0000000000
     48568      1338  PPPE      C213           18.2919941044       39.8160446974       -2.8275515340  MEMB      78              0.0000000000
     48569      1338  PPPE      H13R           19.1529976662       39.3846011401       -2.2736108119  MEMB      78              0.0000000000
     48570      1338  PPPE      H13S           17.8560400864       38.9030027916       -3.2864846144  MEMB      78              0.0000000000
     48571      1338  PPPE      C214           17.3663630957       40.2698458701       -1.6965061434  MEMB      78              0.0000000000
     48572      1338  PPPE      H14R           16.3898702351       40.5761598198       -2.1288884479  MEMB      78              0.0000000000
     48573      1338  PPPE      H14S           17.9035899827       41.1750109596       -1.3410002608  MEMB      78              0.0000000000
     48574      1338  PPPE      C215           17.1104690286       39.1710932289       -0.6048274055  MEMB      78              0.0000000000
     48575      1338  PPPE      H15R           18.0756498201       39.1223856544       -0.0567629824  MEMB      78              0.0000000000
     48576      1338  PPPE      H15S           16.9377065295       38.1716958948       -1.0583459691  MEMB      78              0.0000000000
     48577      1338  PPPE      C216           16.1297214787       39.5057156304        0.5466793275  MEMB      78              0.0000000000
     48578      1338  PPPE      H16R           15.9425567142       38.6192195401        1.1896529139  MEMB      78              0.0000000000
     48579      1338  PPPE      H16S           16.4392242445       40.3042312249        1.2544235493  MEMB      78              0.0000000000
     48580      1338  PPPE      H16T           15.1258963707       39.6974411198        0.1109070368  MEMB      78              0.0000000000
     48581      1338  PPPE      C33            22.9034040570       35.9094879425      -11.3349072235  MEMB      78              0.0000000000
     48582      1338  PPPE      H3X            23.6249763863       35.1755536892      -10.9165833234  MEMB      78              0.0000000000
     48583      1338  PPPE      H3Y            21.9252803255       35.7545162189      -10.8313412092  MEMB      78              0.0000000000
     48584      1338  PPPE      C34            23.2887858905       37.2785690734      -10.7975798207  MEMB      78              0.0000000000
     48585      1338  PPPE      H4X            22.5183731202       38.0107003444      -11.1212601649  MEMB      78              0.0000000000
     48586      1338  PPPE      H4Y            24.2127910686       37.4679929995      -11.3846522242  MEMB      78              0.0000000000
     48587      1338  PPPE      C35            23.4218333902       37.3891801949       -9.2664326040  MEMB      78              0.0000000000
     48588      1338  PPPE      H5X            23.5937963165       38.4777632568       -9.1259453482  MEMB      78              0.0000000000
     48589      1338  PPPE      H5Y            24.3208465453       36.8369592205       -8.9183688997  MEMB      78              0.0000000000
     48590      1338  PPPE      C36            22.2618560416       36.8615112636       -8.4296803760  MEMB      78              0.0000000000
     48591      1338  PPPE      H6X            21.9512486957       35.8262114325       -8.6865817895  MEMB      78              0.0000000000
     48592      1338  PPPE      H6Y            21.3793402465       37.5039643476       -8.6364191154  MEMB      78              0.0000000000
     48593      1338  PPPE      C37            22.6203467871       36.8799912361       -6.9034537150  MEMB      78              0.0000000000
     48594      1338  PPPE      H7X            22.9899014079       37.8991809931       -6.6605491625  MEMB      78              0.0000000000
     48595      1338  PPPE      H7Y            23.4597331540       36.2523180032       -6.5349732680  MEMB      78              0.0000000000
     48596      1338  PPPE      C38            21.5089761931       36.4903092797       -5.9254638252  MEMB      78              0.0000000000
     48597      1338  PPPE      H8X            20.6622783883       37.2008403754       -6.0375771129  MEMB      78              0.0000000000
     48598      1338  PPPE      H8Y            21.9631138929       36.7695672455       -4.9507356898  MEMB      78              0.0000000000
     48599      1338  PPPE      C39            20.8443533659       35.0893836050       -5.8865795846  MEMB      78              0.0000000000
     48600      1338  PPPE      H9X            21.7312807929       34.4216775538       -5.8435753031  MEMB      78              0.0000000000
     48601      1338  PPPE      H9Y            20.2138762179       34.9234714922       -6.7861865748  MEMB      78              0.0000000000
     48602      1338  PPPE      C310           20.0119106210       35.0784661631       -4.6342454353  MEMB      78              0.0000000000
     48603      1338  PPPE      H10X           19.2350636633       35.8724494589       -4.6547473926  MEMB      78              0.0000000000
     48604      1338  PPPE      H10Y           20.7237117523       35.1258111358       -3.7825303403  MEMB      78              0.0000000000
     48605      1338  PPPE      C311           19.3659433976       33.6603464415       -4.5378038027  MEMB      78              0.0000000000
     48606      1338  PPPE      H11X           20.1074575212       32.9114331007       -4.1862264820  MEMB      78              0.0000000000
     48607      1338  PPPE      H11Y           18.8887763022       33.4269867862       -5.5135987782  MEMB      78              0.0000000000
     48608      1338  PPPE      C312           18.3383202754       33.4266450077       -3.3876493029  MEMB      78              0.0000000000
     48609      1338  PPPE      H12X           18.0591227659       32.3541278669       -3.3096958987  MEMB      78              0.0000000000
     48610      1338  PPPE      H12Y           17.3517188088       33.8914106767       -3.5996196286  MEMB      78              0.0000000000
     48611      1338  PPPE      C313           18.7927222390       34.0134519143       -1.9451965202  MEMB      78              0.0000000000
     48612      1338  PPPE      H13X           19.8156274859       34.4399847420       -2.0230142747  MEMB      78              0.0000000000
     48613      1338  PPPE      H13Y           18.7205837616       33.1515111931       -1.2479338486  MEMB      78              0.0000000000
     48614      1338  PPPE      C314           17.7655868685       35.0355070379       -1.4266778316  MEMB      78              0.0000000000
     48615      1338  PPPE      H14X           17.3434485288       35.5324121014       -2.3262363788  MEMB      78              0.0000000000
     48616      1338  PPPE      H14Y           18.2103712294       35.6963677955       -0.6522419522  MEMB      78              0.0000000000
     48617      1338  PPPE      C315           16.5438077161       34.4392755344       -0.7015079247  MEMB      78              0.0000000000
     48618      1338  PPPE      H15X           16.9844053723       33.9209615585        0.1768686048  MEMB      78              0.0000000000
     48619      1338  PPPE      H15Y           16.1217598814       33.5947163332       -1.2870985503  MEMB      78              0.0000000000
     48620      1338  PPPE      C316           15.4897448303       35.4715247693       -0.1862499792  MEMB      78              0.0000000000
     48621      1338  PPPE      H16X           14.7843535962       35.0333946511        0.5518463602  MEMB      78              0.0000000000
     48622      1338  PPPE      H16Y           16.0501543693       36.1116067483        0.5282828813  MEMB      78              0.0000000000
     48623      1338  PPPE      H16Z           14.9277120933       35.9068448516       -1.0400278359  MEMB      78              0.0000000000
     48624      1339  PPPE      N              10.4731845039      -39.7121285660      -21.8816080929  MEMB      79              0.0000000000
     48625      1339  PPPE      HN1            11.3968550458      -39.8012585669      -22.3511702006  MEMB      79              0.0000000000
     48626      1339  PPPE      HN2             9.7560346617      -39.9361931720      -22.6006985991  MEMB      79              0.0000000000
     48627      1339  PPPE      HN3            10.2815266388      -38.7482514921      -21.5413019821  MEMB      79              0.0000000000
     48628      1339  PPPE      C12            10.2301192989      -40.6370086792      -20.6612283611  MEMB      79              0.0000000000
     48629      1339  PPPE      H12A            9.9775573028      -41.6080930828      -21.1382278571  MEMB      79              0.0000000000
     48630      1339  PPPE      H12B            9.2894006170      -40.2783052229      -20.1914399067  MEMB      79              0.0000000000
     48631      1339  PPPE      C11            11.3267559751      -40.6247919924      -19.5645915761  MEMB      79              0.0000000000
     48632      1339  PPPE      H11A           12.2277568983      -41.1631111979      -19.9289139190  MEMB      79              0.0000000000
     48633      1339  PPPE      H11B           11.0664041312      -41.2330211141      -18.6720697260  MEMB      79              0.0000000000
     48634      1339  PPPE      P              10.9112842878      -38.6482548768      -17.9630232037  MEMB      79              0.0000000000
     48635      1339  PPPE      O13            10.5766597216      -37.2376378906      -18.1764808827  MEMB      79              0.0000000000
     48636      1339  PPPE      O14             9.6826746001      -39.4101684308      -17.6969031672  MEMB      79              0.0000000000
     48637      1339  PPPE      O11            12.0425118967      -38.8310168166      -16.8387339742  MEMB      79              0.0000000000
     48638      1339  PPPE      O12            11.6913113175      -39.2920543476      -19.2174311296  MEMB      79              0.0000000000
     48639      1339  PPPE      C1             13.4884364904      -38.9801978585      -17.0659887394  MEMB      79              0.0000000000
     48640      1339  PPPE      HA             13.9137089426      -38.0869223593      -17.5714817898  MEMB      79              0.0000000000
     48641      1339  PPPE      HB             13.6926438308      -39.9199233049      -17.6223487377  MEMB      79              0.0000000000
     48642      1339  PPPE      C2             14.2041630447      -39.1704816820      -15.6802300610  MEMB      79              0.0000000000
     48643      1339  PPPE      HS             15.1762939241      -39.6640221775      -15.8940064224  MEMB      79              0.0000000000
     48644      1339  PPPE      O21            13.4935094520      -40.1843319503      -14.8627151851  MEMB      79              0.0000000000
     48645      1339  PPPE      C21            13.9080010886      -40.5227740500      -13.7069238366  MEMB      79              0.0000000000
     48646      1339  PPPE      O22            14.8311866794      -40.0276236322      -13.0849502702  MEMB      79              0.0000000000
     48647      1339  PPPE      C22            13.0735952889      -41.5671228738      -13.0546537629  MEMB      79              0.0000000000
     48648      1339  PPPE      H2R            12.9514347287      -42.5067538111      -13.6347326363  MEMB      79              0.0000000000
     48649      1339  PPPE      H2S            12.0147680569      -41.2680330443      -12.9005396277  MEMB      79              0.0000000000
     48650      1339  PPPE      C3             14.3513987398      -37.8024128139      -14.9381198964  MEMB      79              0.0000000000
     48651      1339  PPPE      HX             15.2160071837      -37.7751328718      -14.2409620639  MEMB      79              0.0000000000
     48652      1339  PPPE      HY             14.5671941171      -37.0509050248      -15.7274166707  MEMB      79              0.0000000000
     48653      1339  PPPE      O31            13.2058540814      -37.4343533038      -14.1315339112  MEMB      79              0.0000000000
     48654      1339  PPPE      C31            12.4102033675      -36.5008134620      -14.6375045635  MEMB      79              0.0000000000
     48655      1339  PPPE      O32            12.2718705380      -36.2379633297      -15.8299251431  MEMB      79              0.0000000000
     48656      1339  PPPE      C32            11.6178519051      -35.8880356090      -13.4468866186  MEMB      79              0.0000000000
     48657      1339  PPPE      H2X            11.3201485047      -34.8354617208      -13.6412622738  MEMB      79              0.0000000000
     48658      1339  PPPE      H2Y            12.1943087686      -36.0540477948      -12.5117617934  MEMB      79              0.0000000000
     48659      1339  PPPE      C23            13.5351857193      -41.9015714872      -11.6059754089  MEMB      79              0.0000000000
     48660      1339  PPPE      H3R            13.5757536143      -40.9704832072      -11.0012028397  MEMB      79              0.0000000000
     48661      1339  PPPE      H3S            14.5320911610      -42.3868412887      -11.6767833188  MEMB      79              0.0000000000
     48662      1339  PPPE      C24            12.5743962632      -42.9239422059      -10.9087840481  MEMB      79              0.0000000000
     48663      1339  PPPE      H4R            12.7328196564      -43.8764166235      -11.4583434283  MEMB      79              0.0000000000
     48664      1339  PPPE      H4S            11.5901302261      -42.5252920550      -11.2353103494  MEMB      79              0.0000000000
     48665      1339  PPPE      C25            12.6240737241      -42.9910516977       -9.4100590034  MEMB      79              0.0000000000
     48666      1339  PPPE      H5R            13.5883256989      -43.4934067714       -9.1816328468  MEMB      79              0.0000000000
     48667      1339  PPPE      H5S            11.7435497733      -43.4742754677       -8.9351975917  MEMB      79              0.0000000000
     48668      1339  PPPE      C26            12.7307804477      -41.6578282291       -8.7568552732  MEMB      79              0.0000000000
     48669      1339  PPPE      H6R            11.9064931667      -41.1425928684       -9.2948180985  MEMB      79              0.0000000000
     48670      1339  PPPE      H6S            13.7281298571      -41.2162872933       -8.9681767287  MEMB      79              0.0000000000
     48671      1339  PPPE      C27            12.4834111207      -41.5839147868       -7.2325058105  MEMB      79              0.0000000000
     48672      1339  PPPE      H7R            13.4170357228      -42.0100628496       -6.8069897345  MEMB      79              0.0000000000
     48673      1339  PPPE      H7S            11.6948514280      -42.2670112901       -6.8505715515  MEMB      79              0.0000000000
     48674      1339  PPPE      C28            12.3170459103      -40.1727078897       -6.6800792780  MEMB      79              0.0000000000
     48675      1339  PPPE      H8R            12.0992993089      -40.3450167765       -5.6043390374  MEMB      79              0.0000000000
     48676      1339  PPPE      H8S            11.4388988561      -39.8292930232       -7.2676547887  MEMB      79              0.0000000000
     48677      1339  PPPE      C29            13.4553425236      -39.2495955014       -6.8216727487  MEMB      79              0.0000000000
     48678      1339  PPPE      H91            14.4538844532      -39.6747160073       -7.0010789087  MEMB      79              0.0000000000
     48679      1339  PPPE      C210           13.4097268097      -37.9074525264       -6.7751593485  MEMB      79              0.0000000000
     48680      1339  PPPE      H101           14.2884496028      -37.3407935031       -7.1168372730  MEMB      79              0.0000000000
     48681      1339  PPPE      C211           12.1175955538      -37.1694139169       -6.4978097029  MEMB      79              0.0000000000
     48682      1339  PPPE      H11R           11.3270357315      -37.4609685946       -7.2219174554  MEMB      79              0.0000000000
     48683      1339  PPPE      H11S           12.3423042081      -36.0947778003       -6.6680572806  MEMB      79              0.0000000000
     48684      1339  PPPE      C212           11.4016922501      -37.4439256281       -5.1235785199  MEMB      79              0.0000000000
     48685      1339  PPPE      H12R           10.9752713673      -38.4649217460       -5.0233130813  MEMB      79              0.0000000000
     48686      1339  PPPE      H12S           10.5043423955      -36.7907340213       -5.1728224358  MEMB      79              0.0000000000
     48687      1339  PPPE      C213           12.3296171842      -36.9659110844       -3.9345854633  MEMB      79              0.0000000000
     48688      1339  PPPE      H13R           12.8123334337      -35.9883625274       -4.1483723694  MEMB      79              0.0000000000
     48689      1339  PPPE      H13S           13.1040963452      -37.7583492409       -3.8536855422  MEMB      79              0.0000000000
     48690      1339  PPPE      C214           11.5454745774      -36.8013698048       -2.6267166011  MEMB      79              0.0000000000
     48691      1339  PPPE      H14R           10.9629146115      -37.7218475452       -2.4083920361  MEMB      79              0.0000000000
     48692      1339  PPPE      H14S           10.8178752897      -36.0024647951       -2.8849240022  MEMB      79              0.0000000000
     48693      1339  PPPE      C215           12.4306447762      -36.4736316575       -1.4472752573  MEMB      79              0.0000000000
     48694      1339  PPPE      H15R           13.2577566229      -35.7832060382       -1.7184199737  MEMB      79              0.0000000000
     48695      1339  PPPE      H15S           12.9547864600      -37.3912741421       -1.1044505711  MEMB      79              0.0000000000
     48696      1339  PPPE      C216           11.7483151018      -35.8623053883       -0.1520789770  MEMB      79              0.0000000000
     48697      1339  PPPE      H16R           11.0657949978      -36.6355619153        0.2609121258  MEMB      79              0.0000000000
     48698      1339  PPPE      H16S           12.6032905993      -35.6499641751        0.5248620158  MEMB      79              0.0000000000
     48699      1339  PPPE      H16T           11.1660118213      -34.9470833001       -0.3921048481  MEMB      79              0.0000000000
     48700      1339  PPPE      C33            10.3993872121      -36.6845563359      -13.2526472001  MEMB      79              0.0000000000
     48701      1339  PPPE      H3X            10.5558251146      -37.7833145887      -13.3034259799  MEMB      79              0.0000000000
     48702      1339  PPPE      H3Y             9.7335437739      -36.3819015788      -14.0889328056  MEMB      79              0.0000000000
     48703      1339  PPPE      C34             9.5768684347      -36.3214750429      -11.9601993841  MEMB      79              0.0000000000
     48704      1339  PPPE      H4X             8.5304209219      -36.6172663000      -12.1877430837  MEMB      79              0.0000000000
     48705      1339  PPPE      H4Y             9.5177657043      -35.2121021379      -11.9492620766  MEMB      79              0.0000000000
     48706      1339  PPPE      C35            10.1048511537      -36.9271824336      -10.7279545801  MEMB      79              0.0000000000
     48707      1339  PPPE      H5X            10.5668199323      -36.1454447415      -10.0878045755  MEMB      79              0.0000000000
     48708      1339  PPPE      H5Y            10.7572514451      -37.8095722664      -10.9013992191  MEMB      79              0.0000000000
     48709      1339  PPPE      C36             9.0484025320      -37.3997188548       -9.7398272088  MEMB      79              0.0000000000
     48710      1339  PPPE      H6X             8.1007494610      -36.8737930106       -9.9841152838  MEMB      79              0.0000000000
     48711      1339  PPPE      H6Y             9.3813394122      -37.1275428785       -8.7154277400  MEMB      79              0.0000000000
     48712      1339  PPPE      C37             9.0111266954      -38.9632436445       -9.7544642301  MEMB      79              0.0000000000
     48713      1339  PPPE      H7X             9.9980240243      -39.4686943752       -9.8242798511  MEMB      79              0.0000000000
     48714      1339  PPPE      H7Y             8.4607194657      -39.2691244618      -10.6697837409  MEMB      79              0.0000000000
     48715      1339  PPPE      C38             8.3408192435      -39.5442043144       -8.4589591253  MEMB      79              0.0000000000
     48716      1339  PPPE      H8X             7.3071826470      -39.1535741609       -8.3435274590  MEMB      79              0.0000000000
     48717      1339  PPPE      H8Y             9.0030660640      -39.1232450256       -7.6724838074  MEMB      79              0.0000000000
     48718      1339  PPPE      C39             8.4339312646      -41.0779675184       -8.3375201342  MEMB      79              0.0000000000
     48719      1339  PPPE      H9X             9.5226780835      -41.2883524924       -8.2690400112  MEMB      79              0.0000000000
     48720      1339  PPPE      H9Y             8.0572736097      -41.6477378703       -9.2137688187  MEMB      79              0.0000000000
     48721      1339  PPPE      C310            7.8535870874      -41.5474901291       -7.0670685052  MEMB      79              0.0000000000
     48722      1339  PPPE      H10X            7.9071338611      -42.6564057614       -7.0251177768  MEMB      79              0.0000000000
     48723      1339  PPPE      H10Y            6.8158786534      -41.2241258772       -6.8370298850  MEMB      79              0.0000000000
     48724      1339  PPPE      C311            8.6889334001      -41.3126123500       -5.7180246526  MEMB      79              0.0000000000
     48725      1339  PPPE      H11X            8.9976402618      -40.2456739119       -5.7437820390  MEMB      79              0.0000000000
     48726      1339  PPPE      H11Y            9.6603847588      -41.8507415775       -5.6860842083  MEMB      79              0.0000000000
     48727      1339  PPPE      C312            8.0877684055      -41.6944581092       -4.3930885787  MEMB      79              0.0000000000
     48728      1339  PPPE      H12X            7.9581075382      -42.7961129335       -4.4552633929  MEMB      79              0.0000000000
     48729      1339  PPPE      H12Y            7.0969467682      -41.2105682174       -4.2572796854  MEMB      79              0.0000000000
     48730      1339  PPPE      C313            8.9154897483      -41.1594769512       -3.2741994153  MEMB      79              0.0000000000
     48731      1339  PPPE      H13X            8.8636924741      -40.0538455410       -3.1781930238  MEMB      79              0.0000000000
     48732      1339  PPPE      H13Y            9.9933896004      -41.4282212796       -3.2590536317  MEMB      79              0.0000000000
     48733      1339  PPPE      C314            8.3376800775      -41.5930494294       -1.8794298675  MEMB      79              0.0000000000
     48734      1339  PPPE      H14X            8.0766117626      -42.6719519634       -1.8332383397  MEMB      79              0.0000000000
     48735      1339  PPPE      H14Y            7.4458741956      -40.9585384483       -1.6886444279  MEMB      79              0.0000000000
     48736      1339  PPPE      C315            9.2182182754      -41.3526827586       -0.6079454469  MEMB      79              0.0000000000
     48737      1339  PPPE      H15X            9.4727048244      -40.2775178020       -0.4914211464  MEMB      79              0.0000000000
     48738      1339  PPPE      H15Y           10.1535391620      -41.9521903409       -0.5986450221  MEMB      79              0.0000000000
     48739      1339  PPPE      C316            8.4694236058      -41.6880845973        0.7143120135  MEMB      79              0.0000000000
     48740      1339  PPPE      H16X            9.1169816924      -41.3610363597        1.5557565897  MEMB      79              0.0000000000
     48741      1339  PPPE      H16Y            7.4501925079      -41.2462073578        0.6990321490  MEMB      79              0.0000000000
     48742      1339  PPPE      H16Z            8.3416481653      -42.7799399649        0.8750798374  MEMB      79              0.0000000000
     48743      1340  PPPE      N             -42.5611193005        7.4748189816      -19.1624232257  MEMB      80              0.0000000000
     48744      1340  PPPE      HN1           -43.2510938071        7.5534401856      -18.3882437332  MEMB      80              0.0000000000
     48745      1340  PPPE      HN2           -42.9246843038        8.1446369132      -19.8700703318  MEMB      80              0.0000000000
     48746      1340  PPPE      HN3           -42.6055506154        6.4909575044      -19.4965526197  MEMB      80              0.0000000000
     48747      1340  PPPE      C12           -41.1088425443        7.7303408116      -18.9205222463  MEMB      80              0.0000000000
     48748      1340  PPPE      H12A          -40.9914076780        8.7221891783      -18.4339352862  MEMB      80              0.0000000000
     48749      1340  PPPE      H12B          -40.5117761944        7.8526115504      -19.8494370111  MEMB      80              0.0000000000
     48750      1340  PPPE      C11           -40.3523353107        6.6773718490      -18.0628489262  MEMB      80              0.0000000000
     48751      1340  PPPE      H11A          -40.5399921984        6.8918395274      -16.9890195602  MEMB      80              0.0000000000
     48752      1340  PPPE      H11B          -39.2870156552        6.8082886909      -18.3496865319  MEMB      80              0.0000000000
     48753      1340  PPPE      P             -39.9082046313        4.4940700900      -19.2473875720  MEMB      80              0.0000000000
     48754      1340  PPPE      O13           -40.0181627341        4.8962295134      -20.6544964639  MEMB      80              0.0000000000
     48755      1340  PPPE      O14           -38.5307210675        4.5307966601      -18.6484719836  MEMB      80              0.0000000000
     48756      1340  PPPE      O11           -40.5156847636        3.0443852451      -19.0396351513  MEMB      80              0.0000000000
     48757      1340  PPPE      O12           -40.8664696196        5.3592474131      -18.2642143981  MEMB      80              0.0000000000
     48758      1340  PPPE      C1            -41.8682933838        2.8044074515      -19.4771851328  MEMB      80              0.0000000000
     48759      1340  PPPE      HA            -41.8152862202        2.0206557985      -20.2628342828  MEMB      80              0.0000000000
     48760      1340  PPPE      HB            -42.3815829672        3.6586336436      -19.9682578529  MEMB      80              0.0000000000
     48761      1340  PPPE      C2            -42.6192253640        2.2669235273      -18.2610968292  MEMB      80              0.0000000000
     48762      1340  PPPE      HS            -43.6516686242        2.0949819796      -18.6336797309  MEMB      80              0.0000000000
     48763      1340  PPPE      O21           -42.6242775631        3.3232848562      -17.2428365914  MEMB      80              0.0000000000
     48764      1340  PPPE      C21           -43.5341407969        3.2348801746      -16.3276258872  MEMB      80              0.0000000000
     48765      1340  PPPE      O22           -44.1042866241        2.1880989699      -16.0148906275  MEMB      80              0.0000000000
     48766      1340  PPPE      C22           -43.8027546679        4.6147371905      -15.5515708805  MEMB      80              0.0000000000
     48767      1340  PPPE      H2R           -44.6360946179        4.3840797558      -14.8539587566  MEMB      80              0.0000000000
     48768      1340  PPPE      H2S           -44.1315009816        5.3418236196      -16.3246117501  MEMB      80              0.0000000000
     48769      1340  PPPE      C3            -42.0119004362        0.9966535033      -17.7440337973  MEMB      80              0.0000000000
     48770      1340  PPPE      HX            -42.9136318126        0.4804663147      -17.3506480944  MEMB      80              0.0000000000
     48771      1340  PPPE      HY            -41.5866654488        0.3382349511      -18.5314226564  MEMB      80              0.0000000000
     48772      1340  PPPE      O31           -40.9015522417        1.2363588148      -16.7966797378  MEMB      80              0.0000000000
     48773      1340  PPPE      C31           -41.0805306854        1.1951662178      -15.4757022250  MEMB      80              0.0000000000
     48774      1340  PPPE      O32           -42.0836720209        0.8587706971      -14.8853653449  MEMB      80              0.0000000000
     48775      1340  PPPE      C32           -39.8295175505        1.6901463271      -14.8248944564  MEMB      80              0.0000000000
     48776      1340  PPPE      H2X           -39.6203055005        2.7207276688      -15.1832984413  MEMB      80              0.0000000000
     48777      1340  PPPE      H2Y           -38.8997267360        1.1763969277      -15.1502736135  MEMB      80              0.0000000000
     48778      1340  PPPE      C23           -42.5145880822        4.9969009730      -14.8821430072  MEMB      80              0.0000000000
     48779      1340  PPPE      H3R           -41.7763167367        5.3490571696      -15.6339823741  MEMB      80              0.0000000000
     48780      1340  PPPE      H3S           -42.1481276799        4.1865479125      -14.2162934064  MEMB      80              0.0000000000
     48781      1340  PPPE      C24           -42.7070520660        6.2094249524      -13.9681651042  MEMB      80              0.0000000000
     48782      1340  PPPE      H4R           -43.6625316701        6.1730808217      -13.4024276824  MEMB      80              0.0000000000
     48783      1340  PPPE      H4S           -42.9585301440        7.0124221718      -14.6936134084  MEMB      80              0.0000000000
     48784      1340  PPPE      C25           -41.5666410711        6.4939764214      -13.0020317156  MEMB      80              0.0000000000
     48785      1340  PPPE      H5R           -40.8896055408        7.1950589054      -13.5353489208  MEMB      80              0.0000000000
     48786      1340  PPPE      H5S           -40.8759285833        5.6313574007      -12.8874643362  MEMB      80              0.0000000000
     48787      1340  PPPE      C26           -41.9409881514        7.0654597721      -11.6277479435  MEMB      80              0.0000000000
     48788      1340  PPPE      H6R           -42.3852511307        8.0744836919      -11.7649417275  MEMB      80              0.0000000000
     48789      1340  PPPE      H6S           -40.9239420017        7.3077857975      -11.2519604677  MEMB      80              0.0000000000
     48790      1340  PPPE      C27           -42.7460691632        6.2674779189      -10.7220852392  MEMB      80              0.0000000000
     48791      1340  PPPE      H7R           -42.1498622507        5.3337927668      -10.6378809966  MEMB      80              0.0000000000
     48792      1340  PPPE      H7S           -43.7522022668        6.0409243079      -11.1352324758  MEMB      80              0.0000000000
     48793      1340  PPPE      C28           -42.9632720046        6.8496550898       -9.3090770885  MEMB      80              0.0000000000
     48794      1340  PPPE      H8R           -43.5996325134        6.1087558726       -8.7795162772  MEMB      80              0.0000000000
     48795      1340  PPPE      H8S           -43.5732874485        7.7679391994       -9.4467595206  MEMB      80              0.0000000000
     48796      1340  PPPE      C29           -41.8273270056        7.1649479307       -8.3836645250  MEMB      80              0.0000000000
     48797      1340  PPPE      H91           -40.8795197845        6.6250480947       -8.5256843779  MEMB      80              0.0000000000
     48798      1340  PPPE      C210          -41.8259850467        7.9389385568       -7.2578925293  MEMB      80              0.0000000000
     48799      1340  PPPE      H101          -40.8448371778        8.0881790233       -6.7834706256  MEMB      80              0.0000000000
     48800      1340  PPPE      C211          -43.0516706079        8.6567911797       -6.7262434930  MEMB      80              0.0000000000
     48801      1340  PPPE      H11R          -43.7390390663        8.9564149243       -7.5460429893  MEMB      80              0.0000000000
     48802      1340  PPPE      H11S          -42.7433623463        9.5640516528       -6.1639753632  MEMB      80              0.0000000000
     48803      1340  PPPE      C212          -43.6620873070        7.6804889964       -5.7152079350  MEMB      80              0.0000000000
     48804      1340  PPPE      H12R          -43.7004936894        6.6926393698       -6.2221586871  MEMB      80              0.0000000000
     48805      1340  PPPE      H12S          -44.6841120041        8.0147733941       -5.4358507085  MEMB      80              0.0000000000
     48806      1340  PPPE      C213          -42.8378788196        7.5588601241       -4.4420094937  MEMB      80              0.0000000000
     48807      1340  PPPE      H13R          -41.7421347344        7.5960637845       -4.6216808257  MEMB      80              0.0000000000
     48808      1340  PPPE      H13S          -43.0214131962        6.5533250518       -4.0066529145  MEMB      80              0.0000000000
     48809      1340  PPPE      C214          -43.4143661249        8.6212278033       -3.3907806846  MEMB      80              0.0000000000
     48810      1340  PPPE      H14R          -44.5220400443        8.6468279858       -3.4727814105  MEMB      80              0.0000000000
     48811      1340  PPPE      H14S          -43.0243982852        9.6079100140       -3.7204840349  MEMB      80              0.0000000000
     48812      1340  PPPE      C215          -42.8696087395        8.4333123793       -1.8902274148  MEMB      80              0.0000000000
     48813      1340  PPPE      H15R          -41.7717035656        8.4063283312       -2.0581473076  MEMB      80              0.0000000000
     48814      1340  PPPE      H15S          -43.2275808197        7.4217957619       -1.6021109063  MEMB      80              0.0000000000
     48815      1340  PPPE      C216          -43.2199661170        9.5223266321       -0.8734530081  MEMB      80              0.0000000000
     48816      1340  PPPE      H16R          -42.6771279610       10.4685194984       -1.0840872788  MEMB      80              0.0000000000
     48817      1340  PPPE      H16S          -44.2958168517        9.7952267833       -0.8245479583  MEMB      80              0.0000000000
     48818      1340  PPPE      H16T          -43.0508812349        9.1254391230        0.1503690505  MEMB      80              0.0000000000
     48819      1340  PPPE      C33           -39.9940465656        1.7245333936      -13.3228191623  MEMB      80              0.0000000000
     48820      1340  PPPE      H3X           -39.9156599832        0.6584893619      -13.0199550569  MEMB      80              0.0000000000
     48821      1340  PPPE      H3Y           -40.9464054074        2.1680875933      -12.9614422006  MEMB      80              0.0000000000
     48822      1340  PPPE      C34           -38.9576724117        2.6430213383      -12.6622486405  MEMB      80              0.0000000000
     48823      1340  PPPE      H4X           -38.9772469182        3.6658169466      -13.0956387448  MEMB      80              0.0000000000
     48824      1340  PPPE      H4Y           -37.9985195337        2.1223959215      -12.8703253859  MEMB      80              0.0000000000
     48825      1340  PPPE      C35           -39.1024161634        2.6861700468      -11.1445648279  MEMB      80              0.0000000000
     48826      1340  PPPE      H5X           -39.0125185800        1.6643733833      -10.7177498765  MEMB      80              0.0000000000
     48827      1340  PPPE      H5Y           -40.1335057544        3.0442615694      -10.9373313440  MEMB      80              0.0000000000
     48828      1340  PPPE      C36           -37.9588923198        3.5050091433      -10.4837115874  MEMB      80              0.0000000000
     48829      1340  PPPE      H6X           -38.1690445139        4.5791494032      -10.6744463703  MEMB      80              0.0000000000
     48830      1340  PPPE      H6Y           -36.9945139477        3.1996057275      -10.9430851924  MEMB      80              0.0000000000
     48831      1340  PPPE      C37           -37.9211849950        3.2399999720       -8.9534392135  MEMB      80              0.0000000000
     48832      1340  PPPE      H7X           -37.0550043939        3.8812657302       -8.6835681447  MEMB      80              0.0000000000
     48833      1340  PPPE      H7Y           -37.6086788608        2.1984301916       -8.7258577805  MEMB      80              0.0000000000
     48834      1340  PPPE      C38           -39.1259924748        3.6115618412       -8.1800440498  MEMB      80              0.0000000000
     48835      1340  PPPE      H8X           -39.8688630538        2.8060918222       -8.3635715726  MEMB      80              0.0000000000
     48836      1340  PPPE      H8Y           -39.6883497151        4.5394592398       -8.4189619272  MEMB      80              0.0000000000
     48837      1340  PPPE      C39           -39.0978832804        3.6130157146       -6.6486562212  MEMB      80              0.0000000000
     48838      1340  PPPE      H9X           -38.6236178027        4.5485352626       -6.2823279095  MEMB      80              0.0000000000
     48839      1340  PPPE      H9Y           -38.3980897533        2.8458566057       -6.2535905037  MEMB      80              0.0000000000
     48840      1340  PPPE      C310          -40.4796963105        3.5608618922       -6.0586611980  MEMB      80              0.0000000000
     48841      1340  PPPE      H10X          -40.9020496967        2.6054770878       -6.4370505380  MEMB      80              0.0000000000
     48842      1340  PPPE      H10Y          -41.1360228636        4.3499456192       -6.4839885161  MEMB      80              0.0000000000
     48843      1340  PPPE      C311          -40.5053544457        3.5927267859       -4.5101669123  MEMB      80              0.0000000000
     48844      1340  PPPE      H11X          -39.7469307712        2.8294604237       -4.2335101027  MEMB      80              0.0000000000
     48845      1340  PPPE      H11Y          -41.5056005316        3.2480024275       -4.1710594304  MEMB      80              0.0000000000
     48846      1340  PPPE      C312          -40.1998760763        5.0433157330       -4.0810681795  MEMB      80              0.0000000000
     48847      1340  PPPE      H12X          -40.7957538711        5.7643683638       -4.6805127200  MEMB      80              0.0000000000
     48848      1340  PPPE      H12Y          -39.1379602580        5.3211666241       -4.2526918297  MEMB      80              0.0000000000
     48849      1340  PPPE      C313          -40.5889183060        5.1374379495       -2.6425487515  MEMB      80              0.0000000000
     48850      1340  PPPE      H13X          -41.5897628610        4.6690037885       -2.7574426743  MEMB      80              0.0000000000
     48851      1340  PPPE      H13Y          -40.5806287516        6.1977872467       -2.3110194898  MEMB      80              0.0000000000
     48852      1340  PPPE      C314          -39.7197593413        4.3225068712       -1.6190934053  MEMB      80              0.0000000000
     48853      1340  PPPE      H14X          -39.1547698630        5.0730320798       -1.0259494087  MEMB      80              0.0000000000
     48854      1340  PPPE      H14Y          -38.9801692036        3.6982578363       -2.1646578566  MEMB      80              0.0000000000
     48855      1340  PPPE      C315          -40.4429162362        3.2879106089       -0.7296065356  MEMB      80              0.0000000000
     48856      1340  PPPE      H15X          -39.8113164111        2.6210332856       -0.1045646998  MEMB      80              0.0000000000
     48857      1340  PPPE      H15Y          -41.0191182449        2.6014312012       -1.3861568141  MEMB      80              0.0000000000
     48858      1340  PPPE      C316          -41.3676993806        4.0073913776        0.3212100051  MEMB      80              0.0000000000
     48859      1340  PPPE      H16X          -42.0067084513        3.2614873665        0.8404552397  MEMB      80              0.0000000000
     48860      1340  PPPE      H16Y          -40.7136084153        4.5344370851        1.0483336750  MEMB      80              0.0000000000
     48861      1340  PPPE      H16Z          -42.0491841472        4.7483078628       -0.1488349658  MEMB      80              0.0000000000
     48862      1341  PPPE      N              33.9676541800       21.6474141207      -20.1513371608  MEMB      81              0.0000000000
     48863      1341  PPPE      HN1            34.6743774065       22.2443637623      -19.6761599238  MEMB      81              0.0000000000
     48864      1341  PPPE      HN2            33.3912502205       22.2111930612      -20.8082327245  MEMB      81              0.0000000000
     48865      1341  PPPE      HN3            33.2563026011       21.2048873291      -19.5350994064  MEMB      81              0.0000000000
     48866      1341  PPPE      C12            34.6490205565       20.6169268235      -20.9932019472  MEMB      81              0.0000000000
     48867      1341  PPPE      H12A           35.5157161751       21.1555670100      -21.4325497072  MEMB      81              0.0000000000
     48868      1341  PPPE      H12B           33.8987354896       20.2456545695      -21.7236471757  MEMB      81              0.0000000000
     48869      1341  PPPE      C11            35.1510216326       19.4761715595      -20.0841607872  MEMB      81              0.0000000000
     48870      1341  PPPE      H11A           35.4081806273       18.6099925445      -20.7306313323  MEMB      81              0.0000000000
     48871      1341  PPPE      H11B           34.2302239283       19.2850065432      -19.4926301252  MEMB      81              0.0000000000
     48872      1341  PPPE      P              36.7876108488       18.9212920645      -18.1997534745  MEMB      81              0.0000000000
     48873      1341  PPPE      O13            36.3920096188       17.5293958400      -18.5240882309  MEMB      81              0.0000000000
     48874      1341  PPPE      O14            38.2246529841       19.1912842434      -17.9561443366  MEMB      81              0.0000000000
     48875      1341  PPPE      O11            35.9490017078       19.2130703290      -16.8335545421  MEMB      81              0.0000000000
     48876      1341  PPPE      O12            36.1957372703       19.9334202085      -19.2577596289  MEMB      81              0.0000000000
     48877      1341  PPPE      C1             35.8059821977       20.5864044195      -16.4671201546  MEMB      81              0.0000000000
     48878      1341  PPPE      HA             35.0037929557       20.5821980005      -15.6984877807  MEMB      81              0.0000000000
     48879      1341  PPPE      HB             35.5588108786       21.1820551093      -17.3717900363  MEMB      81              0.0000000000
     48880      1341  PPPE      C2             37.1261009350       21.2435722366      -15.8964057469  MEMB      81              0.0000000000
     48881      1341  PPPE      HS             37.8330140556       21.3839362381      -16.7419190743  MEMB      81              0.0000000000
     48882      1341  PPPE      O21            37.6785039144       20.3498104359      -14.9543636933  MEMB      81              0.0000000000
     48883      1341  PPPE      C21            39.0020669799       20.4313588131      -14.6838281602  MEMB      81              0.0000000000
     48884      1341  PPPE      O22            39.8245024692       21.0617172627      -15.4003910060  MEMB      81              0.0000000000
     48885      1341  PPPE      C22            39.3123219565       19.6530612109      -13.4223963736  MEMB      81              0.0000000000
     48886      1341  PPPE      H2R            39.7111770156       18.6325279073      -13.6061010769  MEMB      81              0.0000000000
     48887      1341  PPPE      H2S            38.4130194889       19.4745606470      -12.7949303423  MEMB      81              0.0000000000
     48888      1341  PPPE      C3             36.8899261735       22.6044322783      -15.2471677336  MEMB      81              0.0000000000
     48889      1341  PPPE      HX             37.7578431171       23.1340640151      -14.7993604064  MEMB      81              0.0000000000
     48890      1341  PPPE      HY             36.6242453996       23.3425337140      -16.0338957661  MEMB      81              0.0000000000
     48891      1341  PPPE      O31            35.7711418683       22.6197337060      -14.3656127868  MEMB      81              0.0000000000
     48892      1341  PPPE      C31            35.9605890806       22.3186718748      -13.1226082884  MEMB      81              0.0000000000
     48893      1341  PPPE      O32            37.1153368855       22.1453494014      -12.6603171874  MEMB      81              0.0000000000
     48894      1341  PPPE      C32            34.6788725420       22.1827455760      -12.3557712121  MEMB      81              0.0000000000
     48895      1341  PPPE      H2X            33.8551821491       22.6054296970      -12.9699318348  MEMB      81              0.0000000000
     48896      1341  PPPE      H2Y            34.7757618928       22.7318424951      -11.3948206270  MEMB      81              0.0000000000
     48897      1341  PPPE      C23            40.3464504535       20.4793315471      -12.5932002097  MEMB      81              0.0000000000
     48898      1341  PPPE      H3R            39.9280485863       21.5051016399      -12.5091966736  MEMB      81              0.0000000000
     48899      1341  PPPE      H3S            41.3039639763       20.6524522901      -13.1294073171  MEMB      81              0.0000000000
     48900      1341  PPPE      C24            40.6995090267       19.8583196648      -11.2209258746  MEMB      81              0.0000000000
     48901      1341  PPPE      H4R            41.5543040251       20.4700896506      -10.8612260064  MEMB      81              0.0000000000
     48902      1341  PPPE      H4S            40.9554199598       18.7992754894      -11.4383103932  MEMB      81              0.0000000000
     48903      1341  PPPE      C25            39.5467676768       19.8062709003      -10.1518047038  MEMB      81              0.0000000000
     48904      1341  PPPE      H5R            39.9502982385       19.0597101133       -9.4347753620  MEMB      81              0.0000000000
     48905      1341  PPPE      H5S            38.6329239330       19.4895011629      -10.6984924987  MEMB      81              0.0000000000
     48906      1341  PPPE      C26            39.2695708944       21.1560746040       -9.5209289626  MEMB      81              0.0000000000
     48907      1341  PPPE      H6R            38.8227020131       21.8174623906      -10.2937131490  MEMB      81              0.0000000000
     48908      1341  PPPE      H6S            40.1904262354       21.5794728046       -9.0658680822  MEMB      81              0.0000000000
     48909      1341  PPPE      C27            38.3287866171       21.0305478133       -8.2697179591  MEMB      81              0.0000000000
     48910      1341  PPPE      H7R            37.3741663746       20.5121692706       -8.5027520314  MEMB      81              0.0000000000
     48911      1341  PPPE      H7S            38.1228697337       22.0466984183       -7.8705222865  MEMB      81              0.0000000000
     48912      1341  PPPE      C28            38.8434184667       20.1878186209       -7.1288429848  MEMB      81              0.0000000000
     48913      1341  PPPE      H8R            39.0462565111       19.1966720600       -7.5879793725  MEMB      81              0.0000000000
     48914      1341  PPPE      H8S            37.9737581901       20.1642426905       -6.4378609454  MEMB      81              0.0000000000
     48915      1341  PPPE      C29            40.0590153719       20.6131168155       -6.3555688996  MEMB      81              0.0000000000
     48916      1341  PPPE      H91            40.9977834497       20.4574417445       -6.9073657539  MEMB      81              0.0000000000
     48917      1341  PPPE      C210           40.1599014765       21.3086911215       -5.2025994838  MEMB      81              0.0000000000
     48918      1341  PPPE      H101           41.1480275216       21.3851584991       -4.7253577641  MEMB      81              0.0000000000
     48919      1341  PPPE      C211           39.1595516298       21.9144429816       -4.2921045033  MEMB      81              0.0000000000
     48920      1341  PPPE      H11R           38.1716981744       21.8326877839       -4.7938839751  MEMB      81              0.0000000000
     48921      1341  PPPE      H11S           39.3967157035       22.9979634179       -4.2284046889  MEMB      81              0.0000000000
     48922      1341  PPPE      C212           39.2780393811       21.4829465611       -2.7227532980  MEMB      81              0.0000000000
     48923      1341  PPPE      H12R           40.3128870832       21.6043159373       -2.3371619234  MEMB      81              0.0000000000
     48924      1341  PPPE      H12S           39.0439797841       20.3968849637       -2.7254573416  MEMB      81              0.0000000000
     48925      1341  PPPE      C213           38.3220802049       22.3601124826       -1.9047628425  MEMB      81              0.0000000000
     48926      1341  PPPE      H13R           37.2936009019       22.2846082104       -2.3181034142  MEMB      81              0.0000000000
     48927      1341  PPPE      H13S           38.4919725941       23.4579144913       -1.9217429972  MEMB      81              0.0000000000
     48928      1341  PPPE      C214           38.2522960882       21.9449746966       -0.4235076290  MEMB      81              0.0000000000
     48929      1341  PPPE      H14R           39.2774073971       21.7337611100       -0.0508729215  MEMB      81              0.0000000000
     48930      1341  PPPE      H14S           37.6320032306       21.0668755983       -0.1433295702  MEMB      81              0.0000000000
     48931      1341  PPPE      C215           37.7084593456       23.0371837823        0.4557182627  MEMB      81              0.0000000000
     48932      1341  PPPE      H15R           38.2018611864       24.0166030991        0.2779166168  MEMB      81              0.0000000000
     48933      1341  PPPE      H15S           37.9063628714       22.7829250108        1.5189716057  MEMB      81              0.0000000000
     48934      1341  PPPE      C216           36.2482234418       23.1932032113        0.2943926500  MEMB      81              0.0000000000
     48935      1341  PPPE      H16R           35.7306888647       22.3720079773        0.8348714646  MEMB      81              0.0000000000
     48936      1341  PPPE      H16S           36.0439830568       24.1848872369        0.7517433455  MEMB      81              0.0000000000
     48937      1341  PPPE      H16T           36.1310142803       23.2286568273       -0.8098383283  MEMB      81              0.0000000000
     48938      1341  PPPE      C33            34.4394170657       20.6095831286      -12.1986156619  MEMB      81              0.0000000000
     48939      1341  PPPE      H3X            35.2675553162       19.9921277040      -11.7896452026  MEMB      81              0.0000000000
     48940      1341  PPPE      H3Y            34.0518013620       20.0708161119      -13.0895731065  MEMB      81              0.0000000000
     48941      1341  PPPE      C34            33.4019061822       20.2021848167      -11.1418809214  MEMB      81              0.0000000000
     48942      1341  PPPE      H4X            32.8778924349       19.2596232991      -11.4089172076  MEMB      81              0.0000000000
     48943      1341  PPPE      H4Y            32.5967245732       20.9527368367      -10.9912979155  MEMB      81              0.0000000000
     48944      1341  PPPE      C35            33.9143873120       19.8963101466       -9.7549515420  MEMB      81              0.0000000000
     48945      1341  PPPE      H5X            34.8154144582       19.2493875994       -9.8178983439  MEMB      81              0.0000000000
     48946      1341  PPPE      H5Y            33.1420326140       19.3238870245       -9.1980664643  MEMB      81              0.0000000000
     48947      1341  PPPE      C36            34.1552122830       21.1762077332       -8.9297374982  MEMB      81              0.0000000000
     48948      1341  PPPE      H6X            33.2177983529       21.7722767363       -8.9464068414  MEMB      81              0.0000000000
     48949      1341  PPPE      H6Y            35.0129377436       21.6705227086       -9.4340000681  MEMB      81              0.0000000000
     48950      1341  PPPE      C37            34.6391657593       20.8695648198       -7.5409520210  MEMB      81              0.0000000000
     48951      1341  PPPE      H7X            35.3250654909       21.6060163581       -7.0703123607  MEMB      81              0.0000000000
     48952      1341  PPPE      H7Y            35.2972328721       19.9747932472       -7.5664962570  MEMB      81              0.0000000000
     48953      1341  PPPE      C38            33.5600893093       20.7151943447       -6.5258101086  MEMB      81              0.0000000000
     48954      1341  PPPE      H8X            33.0300563245       19.7661344947       -6.7553126926  MEMB      81              0.0000000000
     48955      1341  PPPE      H8Y            32.8743343941       21.5648187775       -6.7312353249  MEMB      81              0.0000000000
     48956      1341  PPPE      C39            33.9899985399       20.5359532791       -5.0660749819  MEMB      81              0.0000000000
     48957      1341  PPPE      H9X            33.0720602900       20.3367465554       -4.4727563067  MEMB      81              0.0000000000
     48958      1341  PPPE      H9Y            34.3781040637       21.5140313999       -4.7096226120  MEMB      81              0.0000000000
     48959      1341  PPPE      C310           34.8626871824       19.2528328880       -4.9953001586  MEMB      81              0.0000000000
     48960      1341  PPPE      H10X           35.7704510252       19.3846868551       -5.6221177852  MEMB      81              0.0000000000
     48961      1341  PPPE      H10Y           34.2080810881       18.4120196781       -5.3096964172  MEMB      81              0.0000000000
     48962      1341  PPPE      C311           35.2282731520       18.8450691172       -3.4927643914  MEMB      81              0.0000000000
     48963      1341  PPPE      H11X           34.2825499406       18.5701569598       -2.9786127474  MEMB      81              0.0000000000
     48964      1341  PPPE      H11Y           35.8219569349       19.6440317350       -2.9992876431  MEMB      81              0.0000000000
     48965      1341  PPPE      C312           36.1552346381       17.5958429951       -3.3942797062  MEMB      81              0.0000000000
     48966      1341  PPPE      H12X           37.0641363773       17.6320542997       -4.0321726204  MEMB      81              0.0000000000
     48967      1341  PPPE      H12Y           35.6070363645       16.7182525292       -3.7987974771  MEMB      81              0.0000000000
     48968      1341  PPPE      C313           36.4700934606       17.3846135065       -1.8538243639  MEMB      81              0.0000000000
     48969      1341  PPPE      H13X           36.2133702195       16.3239520482       -1.6454702223  MEMB      81              0.0000000000
     48970      1341  PPPE      H13Y           35.6585280634       17.8349242100       -1.2431666231  MEMB      81              0.0000000000
     48971      1341  PPPE      C314           37.8150525417       17.8694001121       -1.3802377341  MEMB      81              0.0000000000
     48972      1341  PPPE      H14X           37.9766171867       18.9670061105       -1.4392202555  MEMB      81              0.0000000000
     48973      1341  PPPE      H14Y           38.5206292369       17.3820746782       -2.0866345409  MEMB      81              0.0000000000
     48974      1341  PPPE      C315           38.2066682175       17.4157771944        0.0411856741  MEMB      81              0.0000000000
     48975      1341  PPPE      H15X           38.1044833754       16.3175381113        0.1744154545  MEMB      81              0.0000000000
     48976      1341  PPPE      H15Y           37.3326624428       17.7817212799        0.6212889681  MEMB      81              0.0000000000
     48977      1341  PPPE      C316           39.5618797794       17.7743041846        0.4439214331  MEMB      81              0.0000000000
     48978      1341  PPPE      H16X           40.2752346881       17.2355507091       -0.2157682416  MEMB      81              0.0000000000
     48979      1341  PPPE      H16Y           39.7699754782       18.8647888555        0.4007895087  MEMB      81              0.0000000000
     48980      1341  PPPE      H16Z           39.5897060947       17.5181324141        1.5246261662  MEMB      81              0.0000000000
     48981      1342  PPPE      N              21.0956102242      -36.7473861690      -21.2105183827  MEMB      82              0.0000000000
     48982      1342  PPPE      HN1            21.7104243114      -35.9264231644      -21.3826328310  MEMB      82              0.0000000000
     48983      1342  PPPE      HN2            21.2969820205      -37.0772610302      -20.2449967746  MEMB      82              0.0000000000
     48984      1342  PPPE      HN3            21.2853794083      -37.5170948899      -21.8836722595  MEMB      82              0.0000000000
     48985      1342  PPPE      C12            19.6375615934      -36.4150689860      -21.3251792969  MEMB      82              0.0000000000
     48986      1342  PPPE      H12A           19.0318284488      -37.3463540990      -21.3359679795  MEMB      82              0.0000000000
     48987      1342  PPPE      H12B           19.5961210599      -35.8921009399      -22.3045199450  MEMB      82              0.0000000000
     48988      1342  PPPE      C11            19.1780943139      -35.3783345341      -20.2242642929  MEMB      82              0.0000000000
     48989      1342  PPPE      H11A           18.1122903174      -35.1390368924      -20.4270436796  MEMB      82              0.0000000000
     48990      1342  PPPE      H11B           19.8315653662      -34.4870857857      -20.3381600886  MEMB      82              0.0000000000
     48991      1342  PPPE      P              19.6927732867      -35.1380597453      -17.7929897065  MEMB      82              0.0000000000
     48992      1342  PPPE      O13            19.9093532565      -35.9909406664      -16.5886701080  MEMB      82              0.0000000000
     48993      1342  PPPE      O14            20.8784957558      -34.3557940461      -18.2166422583  MEMB      82              0.0000000000
     48994      1342  PPPE      O11            18.4389621291      -34.1505974273      -17.6287610403  MEMB      82              0.0000000000
     48995      1342  PPPE      O12            19.3081063003      -36.1281181923      -19.0129748075  MEMB      82              0.0000000000
     48996      1342  PPPE      C1             17.1124371502      -34.6489753112      -17.6000498087  MEMB      82              0.0000000000
     48997      1342  PPPE      HA             17.1074862859      -35.7506890199      -17.4567899301  MEMB      82              0.0000000000
     48998      1342  PPPE      HB             16.5533445872      -34.5731937324      -18.5571253848  MEMB      82              0.0000000000
     48999      1342  PPPE      C2             16.2900405203      -34.0027413693      -16.4581197037  MEMB      82              0.0000000000
     49000      1342  PPPE      HS             15.8089550635      -33.1214093507      -16.9336527273  MEMB      82              0.0000000000
     49001      1342  PPPE      O21            17.1212847846      -33.6622598282      -15.2833587475  MEMB      82              0.0000000000
     49002      1342  PPPE      C21            17.5087997882      -32.3914620972      -15.2622552035  MEMB      82              0.0000000000
     49003      1342  PPPE      O22            17.3524747709      -31.5781478337      -16.1813596288  MEMB      82              0.0000000000
     49004      1342  PPPE      C22            17.8747530787      -32.0388510506      -13.8121368685  MEMB      82              0.0000000000
     49005      1342  PPPE      H2R            16.9125333698      -32.2075438327      -13.2829894626  MEMB      82              0.0000000000
     49006      1342  PPPE      H2S            18.1642968075      -30.9720422939      -13.9235123851  MEMB      82              0.0000000000
     49007      1342  PPPE      C3             15.0806932103      -34.9835149287      -16.0348561880  MEMB      82              0.0000000000
     49008      1342  PPPE      HX             14.5956430851      -35.1707099098      -17.0166939624  MEMB      82              0.0000000000
     49009      1342  PPPE      HY             15.5330647781      -35.9585796967      -15.7539119535  MEMB      82              0.0000000000
     49010      1342  PPPE      O31            14.1973383055      -34.4454152711      -15.1005461057  MEMB      82              0.0000000000
     49011      1342  PPPE      C31            14.0909876874      -34.7370336432      -13.8050781855  MEMB      82              0.0000000000
     49012      1342  PPPE      O32            14.8977057776      -35.4152449626      -13.1462465749  MEMB      82              0.0000000000
     49013      1342  PPPE      C32            12.9239338164      -34.0137521109      -13.1284273586  MEMB      82              0.0000000000
     49014      1342  PPPE      H2X            12.0324498869      -34.6268682730      -13.3807485334  MEMB      82              0.0000000000
     49015      1342  PPPE      H2Y            12.7871442273      -32.9381989863      -13.3709043361  MEMB      82              0.0000000000
     49016      1342  PPPE      C23            18.9364873295      -33.0213034736      -13.2973867380  MEMB      82              0.0000000000
     49017      1342  PPPE      H3R            19.9058612874      -32.7655918529      -13.7761838731  MEMB      82              0.0000000000
     49018      1342  PPPE      H3S            18.6065832044      -34.0644422967      -13.4906370003  MEMB      82              0.0000000000
     49019      1342  PPPE      C24            19.0895355148      -32.9149297946      -11.7998067506  MEMB      82              0.0000000000
     49020      1342  PPPE      H4R            18.1092451241      -32.9302966966      -11.2772021119  MEMB      82              0.0000000000
     49021      1342  PPPE      H4S            19.5753638085      -31.9655075926      -11.4885362067  MEMB      82              0.0000000000
     49022      1342  PPPE      C25            20.0494465237      -34.0418703713      -11.2707839605  MEMB      82              0.0000000000
     49023      1342  PPPE      H5R            21.0690334624      -33.7720693788      -11.6200272837  MEMB      82              0.0000000000
     49024      1342  PPPE      H5S            19.7453809160      -35.0199706820      -11.7011150985  MEMB      82              0.0000000000
     49025      1342  PPPE      C26            20.1472373687      -34.2004659142       -9.7859660947  MEMB      82              0.0000000000
     49026      1342  PPPE      H6R            20.8703476133      -35.0322881504       -9.6463081495  MEMB      82              0.0000000000
     49027      1342  PPPE      H6S            19.1885321835      -34.5805829375       -9.3727876630  MEMB      82              0.0000000000
     49028      1342  PPPE      C27            20.4737521184      -32.9786972182       -8.8843378032  MEMB      82              0.0000000000
     49029      1342  PPPE      H7R            19.8283021212      -32.1066253374       -9.1235154273  MEMB      82              0.0000000000
     49030      1342  PPPE      H7S            21.5162165562      -32.6200812777       -9.0221184365  MEMB      82              0.0000000000
     49031      1342  PPPE      C28            20.4179107279      -33.1176547325       -7.3109827235  MEMB      82              0.0000000000
     49032      1342  PPPE      H8R            19.4505527003      -32.7677870115       -6.8913018636  MEMB      82              0.0000000000
     49033      1342  PPPE      H8S            21.2087528154      -32.4604297866       -6.8903342205  MEMB      82              0.0000000000
     49034      1342  PPPE      C29            20.7852595648      -34.4854090236       -6.7683957721  MEMB      82              0.0000000000
     49035      1342  PPPE      H91            21.7697573333      -34.7905058679       -7.1526874054  MEMB      82              0.0000000000
     49036      1342  PPPE      C210           20.1184096367      -35.2346045291       -5.8175766052  MEMB      82              0.0000000000
     49037      1342  PPPE      H101           20.4785538909      -36.2521368259       -5.6056234471  MEMB      82              0.0000000000
     49038      1342  PPPE      C211           18.8813379170      -34.8323838344       -5.0411915804  MEMB      82              0.0000000000
     49039      1342  PPPE      H11R           17.9627638418      -35.2958368182       -5.4604218276  MEMB      82              0.0000000000
     49040      1342  PPPE      H11S           18.7616278561      -33.7346952830       -5.1639529152  MEMB      82              0.0000000000
     49041      1342  PPPE      C212           19.0020765288      -35.0070581762       -3.4792883271  MEMB      82              0.0000000000
     49042      1342  PPPE      H12R           18.1415318969      -34.5543911157       -2.9418160312  MEMB      82              0.0000000000
     49043      1342  PPPE      H12S           19.8777956473      -34.4802652835       -3.0434830110  MEMB      82              0.0000000000
     49044      1342  PPPE      C213           19.0495225558      -36.4822631962       -2.8997928771  MEMB      82              0.0000000000
     49045      1342  PPPE      H13R           19.8828157147      -36.9792518395       -3.4410375536  MEMB      82              0.0000000000
     49046      1342  PPPE      H13S           18.1106646778      -37.0236201559       -3.1443322951  MEMB      82              0.0000000000
     49047      1342  PPPE      C214           19.2132933122      -36.4922970956       -1.3388997002  MEMB      82              0.0000000000
     49048      1342  PPPE      H14R           20.2311410153      -36.0916990673       -1.1444047828  MEMB      82              0.0000000000
     49049      1342  PPPE      H14S           19.1429079346      -37.5137360550       -0.9075885008  MEMB      82              0.0000000000
     49050      1342  PPPE      C215           18.2565352129      -35.6124604614       -0.5617321668  MEMB      82              0.0000000000
     49051      1342  PPPE      H15R           17.2208532582      -35.7950281719       -0.9199959241  MEMB      82              0.0000000000
     49052      1342  PPPE      H15S           18.5030891186      -34.5391108716       -0.7082000112  MEMB      82              0.0000000000
     49053      1342  PPPE      C216           18.1939690868      -35.7947124439        0.9433828396  MEMB      82              0.0000000000
     49054      1342  PPPE      H16R           17.4597892320      -36.4994698668        1.3890485393  MEMB      82              0.0000000000
     49055      1342  PPPE      H16S           19.2012139713      -36.1482033063        1.2513161974  MEMB      82              0.0000000000
     49056      1342  PPPE      H16T           17.7848618969      -34.8978590742        1.4558341449  MEMB      82              0.0000000000
     49057      1342  PPPE      C33            13.1296411414      -34.0525902178      -11.6572809563  MEMB      82              0.0000000000
     49058      1342  PPPE      H3X            13.5240485128      -34.9883446030      -11.2065842114  MEMB      82              0.0000000000
     49059      1342  PPPE      H3Y            12.1534261076      -33.8243331017      -11.1785076314  MEMB      82              0.0000000000
     49060      1342  PPPE      C34            14.0644621869      -33.0440542302      -11.0734601253  MEMB      82              0.0000000000
     49061      1342  PPPE      H4X            13.7737740734      -31.9851480861      -11.2423956122  MEMB      82              0.0000000000
     49062      1342  PPPE      H4Y            15.1305651843      -33.1162399692      -11.3776551583  MEMB      82              0.0000000000
     49063      1342  PPPE      C35            14.1044263533      -33.0846433746       -9.5211064746  MEMB      82              0.0000000000
     49064      1342  PPPE      H5X            13.0568276997      -33.1625006547       -9.1594487568  MEMB      82              0.0000000000
     49065      1342  PPPE      H5Y            14.5171174227      -32.1064411016       -9.1938032599  MEMB      82              0.0000000000
     49066      1342  PPPE      C36            14.9067828534      -34.3248886018       -8.8789946613  MEMB      82              0.0000000000
     49067      1342  PPPE      H6X            14.9747702168      -35.1839634258       -9.5802001698  MEMB      82              0.0000000000
     49068      1342  PPPE      H6Y            14.1437502318      -34.7156218284       -8.1722912130  MEMB      82              0.0000000000
     49069      1342  PPPE      C37            16.2733444579      -34.0106449262       -8.2978152385  MEMB      82              0.0000000000
     49070      1342  PPPE      H7X            16.9885508666      -33.9752847800       -9.1472564977  MEMB      82              0.0000000000
     49071      1342  PPPE      H7Y            16.5215971153      -34.9209454842       -7.7112621615  MEMB      82              0.0000000000
     49072      1342  PPPE      C38            16.4141103359      -32.7517367761       -7.3366982564  MEMB      82              0.0000000000
     49073      1342  PPPE      H8X            16.6601215270      -31.8027951543       -7.8594881686  MEMB      82              0.0000000000
     49074      1342  PPPE      H8Y            17.3034301346      -33.0225987350       -6.7283684981  MEMB      82              0.0000000000
     49075      1342  PPPE      C39            15.2119406737      -32.5223724196       -6.3211918071  MEMB      82              0.0000000000
     49076      1342  PPPE      H9X            14.1829617871      -32.6660941332       -6.7147239151  MEMB      82              0.0000000000
     49077      1342  PPPE      H9Y            15.2420797718      -31.4395328159       -6.0744712619  MEMB      82              0.0000000000
     49078      1342  PPPE      C310           15.3607454776      -33.2904812270       -4.9871590886  MEMB      82              0.0000000000
     49079      1342  PPPE      H10X           14.6805565744      -32.8299179184       -4.2391313519  MEMB      82              0.0000000000
     49080      1342  PPPE      H10Y           16.3431386141      -33.0686397997       -4.5181056735  MEMB      82              0.0000000000
     49081      1342  PPPE      C311           15.2337309177      -34.8191415414       -4.9605353457  MEMB      82              0.0000000000
     49082      1342  PPPE      H11X           15.7271737781      -35.1342654692       -4.0163255948  MEMB      82              0.0000000000
     49083      1342  PPPE      H11Y           15.8372063719      -35.2493954334       -5.7881946746  MEMB      82              0.0000000000
     49084      1342  PPPE      C312           13.8074415814      -35.4442040354       -4.9901845642  MEMB      82              0.0000000000
     49085      1342  PPPE      H12X           13.9145724984      -36.5281806067       -5.2089052981  MEMB      82              0.0000000000
     49086      1342  PPPE      H12Y           13.2711345380      -34.9226296516       -5.8115589717  MEMB      82              0.0000000000
     49087      1342  PPPE      C313           13.0806906177      -35.4020950435       -3.6328384681  MEMB      82              0.0000000000
     49088      1342  PPPE      H13X           12.0638853293      -35.8290083134       -3.7676459811  MEMB      82              0.0000000000
     49089      1342  PPPE      H13Y           12.8024285543      -34.3493400385       -3.4123886472  MEMB      82              0.0000000000
     49090      1342  PPPE      C314           13.8018986836      -36.1340568679       -2.3963148351  MEMB      82              0.0000000000
     49091      1342  PPPE      H14X           14.7647844708      -35.5808332074       -2.3629150997  MEMB      82              0.0000000000
     49092      1342  PPPE      H14Y           13.8376254135      -37.2310629106       -2.5684262611  MEMB      82              0.0000000000
     49093      1342  PPPE      C315           13.2115846507      -35.9091845251       -1.0662843069  MEMB      82              0.0000000000
     49094      1342  PPPE      H15X           13.4665650880      -36.7846891586       -0.4316209212  MEMB      82              0.0000000000
     49095      1342  PPPE      H15Y           12.1015254057      -35.8670937789       -1.0841124170  MEMB      82              0.0000000000
     49096      1342  PPPE      C316           13.7537919988      -34.6446331388       -0.3924010301  MEMB      82              0.0000000000
     49097      1342  PPPE      H16X           13.3342884382      -33.8018051818       -0.9822983072  MEMB      82              0.0000000000
     49098      1342  PPPE      H16Y           13.4134491382      -34.7102036048        0.6631501299  MEMB      82              0.0000000000
     49099      1342  PPPE      H16Z           14.8632321976      -34.6023432993       -0.3514740877  MEMB      82              0.0000000000
     49100      1343  PPPE      N              33.7707730994      -19.1545215026      -21.4715537551  MEMB      83              0.0000000000
     49101      1343  PPPE      HN1            33.8144094355      -19.2573454867      -22.5055378452  MEMB      83              0.0000000000
     49102      1343  PPPE      HN2            33.0181310499      -19.7951604741      -21.1479619546  MEMB      83              0.0000000000
     49103      1343  PPPE      HN3            33.3988586586      -18.1892244216      -21.3644034227  MEMB      83              0.0000000000
     49104      1343  PPPE      C12            34.9648816883      -19.4239997538      -20.6298917476  MEMB      83              0.0000000000
     49105      1343  PPPE      H12A           35.8365299226      -18.7976756952      -20.9167166581  MEMB      83              0.0000000000
     49106      1343  PPPE      H12B           35.2773308089      -20.4762976925      -20.8012556739  MEMB      83              0.0000000000
     49107      1343  PPPE      C11            34.7138325873      -19.3470445302      -19.0721873529  MEMB      83              0.0000000000
     49108      1343  PPPE      H11A           34.1141693491      -20.2338154759      -18.7749293999  MEMB      83              0.0000000000
     49109      1343  PPPE      H11B           34.1710912969      -18.4583425728      -18.6849384373  MEMB      83              0.0000000000
     49110      1343  PPPE      P              36.7016380886      -20.8572014577      -18.1922273699  MEMB      83              0.0000000000
     49111      1343  PPPE      O13            35.7834889164      -21.9527117362      -18.5321067920  MEMB      83              0.0000000000
     49112      1343  PPPE      O14            37.9403740195      -20.7609204879      -19.0549909409  MEMB      83              0.0000000000
     49113      1343  PPPE      O11            36.9477452414      -20.7350946061      -16.6001741651  MEMB      83              0.0000000000
     49114      1343  PPPE      O12            35.9692863615      -19.4835643069      -18.4468678340  MEMB      83              0.0000000000
     49115      1343  PPPE      C1             38.1052627449      -21.3385597104      -16.1113622087  MEMB      83              0.0000000000
     49116      1343  PPPE      HA             38.9692126674      -20.6828653597      -16.3521452020  MEMB      83              0.0000000000
     49117      1343  PPPE      HB             38.2129846389      -22.3217395304      -16.6174001869  MEMB      83              0.0000000000
     49118      1343  PPPE      C2             38.1178198022      -21.5751251520      -14.5946745180  MEMB      83              0.0000000000
     49119      1343  PPPE      HS             37.4508964680      -22.4249290621      -14.3351218631  MEMB      83              0.0000000000
     49120      1343  PPPE      O21            37.6814146625      -20.3229303777      -13.9885602424  MEMB      83              0.0000000000
     49121      1343  PPPE      C21            36.6498307059      -20.4587729151      -13.1683267496  MEMB      83              0.0000000000
     49122      1343  PPPE      O22            36.1388087091      -21.4804248474      -12.8022562611  MEMB      83              0.0000000000
     49123      1343  PPPE      C22            36.1638898700      -19.0694224761      -12.7481922058  MEMB      83              0.0000000000
     49124      1343  PPPE      H2R            35.3688140151      -19.1351900312      -11.9749845924  MEMB      83              0.0000000000
     49125      1343  PPPE      H2S            35.7781122639      -18.5859779051      -13.6711103959  MEMB      83              0.0000000000
     49126      1343  PPPE      C3             39.4968976340      -22.0580442635      -13.9607492833  MEMB      83              0.0000000000
     49127      1343  PPPE      HX             39.7513422436      -23.0194102320      -14.4560819144  MEMB      83              0.0000000000
     49128      1343  PPPE      HY             40.2415681984      -21.2478057600      -14.1133937002  MEMB      83              0.0000000000
     49129      1343  PPPE      O31            39.3226667703      -22.1323150695      -12.5491940651  MEMB      83              0.0000000000
     49130      1343  PPPE      C31            38.7337883535      -23.2364573899      -12.0695379862  MEMB      83              0.0000000000
     49131      1343  PPPE      O32            38.2316185322      -24.1208554165      -12.7395879034  MEMB      83              0.0000000000
     49132      1343  PPPE      C32            38.7654438202      -23.2359275719      -10.5067403010  MEMB      83              0.0000000000
     49133      1343  PPPE      H2X            39.3730873499      -22.3676918990      -10.1731879702  MEMB      83              0.0000000000
     49134      1343  PPPE      H2Y            39.3692635667      -24.1183299182      -10.2049310682  MEMB      83              0.0000000000
     49135      1343  PPPE      C23            37.2691058638      -18.2475276426      -12.0414851474  MEMB      83              0.0000000000
     49136      1343  PPPE      H3R            36.9260304253      -17.2509394279      -11.6901559939  MEMB      83              0.0000000000
     49137      1343  PPPE      H3S            38.1459701229      -18.0583551311      -12.6969573680  MEMB      83              0.0000000000
     49138      1343  PPPE      C24            38.0188062329      -18.7712711748      -10.7933831709  MEMB      83              0.0000000000
     49139      1343  PPPE      H4R            38.7030676334      -18.0540363213      -10.2917044883  MEMB      83              0.0000000000
     49140      1343  PPPE      H4S            38.6507990274      -19.6464603821      -11.0559664132  MEMB      83              0.0000000000
     49141      1343  PPPE      C25            37.0348135004      -19.2029932184       -9.7586619073  MEMB      83              0.0000000000
     49142      1343  PPPE      H5R            36.5172796059      -20.1531772048      -10.0109119024  MEMB      83              0.0000000000
     49143      1343  PPPE      H5S            36.2048907017      -18.4903866873       -9.5643912713  MEMB      83              0.0000000000
     49144      1343  PPPE      C26            37.7310261214      -19.4457465411       -8.3477953207  MEMB      83              0.0000000000
     49145      1343  PPPE      H6R            38.4488201764      -18.6016732386       -8.2663523676  MEMB      83              0.0000000000
     49146      1343  PPPE      H6S            38.3346075797      -20.3764004300       -8.4101953383  MEMB      83              0.0000000000
     49147      1343  PPPE      C27            36.8528419779      -19.2940171490       -7.1351577333  MEMB      83              0.0000000000
     49148      1343  PPPE      H7R            36.0512713346      -20.0607382819       -7.1979606647  MEMB      83              0.0000000000
     49149      1343  PPPE      H7S            36.4345771215      -18.2676558025       -7.2123451438  MEMB      83              0.0000000000
     49150      1343  PPPE      C28            37.8221272888      -19.2883057894       -5.9488965009  MEMB      83              0.0000000000
     49151      1343  PPPE      H8R            38.4137551166      -18.3479722973       -5.9405038305  MEMB      83              0.0000000000
     49152      1343  PPPE      H8S            38.5707076842      -20.1054633213       -6.0276490220  MEMB      83              0.0000000000
     49153      1343  PPPE      C29            37.2087911431      -19.3619280037       -4.5850079554  MEMB      83              0.0000000000
     49154      1343  PPPE      H91            36.6830691337      -18.5000702966       -4.1481811459  MEMB      83              0.0000000000
     49155      1343  PPPE      C210           37.0098722594      -20.4669661947       -3.8471781196  MEMB      83              0.0000000000
     49156      1343  PPPE      H101           36.5561806791      -20.2556463751       -2.8676333866  MEMB      83              0.0000000000
     49157      1343  PPPE      C211           37.4162189677      -21.8743120982       -4.2148101994  MEMB      83              0.0000000000
     49158      1343  PPPE      H11R           38.2864025099      -21.9469053926       -4.9017103497  MEMB      83              0.0000000000
     49159      1343  PPPE      H11S           36.6784424760      -22.5387673022       -4.7133140913  MEMB      83              0.0000000000
     49160      1343  PPPE      C212           37.8172532627      -22.7003063127       -2.9493580886  MEMB      83              0.0000000000
     49161      1343  PPPE      H12R           38.7065635397      -22.2159102368       -2.4924022124  MEMB      83              0.0000000000
     49162      1343  PPPE      H12S           38.0482044594      -23.7286255650       -3.3008435935  MEMB      83              0.0000000000
     49163      1343  PPPE      C213           36.8364663070      -22.8383443049       -1.7375156841  MEMB      83              0.0000000000
     49164      1343  PPPE      H13R           36.7602330263      -21.7784564902       -1.4132514289  MEMB      83              0.0000000000
     49165      1343  PPPE      H13S           37.3490627289      -23.3108745405       -0.8724832658  MEMB      83              0.0000000000
     49166      1343  PPPE      C214           35.4165755170      -23.3183030933       -2.0532116506  MEMB      83              0.0000000000
     49167      1343  PPPE      H14R           35.1712645625      -22.8730683437       -3.0410929963  MEMB      83              0.0000000000
     49168      1343  PPPE      H14S           34.8644247090      -22.7465397591       -1.2769789697  MEMB      83              0.0000000000
     49169      1343  PPPE      C215           35.0733356129      -24.8086808300       -2.1277814534  MEMB      83              0.0000000000
     49170      1343  PPPE      H15R           35.6151867532      -25.2573464412       -2.9876753486  MEMB      83              0.0000000000
     49171      1343  PPPE      H15S           33.9863539118      -24.9814515456       -2.2792478241  MEMB      83              0.0000000000
     49172      1343  PPPE      C216           35.5174662921      -25.5927005246       -0.9060336695  MEMB      83              0.0000000000
     49173      1343  PPPE      H16R           35.0646385124      -26.6045382960       -0.8321938001  MEMB      83              0.0000000000
     49174      1343  PPPE      H16S           36.6181553533      -25.6784052941       -1.0303690349  MEMB      83              0.0000000000
     49175      1343  PPPE      H16T           35.3092290311      -25.0005763412        0.0106708601  MEMB      83              0.0000000000
     49176      1343  PPPE      C33            37.3598192329      -23.2435695520       -9.9714075018  MEMB      83              0.0000000000
     49177      1343  PPPE      H3X            36.7677406703      -24.0393054786      -10.4719754900  MEMB      83              0.0000000000
     49178      1343  PPPE      H3Y            36.8284350916      -22.3209119606      -10.2886690082  MEMB      83              0.0000000000
     49179      1343  PPPE      C34            37.1869785712      -23.4727921029       -8.4733059491  MEMB      83              0.0000000000
     49180      1343  PPPE      H4X            36.7877704531      -22.5296260831       -8.0427345408  MEMB      83              0.0000000000
     49181      1343  PPPE      H4Y            38.1651687904      -23.8301041899       -8.0862749846  MEMB      83              0.0000000000
     49182      1343  PPPE      C35            36.0575832002      -24.4524399459       -7.9441679830  MEMB      83              0.0000000000
     49183      1343  PPPE      H5X            36.0932892513      -24.5462494033       -6.8377115385  MEMB      83              0.0000000000
     49184      1343  PPPE      H5Y            36.2138097538      -25.4762324059       -8.3463660224  MEMB      83              0.0000000000
     49185      1343  PPPE      C36            34.7102524450      -23.8546613858       -8.3087767070  MEMB      83              0.0000000000
     49186      1343  PPPE      H6X            33.9605199269      -24.6697802915       -8.2204402984  MEMB      83              0.0000000000
     49187      1343  PPPE      H6Y            34.7750787974      -23.6797867617       -9.4040106591  MEMB      83              0.0000000000
     49188      1343  PPPE      C37            34.3511391940      -22.6357587315       -7.4335447464  MEMB      83              0.0000000000
     49189      1343  PPPE      H7X            35.0718600233      -21.8180473759       -7.6485578281  MEMB      83              0.0000000000
     49190      1343  PPPE      H7Y            34.4270158827      -23.0264130923       -6.3962632520  MEMB      83              0.0000000000
     49191      1343  PPPE      C38            32.9722935579      -22.1186474712       -7.7830601714  MEMB      83              0.0000000000
     49192      1343  PPPE      H8X            32.1141687091      -22.7567350736       -7.4817514336  MEMB      83              0.0000000000
     49193      1343  PPPE      H8Y            32.8225695064      -22.2402762088       -8.8771854653  MEMB      83              0.0000000000
     49194      1343  PPPE      C39            32.6714264927      -20.7320236466       -7.2404660616  MEMB      83              0.0000000000
     49195      1343  PPPE      H9X            31.7227187725      -20.3893117800       -7.7061088840  MEMB      83              0.0000000000
     49196      1343  PPPE      H9Y            33.6022756618      -20.1671572219       -7.4612980034  MEMB      83              0.0000000000
     49197      1343  PPPE      C310           32.4617179273      -20.7273692568       -5.7580052018  MEMB      83              0.0000000000
     49198      1343  PPPE      H10X           33.2192212515      -21.4085372512       -5.3146995769  MEMB      83              0.0000000000
     49199      1343  PPPE      H10Y           31.5200824204      -21.3000698563       -5.6177996540  MEMB      83              0.0000000000
     49200      1343  PPPE      C311           32.5088157160      -19.2902063194       -5.1122383127  MEMB      83              0.0000000000
     49201      1343  PPPE      H11X           31.4365043766      -19.1202539053       -4.8764723944  MEMB      83              0.0000000000
     49202      1343  PPPE      H11Y           32.8402337414      -18.6271911795       -5.9398215514  MEMB      83              0.0000000000
     49203      1343  PPPE      C312           33.2829506926      -19.1342122492       -3.7967559416  MEMB      83              0.0000000000
     49204      1343  PPPE      H12X           33.6087990587      -18.0762802887       -3.7022900252  MEMB      83              0.0000000000
     49205      1343  PPPE      H12Y           34.2717568233      -19.6198824909       -3.9406581739  MEMB      83              0.0000000000
     49206      1343  PPPE      C313           32.4548122295      -19.5938805463       -2.5563280690  MEMB      83              0.0000000000
     49207      1343  PPPE      H13X           31.3689668954      -19.3614725465       -2.5916470712  MEMB      83              0.0000000000
     49208      1343  PPPE      H13Y           32.8838707068      -18.9430178185       -1.7647426140  MEMB      83              0.0000000000
     49209      1343  PPPE      C314           32.7013524150      -21.0486695413       -2.1903423060  MEMB      83              0.0000000000
     49210      1343  PPPE      H14X           33.7919675843      -21.2333330750       -2.2941639407  MEMB      83              0.0000000000
     49211      1343  PPPE      H14Y           32.2720337086      -21.6313516864       -3.0332467881  MEMB      83              0.0000000000
     49212      1343  PPPE      C315           32.0963823390      -21.5799419803       -0.9242147411  MEMB      83              0.0000000000
     49213      1343  PPPE      H15X           32.4610670505      -22.6053504939       -0.7009135062  MEMB      83              0.0000000000
     49214      1343  PPPE      H15Y           30.9909537726      -21.5747409135       -1.0352175943  MEMB      83              0.0000000000
     49215      1343  PPPE      C316           32.3436699893      -20.8171717774        0.4034950360  MEMB      83              0.0000000000
     49216      1343  PPPE      H16X           31.9197896984      -19.7928697143        0.3296588490  MEMB      83              0.0000000000
     49217      1343  PPPE      H16Y           31.8669726573      -21.1510854830        1.3498471326  MEMB      83              0.0000000000
     49218      1343  PPPE      H16Z           33.4493987584      -20.7467964396        0.4855450275  MEMB      83              0.0000000000
     49219      1344  PPPE      N             -38.9365555060      -18.3816008587      -21.0471275077  MEMB      84              0.0000000000
     49220      1344  PPPE      HN1           -38.9665221909      -17.4674467162      -21.5421267013  MEMB      84              0.0000000000
     49221      1344  PPPE      HN2           -38.0225581670      -18.7820843420      -21.3400811625  MEMB      84              0.0000000000
     49222      1344  PPPE      HN3           -39.6561946710      -19.1054227830      -21.2466301248  MEMB      84              0.0000000000
     49223      1344  PPPE      C12           -38.9802655347      -18.0337163378      -19.6173383631  MEMB      84              0.0000000000
     49224      1344  PPPE      H12A          -39.8156033350      -18.5458159977      -19.0936154422  MEMB      84              0.0000000000
     49225      1344  PPPE      H12B          -39.2797830382      -16.9638527604      -19.6188185556  MEMB      84              0.0000000000
     49226      1344  PPPE      C11           -37.6208397374      -18.4650232085      -18.9657845126  MEMB      84              0.0000000000
     49227      1344  PPPE      H11A          -37.2919317198      -19.4840390218      -19.2620062000  MEMB      84              0.0000000000
     49228      1344  PPPE      H11B          -37.8297516514      -18.5903341837      -17.8818223492  MEMB      84              0.0000000000
     49229      1344  PPPE      P             -36.2831806474      -16.2845973683      -18.4711512929  MEMB      84              0.0000000000
     49230      1344  PPPE      O13           -35.2892336741      -16.6655513992      -17.4641613746  MEMB      84              0.0000000000
     49231      1344  PPPE      O14           -36.0997552520      -15.0994694201      -19.2710013091  MEMB      84              0.0000000000
     49232      1344  PPPE      O11           -37.5802924144      -16.1147429012      -17.6991364988  MEMB      84              0.0000000000
     49233      1344  PPPE      O12           -36.6360132868      -17.5593551569      -19.4642994551  MEMB      84              0.0000000000
     49234      1344  PPPE      C1            -37.9707658272      -14.7801698058      -17.3023060724  MEMB      84              0.0000000000
     49235      1344  PPPE      HA            -38.6293773932      -14.4083412915      -18.1161213838  MEMB      84              0.0000000000
     49236      1344  PPPE      HB            -37.1984485708      -14.0452601322      -16.9896483890  MEMB      84              0.0000000000
     49237      1344  PPPE      C2            -38.8205989277      -14.7677812391      -16.0007167650  MEMB      84              0.0000000000
     49238      1344  PPPE      HS            -38.9399535168      -13.6992271227      -15.7209533250  MEMB      84              0.0000000000
     49239      1344  PPPE      O21           -38.0882451318      -15.4483865836      -14.9241606284  MEMB      84              0.0000000000
     49240      1344  PPPE      C21           -38.5492910519      -15.3166191358      -13.7430617346  MEMB      84              0.0000000000
     49241      1344  PPPE      O22           -39.4103615948      -14.5405690619      -13.4146073710  MEMB      84              0.0000000000
     49242      1344  PPPE      C22           -37.8105303691      -16.3499137953      -12.7354688882  MEMB      84              0.0000000000
     49243      1344  PPPE      H2R           -36.9596712174      -16.8902334139      -13.2028171670  MEMB      84              0.0000000000
     49244      1344  PPPE      H2S           -38.4934545845      -17.1166804232      -12.3111995702  MEMB      84              0.0000000000
     49245      1344  PPPE      C3            -40.2265420942      -15.4456271661      -16.1768836644  MEMB      84              0.0000000000
     49246      1344  PPPE      HX            -40.9884843454      -15.0054025608      -15.4986747712  MEMB      84              0.0000000000
     49247      1344  PPPE      HY            -40.4589869702      -15.2589257119      -17.2471326759  MEMB      84              0.0000000000
     49248      1344  PPPE      O31           -40.2182854269      -16.8506754454      -15.9075449913  MEMB      84              0.0000000000
     49249      1344  PPPE      C31           -41.3084521593      -17.5123583495      -16.1469703190  MEMB      84              0.0000000000
     49250      1344  PPPE      O32           -42.3465486254      -17.0981932539      -16.6963181866  MEMB      84              0.0000000000
     49251      1344  PPPE      C32           -41.3037946056      -18.8945451522      -15.4145790186  MEMB      84              0.0000000000
     49252      1344  PPPE      H2X           -40.3426911768      -18.9677595445      -14.8620929540  MEMB      84              0.0000000000
     49253      1344  PPPE      H2Y           -41.1340547718      -19.6326743222      -16.2273980127  MEMB      84              0.0000000000
     49254      1344  PPPE      C23           -37.2353890104      -15.5646683940      -11.5733844310  MEMB      84              0.0000000000
     49255      1344  PPPE      H3R           -38.1878862555      -15.3348678159      -11.0496844287  MEMB      84              0.0000000000
     49256      1344  PPPE      H3S           -36.6158726284      -14.7017582591      -11.8988172990  MEMB      84              0.0000000000
     49257      1344  PPPE      C24           -36.3845732075      -16.3831609050      -10.6111449471  MEMB      84              0.0000000000
     49258      1344  PPPE      H4R           -35.4870455118      -16.8412117196      -11.0790706749  MEMB      84              0.0000000000
     49259      1344  PPPE      H4S           -37.1189585608      -17.1968849806      -10.4298929630  MEMB      84              0.0000000000
     49260      1344  PPPE      C25           -36.0264552797      -15.7286543596       -9.3115375299  MEMB      84              0.0000000000
     49261      1344  PPPE      H5R           -35.4701933047      -14.7959373070       -9.5459143959  MEMB      84              0.0000000000
     49262      1344  PPPE      H5S           -35.2897937804      -16.3611809763       -8.7715737214  MEMB      84              0.0000000000
     49263      1344  PPPE      C26           -37.2175708799      -15.4123693826       -8.3702541293  MEMB      84              0.0000000000
     49264      1344  PPPE      H6R           -38.0648644866      -15.0255553737       -8.9758855903  MEMB      84              0.0000000000
     49265      1344  PPPE      H6S           -36.9824201397      -14.4945802866       -7.7900056439  MEMB      84              0.0000000000
     49266      1344  PPPE      C27           -37.4462119229      -16.5969700889       -7.5485208831  MEMB      84              0.0000000000
     49267      1344  PPPE      H7R           -36.4722311308      -16.9955116366       -7.1923649462  MEMB      84              0.0000000000
     49268      1344  PPPE      H7S           -37.8003627635      -17.4410319128       -8.1781698485  MEMB      84              0.0000000000
     49269      1344  PPPE      C28           -38.4791840209      -16.3487310567       -6.4859753152  MEMB      84              0.0000000000
     49270      1344  PPPE      H8R           -38.6541630133      -17.2953173185       -5.9312881951  MEMB      84              0.0000000000
     49271      1344  PPPE      H8S           -39.4768896506      -16.1651582193       -6.9389714409  MEMB      84              0.0000000000
     49272      1344  PPPE      C29           -37.9939411670      -15.2363886556       -5.5918872776  MEMB      84              0.0000000000
     49273      1344  PPPE      H91           -38.1985053287      -14.2513452632       -6.0366827573  MEMB      84              0.0000000000
     49274      1344  PPPE      C210          -37.5599663514      -15.3804227898       -4.3234631771  MEMB      84              0.0000000000
     49275      1344  PPPE      H101          -37.2324093041      -14.5047477057       -3.7438947792  MEMB      84              0.0000000000
     49276      1344  PPPE      C211          -37.5590525873      -16.6970217517       -3.5289519455  MEMB      84              0.0000000000
     49277      1344  PPPE      H11R          -36.6222599409      -16.5916721313       -2.9410386908  MEMB      84              0.0000000000
     49278      1344  PPPE      H11S          -37.4339610498      -17.6306195228       -4.1180769823  MEMB      84              0.0000000000
     49279      1344  PPPE      C212          -38.7027331403      -16.7426009490       -2.5079169504  MEMB      84              0.0000000000
     49280      1344  PPPE      H12R          -38.7950638960      -15.8857784628       -1.8067384719  MEMB      84              0.0000000000
     49281      1344  PPPE      H12S          -38.4670095656      -17.6530251148       -1.9164076651  MEMB      84              0.0000000000
     49282      1344  PPPE      C213          -40.0272922998      -17.0150723123       -3.1263338815  MEMB      84              0.0000000000
     49283      1344  PPPE      H13R          -40.0986369756      -18.0237051453       -3.5866498007  MEMB      84              0.0000000000
     49284      1344  PPPE      H13S          -40.2513724745      -16.1796413251       -3.8235885990  MEMB      84              0.0000000000
     49285      1344  PPPE      C214          -41.2856763419      -17.0807341175       -2.1083580533  MEMB      84              0.0000000000
     49286      1344  PPPE      H14R          -40.9658664183      -17.7116177067       -1.2516034154  MEMB      84              0.0000000000
     49287      1344  PPPE      H14S          -42.1346001921      -17.5035398215       -2.6870502282  MEMB      84              0.0000000000
     49288      1344  PPPE      C215          -41.8067910090      -15.7538642095       -1.5614591243  MEMB      84              0.0000000000
     49289      1344  PPPE      H15R          -42.0707983695      -15.0492161475       -2.3788282101  MEMB      84              0.0000000000
     49290      1344  PPPE      H15S          -40.8886324302      -15.3615605642       -1.0742182453  MEMB      84              0.0000000000
     49291      1344  PPPE      C216          -42.9913199528      -15.8201275616       -0.6037656322  MEMB      84              0.0000000000
     49292      1344  PPPE      H16R          -43.8208622910      -16.4174362649       -1.0389699774  MEMB      84              0.0000000000
     49293      1344  PPPE      H16S          -42.6575124097      -16.2299054249        0.3734629117  MEMB      84              0.0000000000
     49294      1344  PPPE      H16T          -43.3535485390      -14.7728340459       -0.5244703393  MEMB      84              0.0000000000
     49295      1344  PPPE      C33           -42.5256869327      -19.1328224279      -14.5842641721  MEMB      84              0.0000000000
     49296      1344  PPPE      H3X           -42.5365136898      -20.1640103933      -14.1709178747  MEMB      84              0.0000000000
     49297      1344  PPPE      H3Y           -43.4299694520      -19.0176587553      -15.2193479883  MEMB      84              0.0000000000
     49298      1344  PPPE      C34           -42.6726024274      -18.2739308530      -13.2906572853  MEMB      84              0.0000000000
     49299      1344  PPPE      H4X           -43.7401979616      -18.4409681989      -13.0324726605  MEMB      84              0.0000000000
     49300      1344  PPPE      H4Y           -42.5177772002      -17.1778938916      -13.3858052155  MEMB      84              0.0000000000
     49301      1344  PPPE      C35           -41.9466181309      -18.6129208443      -11.9876453578  MEMB      84              0.0000000000
     49302      1344  PPPE      H5X           -40.8516234836      -18.4615498914      -12.0989762027  MEMB      84              0.0000000000
     49303      1344  PPPE      H5Y           -42.2703625611      -19.6418377042      -11.7214863086  MEMB      84              0.0000000000
     49304      1344  PPPE      C36           -42.3962720038      -17.6608162219      -10.8263443217  MEMB      84              0.0000000000
     49305      1344  PPPE      H6X           -43.4293667430      -17.2831511827      -10.9825665283  MEMB      84              0.0000000000
     49306      1344  PPPE      H6Y           -41.9101700625      -16.6622008735      -10.8545097049  MEMB      84              0.0000000000
     49307      1344  PPPE      C37           -42.2895040698      -18.3093321149       -9.4154422961  MEMB      84              0.0000000000
     49308      1344  PPPE      H7X           -43.1188242468      -19.0166135660       -9.2002633171  MEMB      84              0.0000000000
     49309      1344  PPPE      H7Y           -42.3827503294      -17.5166595315       -8.6425928214  MEMB      84              0.0000000000
     49310      1344  PPPE      C38           -40.9352882097      -19.0309193781       -9.1905401767  MEMB      84              0.0000000000
     49311      1344  PPPE      H8X           -40.0951844364      -18.3660543050       -9.4846508444  MEMB      84              0.0000000000
     49312      1344  PPPE      H8Y           -40.8334641946      -19.9852080500       -9.7502597499  MEMB      84              0.0000000000
     49313      1344  PPPE      C39           -40.6894890881      -19.2399380453       -7.6754629654  MEMB      84              0.0000000000
     49314      1344  PPPE      H9X           -41.4358884905      -19.9075050616       -7.1942528131  MEMB      84              0.0000000000
     49315      1344  PPPE      H9Y           -40.7180342280      -18.2871606120       -7.1047429485  MEMB      84              0.0000000000
     49316      1344  PPPE      C310          -39.3309206178      -19.9354608436       -7.3123404941  MEMB      84              0.0000000000
     49317      1344  PPPE      H10X          -38.5982219412      -19.1703101295       -7.6470314472  MEMB      84              0.0000000000
     49318      1344  PPPE      H10Y          -39.1083224890      -20.9037060514       -7.8096053035  MEMB      84              0.0000000000
     49319      1344  PPPE      C311          -38.9720750820      -20.0117911768       -5.8030010070  MEMB      84              0.0000000000
     49320      1344  PPPE      H11X          -39.6527582963      -19.3168207284       -5.2663377627  MEMB      84              0.0000000000
     49321      1344  PPPE      H11Y          -37.8888775559      -19.7815101530       -5.7136994414  MEMB      84              0.0000000000
     49322      1344  PPPE      C312          -39.0525256578      -21.5142794230       -5.2469822956  MEMB      84              0.0000000000
     49323      1344  PPPE      H12X          -38.6069315147      -22.0258433381       -6.1267943325  MEMB      84              0.0000000000
     49324      1344  PPPE      H12Y          -40.1203482358      -21.7910314682       -5.1147542827  MEMB      84              0.0000000000
     49325      1344  PPPE      C313          -38.1652133743      -21.7976720784       -4.0167302952  MEMB      84              0.0000000000
     49326      1344  PPPE      H13X          -37.0837275569      -21.8245155017       -4.2696904847  MEMB      84              0.0000000000
     49327      1344  PPPE      H13Y          -38.4608820958      -22.7944462553       -3.6251409089  MEMB      84              0.0000000000
     49328      1344  PPPE      C314          -38.3875844004      -20.8160819701       -2.8466406414  MEMB      84              0.0000000000
     49329      1344  PPPE      H14X          -39.4868109045      -20.8358312691       -2.6865404921  MEMB      84              0.0000000000
     49330      1344  PPPE      H14Y          -38.0153784661      -19.8415396121       -3.2288067507  MEMB      84              0.0000000000
     49331      1344  PPPE      C315          -37.5294802244      -21.3113989185       -1.6934313441  MEMB      84              0.0000000000
     49332      1344  PPPE      H15X          -36.4574919410      -21.2794526048       -1.9835029790  MEMB      84              0.0000000000
     49333      1344  PPPE      H15Y          -37.7228029478      -22.3568559044       -1.3709921792  MEMB      84              0.0000000000
     49334      1344  PPPE      C316          -37.7049303781      -20.5322831727       -0.3440815880  MEMB      84              0.0000000000
     49335      1344  PPPE      H16X          -38.7821799341      -20.2705502881       -0.2709359041  MEMB      84              0.0000000000
     49336      1344  PPPE      H16Y          -37.4664476093      -21.2338190384        0.4837435132  MEMB      84              0.0000000000
     49337      1344  PPPE      H16Z          -37.0388290043      -19.6494664154       -0.2379470835  MEMB      84              0.0000000000
     49338      1345  PVPG      C13           -38.9997620494       12.5085414162      -21.5330957088  MEMB      85              0.0000000000
     49339      1345  PVPG      H13A          -40.0375451654       12.1699886075      -21.7397575200  MEMB      85              0.0000000000
     49340      1345  PVPG      H13B          -38.6287883060       12.5541805880      -22.5793348811  MEMB      85              0.0000000000
     49341      1345  PVPG      OC3           -38.2625909572       11.4854120637      -20.8588326460  MEMB      85              0.0000000000
     49342      1345  PVPG      HO3           -38.7266386630       11.5437177154      -20.0204649954  MEMB      85              0.0000000000
     49343      1345  PVPG      C12           -39.0549596072       13.9539680430      -20.8837926646  MEMB      85              0.0000000000
     49344      1345  PVPG      H12A          -39.6638269370       14.5978071145      -21.5602029429  MEMB      85              0.0000000000
     49345      1345  PVPG      OC2           -37.7416691479       14.5105974710      -20.8098146981  MEMB      85              0.0000000000
     49346      1345  PVPG      HO2           -37.8768340864       15.3259040565      -20.2790393681  MEMB      85              0.0000000000
     49347      1345  PVPG      C11           -39.7062061941       13.8799417417      -19.5537030680  MEMB      85              0.0000000000
     49348      1345  PVPG      H11A          -39.2809135354       12.9656909810      -19.0872346547  MEMB      85              0.0000000000
     49349      1345  PVPG      H11B          -40.7907282769       13.6401150612      -19.5785200028  MEMB      85              0.0000000000
     49350      1345  PVPG      P             -39.2996061550       14.9402424321      -17.2215661965  MEMB      85              0.0000000000
     49351      1345  PVPG      O13           -37.8781807616       14.5625619844      -16.8777741690  MEMB      85              0.0000000000
     49352      1345  PVPG      O14           -40.3469007543       14.1196583660      -16.6043740620  MEMB      85              0.0000000000
     49353      1345  PVPG      O12           -39.4525440261       15.0137360453      -18.7650657771  MEMB      85              0.0000000000
     49354      1345  PVPG      O11           -39.4738613265       16.4441743804      -16.8919810111  MEMB      85              0.0000000000
     49355      1345  PVPG      C1            -38.6123264550       17.4937662319      -17.3326851508  MEMB      85              0.0000000000
     49356      1345  PVPG      HA            -38.8400303524       17.7059075224      -18.3992065380  MEMB      85              0.0000000000
     49357      1345  PVPG      HB            -37.5892075151       17.0700637390      -17.2431042363  MEMB      85              0.0000000000
     49358      1345  PVPG      C2            -38.6108569200       18.7306052665      -16.3765211528  MEMB      85              0.0000000000
     49359      1345  PVPG      HS            -37.9342218943       19.5139108963      -16.7801525582  MEMB      85              0.0000000000
     49360      1345  PVPG      O21           -38.2812301386       18.4394844554      -15.0068064777  MEMB      85              0.0000000000
     49361      1345  PVPG      C21           -36.9580818019       18.1749178751      -14.7848120899  MEMB      85              0.0000000000
     49362      1345  PVPG      O22           -36.0922203138       18.3430847018      -15.6090884452  MEMB      85              0.0000000000
     49363      1345  PVPG      C22           -36.7053704621       17.8757097425      -13.3263113372  MEMB      85              0.0000000000
     49364      1345  PVPG      H2R           -35.8173510348       17.2359309795      -13.1354560231  MEMB      85              0.0000000000
     49365      1345  PVPG      H2S           -37.5843981495       17.4925929619      -12.7651939745  MEMB      85              0.0000000000
     49366      1345  PVPG      C3            -40.0057374997       19.4516502434      -16.3644690003  MEMB      85              0.0000000000
     49367      1345  PVPG      HX            -39.7805466632       20.3540482289      -15.7567784353  MEMB      85              0.0000000000
     49368      1345  PVPG      HY            -40.2702374311       19.6512706472      -17.4248993254  MEMB      85              0.0000000000
     49369      1345  PVPG      O31           -40.9710413964       18.5519696054      -15.8611828384  MEMB      85              0.0000000000
     49370      1345  PVPG      C31           -41.4435910661       18.6063909724      -14.5944472949  MEMB      85              0.0000000000
     49371      1345  PVPG      O32           -41.0026297495       19.2888252907      -13.6730563204  MEMB      85              0.0000000000
     49372      1345  PVPG      C32           -42.6121027572       17.5522738984      -14.5130696102  MEMB      85              0.0000000000
     49373      1345  PVPG      H2X           -42.5520708002       16.8586105995      -15.3788339309  MEMB      85              0.0000000000
     49374      1345  PVPG      H2Y           -43.5678814795       18.1025207156      -14.3787702478  MEMB      85              0.0000000000
     49375      1345  PVPG      C23           -36.2711462176       19.1389860706      -12.5032423022  MEMB      85              0.0000000000
     49376      1345  PVPG      H3R           -35.6251338106       19.8330780243      -13.0822289542  MEMB      85              0.0000000000
     49377      1345  PVPG      H3S           -35.7968705005       18.7489405502      -11.5773658704  MEMB      85              0.0000000000
     49378      1345  PVPG      C24           -37.4272983337       20.0084311600      -12.0787613493  MEMB      85              0.0000000000
     49379      1345  PVPG      H4R           -38.2341744409       19.3779464267      -11.6477615521  MEMB      85              0.0000000000
     49380      1345  PVPG      H4S           -37.7441540818       20.6187471851      -12.9513654341  MEMB      85              0.0000000000
     49381      1345  PVPG      C25           -37.0511430973       20.9501870411      -10.8773846824  MEMB      85              0.0000000000
     49382      1345  PVPG      H5R           -36.1246349374       21.5538253329      -10.9847379178  MEMB      85              0.0000000000
     49383      1345  PVPG      H5S           -36.7904569219       20.2251730220      -10.0769360370  MEMB      85              0.0000000000
     49384      1345  PVPG      C26           -38.2333338877       21.8007378435      -10.4200486123  MEMB      85              0.0000000000
     49385      1345  PVPG      H6R           -38.8762482163       22.0519589969      -11.2906054455  MEMB      85              0.0000000000
     49386      1345  PVPG      H6S           -37.8726198912       22.7081155440       -9.8900742107  MEMB      85              0.0000000000
     49387      1345  PVPG      C27           -39.2280138299       21.0528084388       -9.4258199294  MEMB      85              0.0000000000
     49388      1345  PVPG      H7R           -39.3861509395       20.1511604891      -10.0553789475  MEMB      85              0.0000000000
     49389      1345  PVPG      H7S           -40.1485615365       21.6543644423       -9.5840704896  MEMB      85              0.0000000000
     49390      1345  PVPG      C28           -38.7239840156       20.6130798365       -8.0654167891  MEMB      85              0.0000000000
     49391      1345  PVPG      H8R           -37.7492749377       20.0810090548       -8.0995307575  MEMB      85              0.0000000000
     49392      1345  PVPG      H8S           -39.4455204263       20.0118928322       -7.4718848508  MEMB      85              0.0000000000
     49393      1345  PVPG      C29           -38.4417505044       21.8055630751       -7.1022321582  MEMB      85              0.0000000000
     49394      1345  PVPG      H9R           -39.2699035735       22.5356444509       -6.9778743345  MEMB      85              0.0000000000
     49395      1345  PVPG      H9S           -37.5567264524       22.3707326046       -7.4650507883  MEMB      85              0.0000000000
     49396      1345  PVPG      C210          -38.2396627976       21.3143112621       -5.5813455105  MEMB      85              0.0000000000
     49397      1345  PVPG      H10R          -39.0244165145       20.6523923865       -5.1566739534  MEMB      85              0.0000000000
     49398      1345  PVPG      H10S          -38.2079274936       22.2417802369       -4.9705148879  MEMB      85              0.0000000000
     49399      1345  PVPG      C211          -36.8666143391       20.6976414415       -5.3981789283  MEMB      85              0.0000000000
     49400      1345  PVPG      H111          -36.7748587752       19.8324485661       -6.0712477358  MEMB      85              0.0000000000
     49401      1345  PVPG      C212          -35.9159499706       20.8236349388       -4.4884407428  MEMB      85              0.0000000000
     49402      1345  PVPG      H121          -34.8933699890       20.4621725516       -4.6719486648  MEMB      85              0.0000000000
     49403      1345  PVPG      C213          -35.9082767476       21.6746480418       -3.2309076897  MEMB      85              0.0000000000
     49404      1345  PVPG      H13R          -36.7978209648       22.3174307360       -3.0581005397  MEMB      85              0.0000000000
     49405      1345  PVPG      H13S          -34.9365451381       22.2128553853       -3.2111154866  MEMB      85              0.0000000000
     49406      1345  PVPG      C214          -35.8625678197       20.8759054273       -1.9791278187  MEMB      85              0.0000000000
     49407      1345  PVPG      H14R          -35.8324589541       21.4679944285       -1.0395301579  MEMB      85              0.0000000000
     49408      1345  PVPG      H14S          -35.0327164616       20.1376608812       -2.0048737415  MEMB      85              0.0000000000
     49409      1345  PVPG      C215          -37.2012960702       20.1178621103       -1.6920662947  MEMB      85              0.0000000000
     49410      1345  PVPG      H15R          -37.6142209725       19.5885834279       -2.5773216023  MEMB      85              0.0000000000
     49411      1345  PVPG      H15S          -37.8588668321       20.9620689073       -1.3933417195  MEMB      85              0.0000000000
     49412      1345  PVPG      C216          -37.0536633368       19.0380584240       -0.6675345095  MEMB      85              0.0000000000
     49413      1345  PVPG      H16R          -36.7377589438       19.4223505684        0.3258665729  MEMB      85              0.0000000000
     49414      1345  PVPG      H16S          -36.0816669592       18.5765028775       -0.9441399564  MEMB      85              0.0000000000
     49415      1345  PVPG      C217          -38.2455056751       18.0804935221       -0.6432166565  MEMB      85              0.0000000000
     49416      1345  PVPG      H17R          -38.8172286580       18.2380514118       -1.5826997472  MEMB      85              0.0000000000
     49417      1345  PVPG      H17S          -38.9095809224       18.4387074329        0.1722631035  MEMB      85              0.0000000000
     49418      1345  PVPG      C218          -37.8685241479       16.6706282633       -0.3016256775  MEMB      85              0.0000000000
     49419      1345  PVPG      H18R          -38.7097880984       15.9616068031       -0.4561721616  MEMB      85              0.0000000000
     49420      1345  PVPG      H18S          -37.0388338214       16.3266417169       -0.9555430656  MEMB      85              0.0000000000
     49421      1345  PVPG      H18T          -37.5575366333       16.5747813883        0.7606462641  MEMB      85              0.0000000000
     49422      1345  PVPG      C33           -42.4853750768       16.7014040110      -13.2280751678  MEMB      85              0.0000000000
     49423      1345  PVPG      H3X           -43.4325177723       16.1465785261      -13.0565794582  MEMB      85              0.0000000000
     49424      1345  PVPG      H3Y           -42.4787643459       17.3395020303      -12.3186202383  MEMB      85              0.0000000000
     49425      1345  PVPG      C34           -41.2971502044       15.6501578536      -13.2462392636  MEMB      85              0.0000000000
     49426      1345  PVPG      H4X           -40.3819137045       16.1662868998      -12.8853044697  MEMB      85              0.0000000000
     49427      1345  PVPG      H4Y           -41.1722117344       15.3231359273      -14.3006437239  MEMB      85              0.0000000000
     49428      1345  PVPG      C35           -41.6137953359       14.4678473188      -12.4168890379  MEMB      85              0.0000000000
     49429      1345  PVPG      H5X           -40.7192618261       13.8131549220      -12.3426664162  MEMB      85              0.0000000000
     49430      1345  PVPG      H5Y           -42.5376970676       14.0503492792      -12.8712251609  MEMB      85              0.0000000000
     49431      1345  PVPG      C36           -41.9778436870       14.7434216251      -10.9594299247  MEMB      85              0.0000000000
     49432      1345  PVPG      H6X           -42.8337736428       14.0962863269      -10.6714701225  MEMB      85              0.0000000000
     49433      1345  PVPG      H6Y           -42.4307670772       15.7572105021      -10.9218340062  MEMB      85              0.0000000000
     49434      1345  PVPG      C37           -40.7567932170       14.6428720179       -9.9549979083  MEMB      85              0.0000000000
     49435      1345  PVPG      H7X           -40.0304197634       15.4434103563      -10.2115932795  MEMB      85              0.0000000000
     49436      1345  PVPG      H7Y           -40.2326678511       13.6673494778      -10.0442697883  MEMB      85              0.0000000000
     49437      1345  PVPG      C38           -41.2108192995       14.8792986715       -8.5147397515  MEMB      85              0.0000000000
     49438      1345  PVPG      H8X           -41.5075015080       13.9287033466       -8.0221249717  MEMB      85              0.0000000000
     49439      1345  PVPG      H8Y           -41.9993761995       15.6617525371       -8.4984553361  MEMB      85              0.0000000000
     49440      1345  PVPG      C39           -39.9835268806       15.2781696721       -7.6454040809  MEMB      85              0.0000000000
     49441      1345  PVPG      H9X           -39.8474561370       16.3430593132       -7.9314387775  MEMB      85              0.0000000000
     49442      1345  PVPG      H9Y           -39.2099143368       14.5892982588       -8.0470266373  MEMB      85              0.0000000000
     49443      1345  PVPG      C310          -40.2572814333       15.0180322210       -6.1245619499  MEMB      85              0.0000000000
     49444      1345  PVPG      H10X          -40.3170496131       13.9377299662       -5.8721816123  MEMB      85              0.0000000000
     49445      1345  PVPG      H10Y          -41.2577445602       15.4328443335       -5.8769217859  MEMB      85              0.0000000000
     49446      1345  PVPG      C311          -39.2335874251       15.6284907160       -5.1800954263  MEMB      85              0.0000000000
     49447      1345  PVPG      H11X          -39.6077023624       15.5426112852       -4.1375106760  MEMB      85              0.0000000000
     49448      1345  PVPG      H11Y          -39.1684234783       16.7320989672       -5.2902012070  MEMB      85              0.0000000000
     49449      1345  PVPG      C312          -37.8278601151       15.0041888612       -5.2096795390  MEMB      85              0.0000000000
     49450      1345  PVPG      H12X          -37.4605518133       15.1355182147       -6.2499471649  MEMB      85              0.0000000000
     49451      1345  PVPG      H12Y          -37.9683353964       13.9035318081       -5.1536291067  MEMB      85              0.0000000000
     49452      1345  PVPG      C313          -36.6994574144       15.6626156264       -4.2876386076  MEMB      85              0.0000000000
     49453      1345  PVPG      H13X          -37.1096849155       15.8616198894       -3.2745091249  MEMB      85              0.0000000000
     49454      1345  PVPG      H13Y          -36.5150439560       16.6803016334       -4.6933818536  MEMB      85              0.0000000000
     49455      1345  PVPG      C314          -35.3789340111       14.8937632350       -4.1610762455  MEMB      85              0.0000000000
     49456      1345  PVPG      H14X          -34.6224899997       15.1634644873       -4.9287834234  MEMB      85              0.0000000000
     49457      1345  PVPG      H14Y          -35.4581546653       13.7855924541       -4.1625994811  MEMB      85              0.0000000000
     49458      1345  PVPG      C315          -34.7017102362       15.2056982743       -2.8189439525  MEMB      85              0.0000000000
     49459      1345  PVPG      H15X          -33.7433266496       14.6589758346       -2.6888791342  MEMB      85              0.0000000000
     49460      1345  PVPG      H15Y          -35.3513020759       14.8380235115       -1.9960418450  MEMB      85              0.0000000000
     49461      1345  PVPG      C316          -34.4673055037       16.7840462323       -2.6435445504  MEMB      85              0.0000000000
     49462      1345  PVPG      H16X          -33.7548440244       17.1537923722       -3.4116632845  MEMB      85              0.0000000000
     49463      1345  PVPG      H16Y          -35.4358527188       17.3089281701       -2.4995419106  MEMB      85              0.0000000000
     49464      1345  PVPG      H16Z          -33.9185527215       16.9246317188       -1.6878094118  MEMB      85              0.0000000000
     49465      1346  PPPE      N              25.1561023490      -31.1466707359      -19.5410493400  MEMB      86              0.0000000000
     49466      1346  PPPE      HN1            24.9440255601      -30.9055430108      -20.5302312524  MEMB      86              0.0000000000
     49467      1346  PPPE      HN2            24.6607452827      -30.5040779117      -18.8904374439  MEMB      86              0.0000000000
     49468      1346  PPPE      HN3            26.1804546931      -31.0343286671      -19.4007584463  MEMB      86              0.0000000000
     49469      1346  PPPE      C12            24.6595475120      -32.6440714253      -19.2916883877  MEMB      86              0.0000000000
     49470      1346  PPPE      H12A           23.6352541803      -32.6483280458      -19.7219511584  MEMB      86              0.0000000000
     49471      1346  PPPE      H12B           24.7200794628      -32.7326586180      -18.1858813556  MEMB      86              0.0000000000
     49472      1346  PPPE      C11            25.5538895327      -33.6673451967      -20.0195642091  MEMB      86              0.0000000000
     49473      1346  PPPE      H11A           25.3937562483      -33.7208334269      -21.1176613544  MEMB      86              0.0000000000
     49474      1346  PPPE      H11B           25.2791598593      -34.6609630329      -19.6053562876  MEMB      86              0.0000000000
     49475      1346  PPPE      P              27.7218721826      -33.9053810907      -18.6357772381  MEMB      86              0.0000000000
     49476      1346  PPPE      O13            29.1180202180      -34.2052323996      -18.9701699291  MEMB      86              0.0000000000
     49477      1346  PPPE      O14            27.5960223577      -32.8580601585      -17.5960089967  MEMB      86              0.0000000000
     49478      1346  PPPE      O11            26.9382977640      -35.1483078649      -18.0436066917  MEMB      86              0.0000000000
     49479      1346  PPPE      O12            26.9905072843      -33.4342175256      -19.9021354793  MEMB      86              0.0000000000
     49480      1346  PPPE      C1             27.1672122094      -35.7703925145      -16.8058230711  MEMB      86              0.0000000000
     49481      1346  PPPE      HA             28.2427241616      -35.7490727764      -16.5280812678  MEMB      86              0.0000000000
     49482      1346  PPPE      HB             26.8991779839      -36.8393946117      -16.9462266694  MEMB      86              0.0000000000
     49483      1346  PPPE      C2             26.2190172890      -35.3290014981      -15.6576163569  MEMB      86              0.0000000000
     49484      1346  PPPE      HS             25.2133886473      -35.0699647247      -16.0524985990  MEMB      86              0.0000000000
     49485      1346  PPPE      O21            26.7083906414      -34.1401805159      -14.9948913931  MEMB      86              0.0000000000
     49486      1346  PPPE      C21            25.7911196233      -33.3567751558      -14.4092310384  MEMB      86              0.0000000000
     49487      1346  PPPE      O22            24.6180419026      -33.6928361471      -14.1242485120  MEMB      86              0.0000000000
     49488      1346  PPPE      C22            26.3384867747      -31.9029253892      -14.3268837896  MEMB      86              0.0000000000
     49489      1346  PPPE      H2R            25.8544208550      -31.3873374449      -15.1837211470  MEMB      86              0.0000000000
     49490      1346  PPPE      H2S            27.4366270299      -31.8228476003      -14.4751960539  MEMB      86              0.0000000000
     49491      1346  PPPE      C3             26.0922252102      -36.4556694599      -14.5745009727  MEMB      86              0.0000000000
     49492      1346  PPPE      HX             25.0811594054      -36.3348666616      -14.1301209301  MEMB      86              0.0000000000
     49493      1346  PPPE      HY             26.1688037925      -37.4780562036      -15.0024987146  MEMB      86              0.0000000000
     49494      1346  PPPE      O31            27.0671830451      -36.3009352692      -13.5811867678  MEMB      86              0.0000000000
     49495      1346  PPPE      C31            26.8102891571      -36.7906776814      -12.3808101545  MEMB      86              0.0000000000
     49496      1346  PPPE      O32            25.7523494950      -37.3108498361      -12.0350870990  MEMB      86              0.0000000000
     49497      1346  PPPE      C32            28.0940206671      -36.4577786269      -11.5119059813  MEMB      86              0.0000000000
     49498      1346  PPPE      H2X            28.2884061067      -35.3639460849      -11.5200097358  MEMB      86              0.0000000000
     49499      1346  PPPE      H2Y            28.9958896742      -36.9394622260      -11.9465716048  MEMB      86              0.0000000000
     49500      1346  PPPE      C23            25.8396462117      -31.2903439686      -13.0031660381  MEMB      86              0.0000000000
     49501      1346  PPPE      H3R            24.7445882319      -31.3646326665      -12.8309736732  MEMB      86              0.0000000000
     49502      1346  PPPE      H3S            26.0235533148      -30.1959280117      -12.9506980429  MEMB      86              0.0000000000
     49503      1346  PPPE      C24            26.5926030432      -31.6928282552      -11.7430753634  MEMB      86              0.0000000000
     49504      1346  PPPE      H4R            26.8216563095      -32.7772525505      -11.8197535804  MEMB      86              0.0000000000
     49505      1346  PPPE      H4S            25.9957172618      -31.5265483957      -10.8209043531  MEMB      86              0.0000000000
     49506      1346  PPPE      C25            28.0056544512      -31.1561491383      -11.8067296657  MEMB      86              0.0000000000
     49507      1346  PPPE      H5R            27.9412822468      -30.0819692068      -12.0829808088  MEMB      86              0.0000000000
     49508      1346  PPPE      H5S            28.5640437503      -31.6510982439      -12.6298625672  MEMB      86              0.0000000000
     49509      1346  PPPE      C26            28.7273792118      -31.1567695911      -10.4539673703  MEMB      86              0.0000000000
     49510      1346  PPPE      H6R            28.1111699879      -30.8253050125       -9.5909850845  MEMB      86              0.0000000000
     49511      1346  PPPE      H6S            29.5713039859      -30.4357165007      -10.5008119695  MEMB      86              0.0000000000
     49512      1346  PPPE      C27            29.1242072229      -32.6272871394      -10.0658089581  MEMB      86              0.0000000000
     49513      1346  PPPE      H7R            29.7049247615      -33.0272512609      -10.9243640477  MEMB      86              0.0000000000
     49514      1346  PPPE      H7S            28.2337776300      -33.2833663640       -9.9608509132  MEMB      86              0.0000000000
     49515      1346  PPPE      C28            30.0064544929      -32.7649407944       -8.7916746293  MEMB      86              0.0000000000
     49516      1346  PPPE      H8R            30.8726068193      -32.1050978150       -9.0123744033  MEMB      86              0.0000000000
     49517      1346  PPPE      H8S            30.2912248856      -33.8371325118       -8.8519385871  MEMB      86              0.0000000000
     49518      1346  PPPE      C29            29.3518186949      -32.4304046678       -7.4871794268  MEMB      86              0.0000000000
     49519      1346  PPPE      H91            29.0824988737      -31.3721996511       -7.3542547242  MEMB      86              0.0000000000
     49520      1346  PPPE      C210           29.1328804860      -33.2639353229       -6.4400387672  MEMB      86              0.0000000000
     49521      1346  PPPE      H101           28.6123410876      -32.8446925567       -5.5663830927  MEMB      86              0.0000000000
     49522      1346  PPPE      C211           29.4560337247      -34.7485057130       -6.3812395454  MEMB      86              0.0000000000
     49523      1346  PPPE      H11R           30.5240741523      -34.8646666631       -6.0981895874  MEMB      86              0.0000000000
     49524      1346  PPPE      H11S           29.3057965078      -35.2070012663       -7.3820050555  MEMB      86              0.0000000000
     49525      1346  PPPE      C212           28.6785166706      -35.5343267157       -5.2871659511  MEMB      86              0.0000000000
     49526      1346  PPPE      H12R           28.9852700696      -36.5921649935       -5.4327734042  MEMB      86              0.0000000000
     49527      1346  PPPE      H12S           27.5770546360      -35.4646284821       -5.4146200306  MEMB      86              0.0000000000
     49528      1346  PPPE      C213           29.0285390321      -35.2018823136       -3.8196223386  MEMB      86              0.0000000000
     49529      1346  PPPE      H13R           28.5489334501      -34.2193963116       -3.6220856551  MEMB      86              0.0000000000
     49530      1346  PPPE      H13S           30.1221146867      -35.0374533173       -3.7129621640  MEMB      86              0.0000000000
     49531      1346  PPPE      C214           28.3820970024      -36.3608633009       -2.8928568282  MEMB      86              0.0000000000
     49532      1346  PPPE      H14R           28.5729653266      -37.3785118651       -3.2956988351  MEMB      86              0.0000000000
     49533      1346  PPPE      H14S           27.2773134196      -36.2923691863       -2.7975531479  MEMB      86              0.0000000000
     49534      1346  PPPE      C215           29.0697441179      -36.3034172290       -1.4736454957  MEMB      86              0.0000000000
     49535      1346  PPPE      H15R           29.3497766752      -35.2483929551       -1.2666997340  MEMB      86              0.0000000000
     49536      1346  PPPE      H15S           30.0148218978      -36.8824983748       -1.5498951942  MEMB      86              0.0000000000
     49537      1346  PPPE      C216           28.4693392878      -37.0846178084       -0.2288127597  MEMB      86              0.0000000000
     49538      1346  PPPE      H16R           27.6056037052      -36.5734496364        0.2476208068  MEMB      86              0.0000000000
     49539      1346  PPPE      H16S           28.0856290356      -38.0616666247       -0.5927675000  MEMB      86              0.0000000000
     49540      1346  PPPE      H16T           29.2276019585      -37.1328694936        0.5817614176  MEMB      86              0.0000000000
     49541      1346  PPPE      C33            27.7576020959      -36.9834359219      -10.1134044529  MEMB      86              0.0000000000
     49542      1346  PPPE      H3X            28.6553854850      -37.0842578198       -9.4667662765  MEMB      86              0.0000000000
     49543      1346  PPPE      H3Y            27.2393959377      -37.9533067696      -10.2719412511  MEMB      86              0.0000000000
     49544      1346  PPPE      C34            27.0243939144      -36.0014652216       -9.2205441284  MEMB      86              0.0000000000
     49545      1346  PPPE      H4X            27.8028574913      -35.2134973220       -9.1343928156  MEMB      86              0.0000000000
     49546      1346  PPPE      H4Y            27.0179469997      -36.5039632480       -8.2296984438  MEMB      86              0.0000000000
     49547      1346  PPPE      C35            25.5596270441      -35.4698153463       -9.5761707686  MEMB      86              0.0000000000
     49548      1346  PPPE      H5X            24.8741510493      -36.3269506109       -9.7486897497  MEMB      86              0.0000000000
     49549      1346  PPPE      H5Y            25.6151033982      -34.9812522359      -10.5724385345  MEMB      86              0.0000000000
     49550      1346  PPPE      C36            24.9685546263      -34.3408969448       -8.7328007067  MEMB      86              0.0000000000
     49551      1346  PPPE      H6X            25.8168230677      -33.6250746364       -8.7813813000  MEMB      86              0.0000000000
     49552      1346  PPPE      H6Y            24.7829006759      -34.7253115980       -7.7070916909  MEMB      86              0.0000000000
     49553      1346  PPPE      C37            23.6652004831      -33.6077996242       -9.2523554982  MEMB      86              0.0000000000
     49554      1346  PPPE      H7X            22.9313700567      -34.4251430773       -9.4189795811  MEMB      86              0.0000000000
     49555      1346  PPPE      H7Y            23.9550110296      -33.1112146366      -10.2030048537  MEMB      86              0.0000000000
     49556      1346  PPPE      C38            23.1461757008      -32.6088455349       -8.1882108757  MEMB      86              0.0000000000
     49557      1346  PPPE      H8X            22.6826834753      -33.0294950935       -7.2703057031  MEMB      86              0.0000000000
     49558      1346  PPPE      H8Y            22.3558230995      -31.9994444202       -8.6763645881  MEMB      86              0.0000000000
     49559      1346  PPPE      C39            24.1320728995      -31.4621782850       -7.7359602291  MEMB      86              0.0000000000
     49560      1346  PPPE      H9X            23.5713108095      -30.7103247316       -7.1404914115  MEMB      86              0.0000000000
     49561      1346  PPPE      H9Y            24.7746886812      -31.0495757255       -8.5428834503  MEMB      86              0.0000000000
     49562      1346  PPPE      C310           25.2296293463      -31.8383061846       -6.6709733931  MEMB      86              0.0000000000
     49563      1346  PPPE      H10X           25.9486777489      -31.0168961818       -6.4646338626  MEMB      86              0.0000000000
     49564      1346  PPPE      H10Y           25.9494634375      -32.6054306726       -7.0282966377  MEMB      86              0.0000000000
     49565      1346  PPPE      C311           24.6265979481      -32.4284171773       -5.4251490788  MEMB      86              0.0000000000
     49566      1346  PPPE      H11X           24.0608404189      -33.3421873798       -5.7066867056  MEMB      86              0.0000000000
     49567      1346  PPPE      H11Y           23.9286998718      -31.6656065893       -5.0184805628  MEMB      86              0.0000000000
     49568      1346  PPPE      C312           25.6740985934      -32.8411417471       -4.4106719469  MEMB      86              0.0000000000
     49569      1346  PPPE      H12X           26.0902980836      -31.8499872271       -4.1301158884  MEMB      86              0.0000000000
     49570      1346  PPPE      H12Y           26.2636507470      -33.5460754416       -5.0350258086  MEMB      86              0.0000000000
     49571      1346  PPPE      C313           25.2316834385      -33.6693345842       -3.1349750422  MEMB      86              0.0000000000
     49572      1346  PPPE      H13X           26.1799001397      -33.9858753315       -2.6501987609  MEMB      86              0.0000000000
     49573      1346  PPPE      H13Y           24.5750569482      -34.4782570597       -3.5207302507  MEMB      86              0.0000000000
     49574      1346  PPPE      C314           24.3834818192      -32.8454540307       -2.2204941614  MEMB      86              0.0000000000
     49575      1346  PPPE      H14X           23.8798175657      -33.5311965952       -1.5060709989  MEMB      86              0.0000000000
     49576      1346  PPPE      H14Y           23.5469581666      -32.2989135537       -2.7061305332  MEMB      86              0.0000000000
     49577      1346  PPPE      C315           25.1594536533      -31.8106781294       -1.3465241129  MEMB      86              0.0000000000
     49578      1346  PPPE      H15X           24.4922284685      -31.2338602292       -0.6709409109  MEMB      86              0.0000000000
     49579      1346  PPPE      H15Y           25.7561524428      -31.0875174838       -1.9426031641  MEMB      86              0.0000000000
     49580      1346  PPPE      C316           26.1783592615      -32.4658411251       -0.3633623206  MEMB      86              0.0000000000
     49581      1346  PPPE      H16X           26.4812764272      -31.6847584616        0.3663445135  MEMB      86              0.0000000000
     49582      1346  PPPE      H16Y           25.5836824202      -33.2245127135        0.1889943353  MEMB      86              0.0000000000
     49583      1346  PPPE      H16Z           27.0640167113      -32.8775321203       -0.8929304520  MEMB      86              0.0000000000
     49584      1347  PPPE      N             -35.7534652356       27.3410821283      -21.6348234562  MEMB      87              0.0000000000
     49585      1347  PPPE      HN1           -36.1415308745       27.7946715765      -20.7832004924  MEMB      87              0.0000000000
     49586      1347  PPPE      HN2           -35.1117149468       28.0277463149      -22.0800749153  MEMB      87              0.0000000000
     49587      1347  PPPE      HN3           -36.4915379732       27.1257010710      -22.3351516893  MEMB      87              0.0000000000
     49588      1347  PPPE      C12           -34.8526838944       26.1637100598      -21.1495653921  MEMB      87              0.0000000000
     49589      1347  PPPE      H12A          -33.9703163079       26.7306505464      -20.7830590114  MEMB      87              0.0000000000
     49590      1347  PPPE      H12B          -34.3788204231       25.6612546959      -22.0198027264  MEMB      87              0.0000000000
     49591      1347  PPPE      C11           -35.3240611582       25.1954628121      -20.1038988049  MEMB      87              0.0000000000
     49592      1347  PPPE      H11A          -34.5952481721       24.5950862774      -19.5184924095  MEMB      87              0.0000000000
     49593      1347  PPPE      H11B          -35.9406804979       24.3842073809      -20.5465795199  MEMB      87              0.0000000000
     49594      1347  PPPE      P             -36.5963377683       25.7022857056      -17.7760588250  MEMB      87              0.0000000000
     49595      1347  PPPE      O13           -37.8430552332       26.4648345008      -17.4807594930  MEMB      87              0.0000000000
     49596      1347  PPPE      O14           -36.6150786325       24.2754120506      -17.4793866588  MEMB      87              0.0000000000
     49597      1347  PPPE      O11           -35.3478984815       26.2821208508      -17.0794294647  MEMB      87              0.0000000000
     49598      1347  PPPE      O12           -36.2557871942       25.8341686978      -19.2960778826  MEMB      87              0.0000000000
     49599      1347  PPPE      C1            -34.7021114398       27.4181698967      -17.6328704340  MEMB      87              0.0000000000
     49600      1347  PPPE      HA            -35.4332421990       28.1680751419      -18.0035602452  MEMB      87              0.0000000000
     49601      1347  PPPE      HB            -33.9987985724       27.0383814938      -18.4045133435  MEMB      87              0.0000000000
     49602      1347  PPPE      C2            -33.9051093691       28.0936922702      -16.4913748601  MEMB      87              0.0000000000
     49603      1347  PPPE      HS            -33.1128357141       28.6727512859      -17.0122530723  MEMB      87              0.0000000000
     49604      1347  PPPE      O21           -33.3049537958       27.0989567132      -15.7536785224  MEMB      87              0.0000000000
     49605      1347  PPPE      C21           -32.2256822064       26.4493184477      -16.1896292002  MEMB      87              0.0000000000
     49606      1347  PPPE      O22           -31.7926388750       26.5199157182      -17.3125153364  MEMB      87              0.0000000000
     49607      1347  PPPE      C22           -31.5429492760       25.7086696079      -14.9933400450  MEMB      87              0.0000000000
     49608      1347  PPPE      H2R           -30.9069985902       26.5062256582      -14.5531218356  MEMB      87              0.0000000000
     49609      1347  PPPE      H2S           -30.8160978819       24.9588977589      -15.3726159674  MEMB      87              0.0000000000
     49610      1347  PPPE      C3            -34.7079874053       29.0598280616      -15.6594559233  MEMB      87              0.0000000000
     49611      1347  PPPE      HX            -34.0724444751       29.8019416589      -15.1306141770  MEMB      87              0.0000000000
     49612      1347  PPPE      HY            -35.3102405100       29.6006528819      -16.4204557338  MEMB      87              0.0000000000
     49613      1347  PPPE      O31           -35.4576293041       28.3889486479      -14.6679647853  MEMB      87              0.0000000000
     49614      1347  PPPE      C31           -36.8106906122       28.4954056385      -14.7219649960  MEMB      87              0.0000000000
     49615      1347  PPPE      O32           -37.4270708005       29.0954648771      -15.5717099048  MEMB      87              0.0000000000
     49616      1347  PPPE      C32           -37.3721413666       27.5592430431      -13.6843201436  MEMB      87              0.0000000000
     49617      1347  PPPE      H2X           -38.1084106738       28.2343271727      -13.1980178455  MEMB      87              0.0000000000
     49618      1347  PPPE      H2Y           -36.5810482819       27.2114095502      -12.9861048527  MEMB      87              0.0000000000
     49619      1347  PPPE      C23           -32.6236223933       25.0283586994      -14.0824688672  MEMB      87              0.0000000000
     49620      1347  PPPE      H3R           -33.2351276779       24.2879075061      -14.6411407900  MEMB      87              0.0000000000
     49621      1347  PPPE      H3S           -33.3405860919       25.7596424610      -13.6517623372  MEMB      87              0.0000000000
     49622      1347  PPPE      C24           -32.0238556505       24.3416064463      -12.8222361939  MEMB      87              0.0000000000
     49623      1347  PPPE      H4R           -31.1174515246       24.8423352088      -12.4197150552  MEMB      87              0.0000000000
     49624      1347  PPPE      H4S           -31.7488460420       23.3306182441      -13.1918218676  MEMB      87              0.0000000000
     49625      1347  PPPE      C25           -33.1138458114       24.1506243899      -11.7379858407  MEMB      87              0.0000000000
     49626      1347  PPPE      H5R           -32.6184962873       23.6536497583      -10.8766113202  MEMB      87              0.0000000000
     49627      1347  PPPE      H5S           -33.8615656430       23.3622785756      -11.9698196835  MEMB      87              0.0000000000
     49628      1347  PPPE      C26           -33.7026795877       25.4596626481      -11.1466605522  MEMB      87              0.0000000000
     49629      1347  PPPE      H6R           -34.3824266048       25.9734470107      -11.8596055863  MEMB      87              0.0000000000
     49630      1347  PPPE      H6S           -32.9005047452       26.2124022228      -10.9910339008  MEMB      87              0.0000000000
     49631      1347  PPPE      C27           -34.2764836713       25.2717971650       -9.6998852232  MEMB      87              0.0000000000
     49632      1347  PPPE      H7R           -33.6112464394       24.7207020098       -9.0012618945  MEMB      87              0.0000000000
     49633      1347  PPPE      H7S           -35.2321193872       24.7162136164       -9.8112777668  MEMB      87              0.0000000000
     49634      1347  PPPE      C28           -34.6859871242       26.6338511527       -9.0439478062  MEMB      87              0.0000000000
     49635      1347  PPPE      H8R           -35.1562809892       27.3219545136       -9.7785622936  MEMB      87              0.0000000000
     49636      1347  PPPE      H8S           -33.7339484502       27.1445463733       -8.7848459822  MEMB      87              0.0000000000
     49637      1347  PPPE      C29           -35.6648823310       26.5627033087       -7.8685372526  MEMB      87              0.0000000000
     49638      1347  PPPE      H91           -36.6120714732       26.0695783536       -8.1324700235  MEMB      87              0.0000000000
     49639      1347  PPPE      C210          -35.5258827249       26.9505165249       -6.5830219900  MEMB      87              0.0000000000
     49640      1347  PPPE      H101          -36.2897151897       26.6084046165       -5.8692157082  MEMB      87              0.0000000000
     49641      1347  PPPE      C211          -34.2896694919       27.6019240567       -5.9855893762  MEMB      87              0.0000000000
     49642      1347  PPPE      H11R          -33.6039962635       28.0630979325       -6.7282143693  MEMB      87              0.0000000000
     49643      1347  PPPE      H11S          -33.6891407338       26.9328981724       -5.3328332373  MEMB      87              0.0000000000
     49644      1347  PPPE      C212          -34.7275758357       28.7556657653       -5.1246233351  MEMB      87              0.0000000000
     49645      1347  PPPE      H12R          -35.3328796153       29.5686818924       -5.5795223475  MEMB      87              0.0000000000
     49646      1347  PPPE      H12S          -33.7952615651       29.2886195231       -4.8398929494  MEMB      87              0.0000000000
     49647      1347  PPPE      C213          -35.4492848994       28.2836490865       -3.8426774235  MEMB      87              0.0000000000
     49648      1347  PPPE      H13R          -34.9975819610       27.3174701380       -3.5315766440  MEMB      87              0.0000000000
     49649      1347  PPPE      H13S          -36.5191393379       28.2514533952       -4.1404960225  MEMB      87              0.0000000000
     49650      1347  PPPE      C214          -35.2872044610       29.3722340519       -2.7448828306  MEMB      87              0.0000000000
     49651      1347  PPPE      H14R          -35.4600345157       30.3733384791       -3.1945946251  MEMB      87              0.0000000000
     49652      1347  PPPE      H14S          -34.2290985658       29.3296857201       -2.4088433179  MEMB      87              0.0000000000
     49653      1347  PPPE      C215          -36.3349556041       29.2177915057       -1.6107673933  MEMB      87              0.0000000000
     49654      1347  PPPE      H15R          -37.2931341549       28.9290440652       -2.0933021385  MEMB      87              0.0000000000
     49655      1347  PPPE      H15S          -36.5030504334       30.1117028549       -0.9728115734  MEMB      87              0.0000000000
     49656      1347  PPPE      C216          -35.9532504703       28.0984297888       -0.6700595705  MEMB      87              0.0000000000
     49657      1347  PPPE      H16R          -34.9227489420       28.1595560810       -0.2593879542  MEMB      87              0.0000000000
     49658      1347  PPPE      H16S          -36.6217941914       27.9710537739        0.2080894168  MEMB      87              0.0000000000
     49659      1347  PPPE      H16T          -35.8588733205       27.1186986509       -1.1853661307  MEMB      87              0.0000000000
     49660      1347  PPPE      C33           -38.0523311497       26.2203882103      -14.2751556551  MEMB      87              0.0000000000
     49661      1347  PPPE      H3X           -37.2836636856       25.5100732849      -14.6478808037  MEMB      87              0.0000000000
     49662      1347  PPPE      H3Y           -38.6879678471       26.4622412913      -15.1536737688  MEMB      87              0.0000000000
     49663      1347  PPPE      C34           -38.8606829495       25.4598956792      -13.1832678322  MEMB      87              0.0000000000
     49664      1347  PPPE      H4X           -39.3243103033       24.5477742626      -13.6161710526  MEMB      87              0.0000000000
     49665      1347  PPPE      H4Y           -39.6796238003       26.0579487659      -12.7294072937  MEMB      87              0.0000000000
     49666      1347  PPPE      C35           -37.9631147997       24.9862874522      -11.9988627836  MEMB      87              0.0000000000
     49667      1347  PPPE      H5X           -37.6777560060       25.9042064962      -11.4418026545  MEMB      87              0.0000000000
     49668      1347  PPPE      H5Y           -37.1076790526       24.3889885566      -12.3806804256  MEMB      87              0.0000000000
     49669      1347  PPPE      C36           -38.8099551513       24.2738713110      -10.9647098831  MEMB      87              0.0000000000
     49670      1347  PPPE      H6X           -39.2136424036       23.3962778174      -11.5135151877  MEMB      87              0.0000000000
     49671      1347  PPPE      H6Y           -39.6712659479       24.9588273187      -10.8120665763  MEMB      87              0.0000000000
     49672      1347  PPPE      C37           -38.1987992026       23.9717410954       -9.5570449829  MEMB      87              0.0000000000
     49673      1347  PPPE      H7X           -37.9213826094       24.9082087128       -9.0275268667  MEMB      87              0.0000000000
     49674      1347  PPPE      H7Y           -37.2709166952       23.3802958347       -9.7104971126  MEMB      87              0.0000000000
     49675      1347  PPPE      C38           -39.1933298466       23.3373788280       -8.5598501099  MEMB      87              0.0000000000
     49676      1347  PPPE      H8X           -39.5462732018       22.3352620113       -8.8846791015  MEMB      87              0.0000000000
     49677      1347  PPPE      H8Y           -40.0327104957       24.0522333183       -8.4229407106  MEMB      87              0.0000000000
     49678      1347  PPPE      C39           -38.5842802673       22.9327754349       -7.1972000691  MEMB      87              0.0000000000
     49679      1347  PPPE      H9X           -37.6995086501       22.2829128050       -7.3680179477  MEMB      87              0.0000000000
     49680      1347  PPPE      H9Y           -39.3842601766       22.3492068411       -6.6934135656  MEMB      87              0.0000000000
     49681      1347  PPPE      C310          -37.9902445810       24.0767427398       -6.3673666350  MEMB      87              0.0000000000
     49682      1347  PPPE      H10X          -38.7718827545       24.8149418660       -6.0873223246  MEMB      87              0.0000000000
     49683      1347  PPPE      H10Y          -37.2607066015       24.6147199343       -7.0097651675  MEMB      87              0.0000000000
     49684      1347  PPPE      C311          -37.1812584322       23.5418641691       -5.1342494123  MEMB      87              0.0000000000
     49685      1347  PPPE      H11X          -36.8050022350       24.4588416845       -4.6323485153  MEMB      87              0.0000000000
     49686      1347  PPPE      H11Y          -36.3248915889       22.8902431585       -5.4105588188  MEMB      87              0.0000000000
     49687      1347  PPPE      C312          -38.1507403844       22.9605402157       -4.0956295328  MEMB      87              0.0000000000
     49688      1347  PPPE      H12X          -38.4615604353       21.9139738084       -4.3015679976  MEMB      87              0.0000000000
     49689      1347  PPPE      H12Y          -38.9686108542       23.6817864245       -4.3082625518  MEMB      87              0.0000000000
     49690      1347  PPPE      C313          -37.6329128500       23.0665892404       -2.6694897112  MEMB      87              0.0000000000
     49691      1347  PPPE      H13X          -38.5673861532       22.9208377005       -2.0865341947  MEMB      87              0.0000000000
     49692      1347  PPPE      H13Y          -37.3215361203       24.1032737366       -2.4191883181  MEMB      87              0.0000000000
     49693      1347  PPPE      C314          -36.6696996038       21.9225735905       -2.2440807634  MEMB      87              0.0000000000
     49694      1347  PPPE      H14X          -35.7234312577       22.0317054031       -2.8159089410  MEMB      87              0.0000000000
     49695      1347  PPPE      H14Y          -37.0818467123       20.9245705175       -2.5057019152  MEMB      87              0.0000000000
     49696      1347  PPPE      C315          -36.2407284749       22.2002504545       -0.7826244380  MEMB      87              0.0000000000
     49697      1347  PPPE      H15X          -35.9949775052       23.2731918070       -0.6318785756  MEMB      87              0.0000000000
     49698      1347  PPPE      H15Y          -35.2865060737       21.6883548645       -0.5341420161  MEMB      87              0.0000000000
     49699      1347  PPPE      C316          -37.2739809598       21.6416799861        0.3107921011  MEMB      87              0.0000000000
     49700      1347  PPPE      H16X          -38.2715415431       21.6754556410       -0.1771147422  MEMB      87              0.0000000000
     49701      1347  PPPE      H16Y          -37.0382920861       20.5874821229        0.5704815697  MEMB      87              0.0000000000
     49702      1347  PPPE      H16Z          -37.4045578569       22.3119906588        1.1871221051  MEMB      87              0.0000000000
     49703      1348  PVCL2     C3            -21.7123073275      -35.4273090308      -17.4101190457  MEMB      88              0.0000000000
     49704      1348  PVCL2     HG31          -21.3322200463      -34.9507916941      -16.4812562465  MEMB      88              0.0000000000
     49705      1348  PVCL2     HG32          -22.8033921982      -35.3974264535      -17.2028470925  MEMB      88              0.0000000000
     49706      1348  PVCL2     P3            -20.5987244767      -37.6355006102      -16.7573449542  MEMB      88              0.0000000000
     49707      1348  PVCL2     OP33          -21.5328249255      -38.1822983759      -15.7180141919  MEMB      88              0.0000000000
     49708      1348  PVCL2     OP34          -19.3779607002      -37.0122092689      -16.2630336360  MEMB      88              0.0000000000
     49709      1348  PVCL2     OP31          -21.3414710867      -36.7468306411      -17.6780833479  MEMB      88              0.0000000000
     49710      1348  PVCL2     OP32          -20.1893702471      -38.8171083472      -17.6781906518  MEMB      88              0.0000000000
     49711      1348  PVCL2     C31           -19.7822832701      -38.6714449724      -19.0215275719  MEMB      88              0.0000000000
     49712      1348  PVCL2     H31J          -20.6471433681      -38.7757083556      -19.7110688873  MEMB      88              0.0000000000
     49713      1348  PVCL2     H31K          -19.3775253563      -37.6597305290      -19.2381511518  MEMB      88              0.0000000000
     49714      1348  PVCL2     C2            -21.3397887569      -34.5141831757      -18.5938382597  MEMB      88              0.0000000000
     49715      1348  PVCL2     HG22          -21.9963692078      -33.6202735007      -18.6582469216  MEMB      88              0.0000000000
     49716      1348  PVCL2     OG12          -19.9093718152      -34.2251155455      -18.4195578120  MEMB      88              0.0000000000
     49717      1348  PVCL2     HO12          -19.8600320531      -33.2689941482      -18.4902505722  MEMB      88              0.0000000000
     49718      1348  PVCL2     C1            -21.4714427402      -35.2873111069      -19.9474259748  MEMB      88              0.0000000000
     49719      1348  PVCL2     HG11          -20.7862900666      -36.1611674975      -19.9119051530  MEMB      88              0.0000000000
     49720      1348  PVCL2     HG12          -21.2599239386      -34.5077442734      -20.7102211671  MEMB      88              0.0000000000
     49721      1348  PVCL2     P1            -23.2623955134      -36.9382820754      -20.9417029245  MEMB      88              0.0000000000
     49722      1348  PVCL2     OP13          -24.1514436292      -36.3846290073      -21.9965893033  MEMB      88              0.0000000000
     49723      1348  PVCL2     OP14          -22.1625402358      -37.8791429033      -21.3910793906  MEMB      88              0.0000000000
     49724      1348  PVCL2     OP11          -22.7708580150      -35.7011432154      -20.0509301009  MEMB      88              0.0000000000
     49725      1348  PVCL2     OP12          -24.0393905622      -37.6895911400      -19.7994531404  MEMB      88              0.0000000000
     49726      1348  PVCL2     C11           -25.3571544171      -38.1359342736      -20.0785446330  MEMB      88              0.0000000000
     49727      1348  PVCL2     H11J          -25.3752230961      -38.7301143888      -21.0171310901  MEMB      88              0.0000000000
     49728      1348  PVCL2     H11K          -25.9592867437      -37.2315022300      -20.3104073114  MEMB      88              0.0000000000
     49729      1348  PVCL2     C12           -25.9055515744      -39.0382150898      -18.9225538360  MEMB      88              0.0000000000
     49730      1348  PVCL2     H12J          -27.0126381928      -38.9554031996      -18.8798642920  MEMB      88              0.0000000000
     49731      1348  PVCL2     O12           -25.4498958028      -38.7453775924      -17.5906833762  MEMB      88              0.0000000000
     49732      1348  PVCL2     CA1           -25.7887512505      -37.4690126368      -17.2360230483  MEMB      88              0.0000000000
     49733      1348  PVCL2     OA1           -26.3674950628      -36.6630002631      -17.9570125532  MEMB      88              0.0000000000
     49734      1348  PVCL2     CA2           -24.9941854108      -37.1064861877      -15.9194711717  MEMB      88              0.0000000000
     49735      1348  PVCL2     H2A           -25.2502273172      -36.0931489768      -15.5427601154  MEMB      88              0.0000000000
     49736      1348  PVCL2     H2B           -23.9410480805      -37.0561827192      -16.2697459247  MEMB      88              0.0000000000
     49737      1348  PVCL2     C13           -25.5871631602      -40.5093219782      -19.2132809442  MEMB      88              0.0000000000
     49738      1348  PVCL2     H13J          -24.5089901261      -40.7590012158      -19.3108721084  MEMB      88              0.0000000000
     49739      1348  PVCL2     H13K          -26.0778383863      -40.6142153816      -20.2045207658  MEMB      88              0.0000000000
     49740      1348  PVCL2     O13           -26.2315804317      -41.4430406419      -18.3120459275  MEMB      88              0.0000000000
     49741      1348  PVCL2     CB1           -25.5649495065      -41.7555729986      -17.1517958319  MEMB      88              0.0000000000
     49742      1348  PVCL2     OB1           -24.4550742428      -41.2641297941      -16.8499573867  MEMB      88              0.0000000000
     49743      1348  PVCL2     CB2           -26.4247369896      -42.5666760894      -16.2295837893  MEMB      88              0.0000000000
     49744      1348  PVCL2     H2D           -26.0148690641      -43.5969239465      -16.2997160811  MEMB      88              0.0000000000
     49745      1348  PVCL2     H2E           -27.4618550855      -42.4965472653      -16.6217435577  MEMB      88              0.0000000000
     49746      1348  PVCL2     C32           -18.6716866537      -39.6613791786      -19.4144605113  MEMB      88              0.0000000000
     49747      1348  PVCL2     H32J          -18.7861869478      -40.0005306706      -20.4662147761  MEMB      88              0.0000000000
     49748      1348  PVCL2     O32           -18.6922805065      -40.8340892431      -18.5397510197  MEMB      88              0.0000000000
     49749      1348  PVCL2     CC1           -19.8244200983      -41.5380259344      -18.7497114914  MEMB      88              0.0000000000
     49750      1348  PVCL2     OC1           -20.5378699014      -41.4305513760      -19.7475522006  MEMB      88              0.0000000000
     49751      1348  PVCL2     CC2           -20.0889163343      -42.5141526287      -17.5320394924  MEMB      88              0.0000000000
     49752      1348  PVCL2     H2R           -19.1771234785      -42.7940547380      -16.9622942809  MEMB      88              0.0000000000
     49753      1348  PVCL2     H2S           -20.5619416084      -43.4597600496      -17.8732061469  MEMB      88              0.0000000000
     49754      1348  PVCL2     C33           -17.2549653859      -39.0113330944      -19.4813725582  MEMB      88              0.0000000000
     49755      1348  PVCL2     H33J          -16.6938585213      -39.6236854246      -20.2192782745  MEMB      88              0.0000000000
     49756      1348  PVCL2     H33K          -17.3813613494      -37.9509784700      -19.7879549121  MEMB      88              0.0000000000
     49757      1348  PVCL2     O33           -16.5620417164      -39.0627289229      -18.1955606719  MEMB      88              0.0000000000
     49758      1348  PVCL2     CD1           -15.8977233572      -40.1849846313      -17.8144929222  MEMB      88              0.0000000000
     49759      1348  PVCL2     OD1           -15.6952581002      -41.1703396103      -18.4814108227  MEMB      88              0.0000000000
     49760      1348  PVCL2     CD2           -15.3956933420      -39.9413603091      -16.3803962617  MEMB      88              0.0000000000
     49761      1348  PVCL2     H2X           -14.8630188465      -38.9704860187      -16.2910540555  MEMB      88              0.0000000000
     49762      1348  PVCL2     H2Y           -14.6948949912      -40.7483461590      -16.0771200651  MEMB      88              0.0000000000
     49763      1348  PVCL2     CA3           -25.1478950682      -38.1967810107      -14.8274740665  MEMB      88              0.0000000000
     49764      1348  PVCL2     H3A           -24.7417667795      -39.1671851818      -15.1848201518  MEMB      88              0.0000000000
     49765      1348  PVCL2     H3B           -26.2175617319      -38.3317466774      -14.5592970456  MEMB      88              0.0000000000
     49766      1348  PVCL2     CA4           -24.4485938186      -37.6815685158      -13.5419913317  MEMB      88              0.0000000000
     49767      1348  PVCL2     H4A           -24.1779373602      -36.6366546704      -13.8050908753  MEMB      88              0.0000000000
     49768      1348  PVCL2     H4B           -23.5217977595      -38.2791791885      -13.4069673397  MEMB      88              0.0000000000
     49769      1348  PVCL2     CA5           -25.2674152202      -37.8449992704      -12.2099849462  MEMB      88              0.0000000000
     49770      1348  PVCL2     H5A           -25.8680732864      -38.7416242690      -12.4737926930  MEMB      88              0.0000000000
     49771      1348  PVCL2     H5B           -25.9480921283      -36.9697202479      -12.1400807315  MEMB      88              0.0000000000
     49772      1348  PVCL2     CA6           -24.4941841180      -37.9272288392      -10.9424163559  MEMB      88              0.0000000000
     49773      1348  PVCL2     H6A           -23.7695894038      -38.7657670083      -11.0207570385  MEMB      88              0.0000000000
     49774      1348  PVCL2     H6B           -25.2204647067      -38.1386840567      -10.1287062543  MEMB      88              0.0000000000
     49775      1348  PVCL2     CA7           -23.7543927496      -36.6668029960      -10.4502669829  MEMB      88              0.0000000000
     49776      1348  PVCL2     H7A           -22.8805116593      -36.5391516051      -11.1243271985  MEMB      88              0.0000000000
     49777      1348  PVCL2     H7B           -23.2538287316      -36.9568542046       -9.5017800522  MEMB      88              0.0000000000
     49778      1348  PVCL2     CA8           -24.5938995426      -35.4001573832      -10.3346606306  MEMB      88              0.0000000000
     49779      1348  PVCL2     H8A           -24.9644133618      -34.9861423457      -11.2967587211  MEMB      88              0.0000000000
     49780      1348  PVCL2     H8B           -24.0373969742      -34.5315634631       -9.9221434008  MEMB      88              0.0000000000
     49781      1348  PVCL2     CA9           -25.7981493080      -35.6395180542       -9.4448856621  MEMB      88              0.0000000000
     49782      1348  PVCL2     H9A           -26.3918791188      -36.3719310224      -10.0325732185  MEMB      88              0.0000000000
     49783      1348  PVCL2     H9B           -26.4081693777      -34.7113523180       -9.4183442232  MEMB      88              0.0000000000
     49784      1348  PVCL2     CA10          -25.5221446737      -36.0644701812       -7.9855402745  MEMB      88              0.0000000000
     49785      1348  PVCL2     H10A          -24.7949020189      -36.9032984389       -8.0280411822  MEMB      88              0.0000000000
     49786      1348  PVCL2     H10B          -26.4656826663      -36.4777475535       -7.5692973041  MEMB      88              0.0000000000
     49787      1348  PVCL2     CA11          -25.0386466756      -34.8713275830       -7.1105197189  MEMB      88              0.0000000000
     49788      1348  PVCL2     H11A          -25.7983409202      -34.1261408836       -6.8320222743  MEMB      88              0.0000000000
     49789      1348  PVCL2     CA12          -23.7581384722      -34.5702314095       -6.6614573302  MEMB      88              0.0000000000
     49790      1348  PVCL2     H12A          -23.7448197121      -33.7144247994       -5.9705028852  MEMB      88              0.0000000000
     49791      1348  PVCL2     CA13          -22.5038887886      -35.3425015120       -6.9353278767  MEMB      88              0.0000000000
     49792      1348  PVCL2     H13A          -21.8126617023      -34.9566121691       -7.7148245845  MEMB      88              0.0000000000
     49793      1348  PVCL2     H13B          -22.9115625445      -36.3367004055       -7.2176243015  MEMB      88              0.0000000000
     49794      1348  PVCL2     CA14          -21.7253338893      -35.5574746833       -5.5443263974  MEMB      88              0.0000000000
     49795      1348  PVCL2     H14A          -21.2509414863      -34.5633299213       -5.3995885852  MEMB      88              0.0000000000
     49796      1348  PVCL2     H14B          -21.0338169518      -36.4133310000       -5.6980641499  MEMB      88              0.0000000000
     49797      1348  PVCL2     CA15          -22.5607341658      -35.7477040440       -4.2665373933  MEMB      88              0.0000000000
     49798      1348  PVCL2     H15A          -23.4557201039      -36.3994453726       -4.3590290473  MEMB      88              0.0000000000
     49799      1348  PVCL2     H15B          -22.9368326482      -34.7619510471       -3.9184547940  MEMB      88              0.0000000000
     49800      1348  PVCL2     CA16          -21.6968518746      -36.4177642507       -3.2399806193  MEMB      88              0.0000000000
     49801      1348  PVCL2     H16A          -20.8483732362      -35.8806370660       -2.7646917536  MEMB      88              0.0000000000
     49802      1348  PVCL2     H16B          -21.1279100688      -37.2572161800       -3.6937940930  MEMB      88              0.0000000000
     49803      1348  PVCL2     CA17          -22.4969197286      -36.9938063198       -2.1029314685  MEMB      88              0.0000000000
     49804      1348  PVCL2     H17A          -21.7977800067      -37.5606170997       -1.4515862904  MEMB      88              0.0000000000
     49805      1348  PVCL2     H17B          -23.1703820761      -37.7849817803       -2.4963909024  MEMB      88              0.0000000000
     49806      1348  PVCL2     CA18          -23.2610405742      -35.8955104195       -1.2823666762  MEMB      88              0.0000000000
     49807      1348  PVCL2     H18A          -24.0901239132      -35.4461119621       -1.8697188833  MEMB      88              0.0000000000
     49808      1348  PVCL2     H18B          -22.5317634335      -35.1541911703       -0.8913141699  MEMB      88              0.0000000000
     49809      1348  PVCL2     H18C          -23.7307537280      -36.3716582513       -0.3952510251  MEMB      88              0.0000000000
     49810      1348  PVCL2     CB3           -26.4165235858      -42.0409472591      -14.7508069532  MEMB      88              0.0000000000
     49811      1348  PVCL2     H3D           -26.8647865132      -41.0251464674      -14.7116915558  MEMB      88              0.0000000000
     49812      1348  PVCL2     H3E           -25.3447132723      -41.9709995675      -14.4668153671  MEMB      88              0.0000000000
     49813      1348  PVCL2     CB4           -27.3075281091      -42.8198357373      -13.7523415867  MEMB      88              0.0000000000
     49814      1348  PVCL2     H4D           -26.7405296919      -43.6956797187      -13.3705939899  MEMB      88              0.0000000000
     49815      1348  PVCL2     H4E           -28.2446955893      -43.1602979273      -14.2423657728  MEMB      88              0.0000000000
     49816      1348  PVCL2     CB5           -27.6805369057      -42.0059244952      -12.5552340641  MEMB      88              0.0000000000
     49817      1348  PVCL2     H5D           -27.0929674024      -41.0729841116      -12.4184639566  MEMB      88              0.0000000000
     49818      1348  PVCL2     H5E           -27.4925200483      -42.6945048342      -11.7038661138  MEMB      88              0.0000000000
     49819      1348  PVCL2     CB6           -29.1515520353      -41.6816135406      -12.3593737716  MEMB      88              0.0000000000
     49820      1348  PVCL2     H6D           -29.8787440960      -42.5215383029      -12.3656458268  MEMB      88              0.0000000000
     49821      1348  PVCL2     H6E           -29.4851247214      -41.0040909392      -13.1742434240  MEMB      88              0.0000000000
     49822      1348  PVCL2     CB7           -29.3674201427      -40.8207825924      -11.0259600260  MEMB      88              0.0000000000
     49823      1348  PVCL2     H7D           -30.4586016805      -40.6131274972      -11.0488364938  MEMB      88              0.0000000000
     49824      1348  PVCL2     H7E           -28.7787531081      -39.8785824324      -11.0330896091  MEMB      88              0.0000000000
     49825      1348  PVCL2     CB8           -28.9446218853      -41.5655269165       -9.7317913827  MEMB      88              0.0000000000
     49826      1348  PVCL2     H8D           -27.9150278822      -41.9765152687       -9.8049031609  MEMB      88              0.0000000000
     49827      1348  PVCL2     H8E           -29.6316720056      -42.4385610660       -9.7415421440  MEMB      88              0.0000000000
     49828      1348  PVCL2     CB9           -29.1412355252      -40.6494347465       -8.5095154752  MEMB      88              0.0000000000
     49829      1348  PVCL2     H9D           -29.0317546081      -41.2283835165       -7.5676278158  MEMB      88              0.0000000000
     49830      1348  PVCL2     H9E           -30.2081691180      -40.3396733082       -8.5141713720  MEMB      88              0.0000000000
     49831      1348  PVCL2     CB10          -28.3098900784      -39.3128197880       -8.3486155197  MEMB      88              0.0000000000
     49832      1348  PVCL2     H10D          -28.9277901250      -38.4840707807       -8.7556736004  MEMB      88              0.0000000000
     49833      1348  PVCL2     H10E          -27.3699523128      -39.3917639163       -8.9356470220  MEMB      88              0.0000000000
     49834      1348  PVCL2     CB11          -28.0976007605      -38.8676980293       -6.8819542529  MEMB      88              0.0000000000
     49835      1348  PVCL2     H11D          -29.0516571592      -39.0232610369       -6.3343261620  MEMB      88              0.0000000000
     49836      1348  PVCL2     H11E          -27.9176168423      -37.7730665030       -6.9428532787  MEMB      88              0.0000000000
     49837      1348  PVCL2     CB12          -26.9545278180      -39.5448399722       -6.1886556179  MEMB      88              0.0000000000
     49838      1348  PVCL2     H12D          -26.0918129570      -39.1167594286       -6.7425428025  MEMB      88              0.0000000000
     49839      1348  PVCL2     H12E          -26.9216831917      -40.6535440723       -6.2520403574  MEMB      88              0.0000000000
     49840      1348  PVCL2     CB13          -26.8547023754      -39.0783197330       -4.7587216732  MEMB      88              0.0000000000
     49841      1348  PVCL2     H13D          -25.8993904872      -39.4345318783       -4.3173453559  MEMB      88              0.0000000000
     49842      1348  PVCL2     H13E          -27.7112529152      -39.5100149599       -4.1981124848  MEMB      88              0.0000000000
     49843      1348  PVCL2     CB14          -26.7546798654      -37.4811982170       -4.7338614673  MEMB      88              0.0000000000
     49844      1348  PVCL2     H14D          -27.7677349818      -37.0260007911       -4.7627757218  MEMB      88              0.0000000000
     49845      1348  PVCL2     H14E          -26.1497324838      -37.1772706000       -5.6147632050  MEMB      88              0.0000000000
     49846      1348  PVCL2     CB15          -26.1291422863      -36.9664165740       -3.4225084226  MEMB      88              0.0000000000
     49847      1348  PVCL2     H15D          -26.0783987333      -35.8566788892       -3.4073895731  MEMB      88              0.0000000000
     49848      1348  PVCL2     H15E          -25.1232232793      -37.4269267646       -3.3206330113  MEMB      88              0.0000000000
     49849      1348  PVCL2     CB16          -26.8144601631      -37.3246938981       -2.1146228167  MEMB      88              0.0000000000
     49850      1348  PVCL2     H16D          -27.8324782348      -36.9153942679       -1.9401717686  MEMB      88              0.0000000000
     49851      1348  PVCL2     H16E          -26.2105955880      -36.9973003265       -1.2414196996  MEMB      88              0.0000000000
     49852      1348  PVCL2     H16F          -26.7631945672      -38.4344984323       -2.1094069064  MEMB      88              0.0000000000
     49853      1348  PVCL2     CC3           -20.9234008559      -41.7464264641      -16.4975423344  MEMB      88              0.0000000000
     49854      1348  PVCL2     H3R           -21.8376868293      -41.3902950602      -17.0186687207  MEMB      88              0.0000000000
     49855      1348  PVCL2     H3S           -20.3917504527      -40.8221225373      -16.1855633329  MEMB      88              0.0000000000
     49856      1348  PVCL2     CC4           -21.2527846303      -42.5826444249      -15.2339444911  MEMB      88              0.0000000000
     49857      1348  PVCL2     H4R           -20.2837299915      -42.7379274526      -14.7132320325  MEMB      88              0.0000000000
     49858      1348  PVCL2     H4S           -21.7736229457      -43.5517039940      -15.3887732393  MEMB      88              0.0000000000
     49859      1348  PVCL2     CC5           -22.1568459396      -41.6978285133      -14.2618819369  MEMB      88              0.0000000000
     49860      1348  PVCL2     H5R           -23.0900435511      -41.5109909952      -14.8350792078  MEMB      88              0.0000000000
     49861      1348  PVCL2     H5S           -21.6201398049      -40.7346391151      -14.1257440021  MEMB      88              0.0000000000
     49862      1348  PVCL2     CC6           -22.5515083032      -42.4503663217      -12.9950091959  MEMB      88              0.0000000000
     49863      1348  PVCL2     H6R           -21.7002472616      -43.0744246351      -12.6482713292  MEMB      88              0.0000000000
     49864      1348  PVCL2     H6S           -23.4665719748      -43.0000014982      -13.3030359130  MEMB      88              0.0000000000
     49865      1348  PVCL2     CC7           -23.1217360242      -41.5771262751      -11.8811955966  MEMB      88              0.0000000000
     49866      1348  PVCL2     H7R           -23.7035917855      -40.7298955006      -12.3030548827  MEMB      88              0.0000000000
     49867      1348  PVCL2     H7S           -22.3537372300      -41.0702851250      -11.2586116132  MEMB      88              0.0000000000
     49868      1348  PVCL2     CC8           -24.0888766551      -42.2858063487      -10.8967900490  MEMB      88              0.0000000000
     49869      1348  PVCL2     H8R           -24.8684991266      -42.8420308475      -11.4599276844  MEMB      88              0.0000000000
     49870      1348  PVCL2     H8S           -24.6847613027      -41.5398361295      -10.3286609185  MEMB      88              0.0000000000
     49871      1348  PVCL2     CC9           -23.4814781993      -43.3038816022       -9.8553813882  MEMB      88              0.0000000000
     49872      1348  PVCL2     H9R           -23.0504693404      -42.7134426219       -9.0187603523  MEMB      88              0.0000000000
     49873      1348  PVCL2     H9S           -22.5999743864      -43.7348743086      -10.3764539829  MEMB      88              0.0000000000
     49874      1348  PVCL2     CC10          -24.5198543043      -44.3468167126       -9.3738624251  MEMB      88              0.0000000000
     49875      1348  PVCL2     H10R          -23.9726873616      -44.9989142998       -8.6599308354  MEMB      88              0.0000000000
     49876      1348  PVCL2     H10S          -25.0054481390      -44.8370165344      -10.2446225126  MEMB      88              0.0000000000
     49877      1348  PVCL2     CC11          -25.7312711440      -43.7702570694       -8.6346113467  MEMB      88              0.0000000000
     49878      1348  PVCL2     H11R          -26.6527936937      -43.7163597988       -9.2328516906  MEMB      88              0.0000000000
     49879      1348  PVCL2     CC12          -25.7202454775      -43.3880357470       -7.3696884504  MEMB      88              0.0000000000
     49880      1348  PVCL2     H12R          -26.6417107086      -42.9560885747       -6.9521679260  MEMB      88              0.0000000000
     49881      1348  PVCL2     CC13          -24.6373042193      -43.3542988483       -6.3654487662  MEMB      88              0.0000000000
     49882      1348  PVCL2     H13R          -24.8973046930      -42.5544298079       -5.6395495288  MEMB      88              0.0000000000
     49883      1348  PVCL2     H13S          -23.6229101884      -43.0470026216       -6.6984580816  MEMB      88              0.0000000000
     49884      1348  PVCL2     CC14          -24.6171812661      -44.5327145342       -5.4106966192  MEMB      88              0.0000000000
     49885      1348  PVCL2     H14R          -25.4189600506      -44.5676638265       -4.6424200428  MEMB      88              0.0000000000
     49886      1348  PVCL2     H14S          -23.6017454902      -44.4551294023       -4.9666340169  MEMB      88              0.0000000000
     49887      1348  PVCL2     CC15          -24.5917967442      -45.9456778176       -6.0197450098  MEMB      88              0.0000000000
     49888      1348  PVCL2     H15R          -23.7046901415      -46.0465999097       -6.6809392189  MEMB      88              0.0000000000
     49889      1348  PVCL2     H15S          -25.4983160212      -46.1785805920       -6.6183267706  MEMB      88              0.0000000000
     49890      1348  PVCL2     CC16          -24.4512271384      -47.0925909210       -5.0232511837  MEMB      88              0.0000000000
     49891      1348  PVCL2     H16R          -23.5198672125      -47.1841003321       -4.4244897839  MEMB      88              0.0000000000
     49892      1348  PVCL2     H16S          -24.6228330850      -48.0369065295       -5.5828404756  MEMB      88              0.0000000000
     49893      1348  PVCL2     CC17          -25.4531661349      -47.1468102150       -3.8904623648  MEMB      88              0.0000000000
     49894      1348  PVCL2     H17R          -26.4359283709      -47.1243158121       -4.4081431345  MEMB      88              0.0000000000
     49895      1348  PVCL2     H17S          -25.3407101923      -46.2339089529       -3.2673371974  MEMB      88              0.0000000000
     49896      1348  PVCL2     CC18          -25.5118521208      -48.5012142656       -3.1404517400  MEMB      88              0.0000000000
     49897      1348  PVCL2     H18R          -26.2889741400      -48.4897677925       -2.3465555794  MEMB      88              0.0000000000
     49898      1348  PVCL2     H18S          -24.4953636019      -48.7519703842       -2.7687083504  MEMB      88              0.0000000000
     49899      1348  PVCL2     H18T          -25.7889116037      -49.2725289377       -3.8905388379  MEMB      88              0.0000000000
     49900      1348  PVCL2     CD3           -16.6668717190      -39.8555965223      -15.4843833464  MEMB      88              0.0000000000
     49901      1348  PVCL2     H3X           -17.4427032198      -40.5899929805      -15.7894542859  MEMB      88              0.0000000000
     49902      1348  PVCL2     H3Y           -16.9451845869      -38.7925573581      -15.6481227067  MEMB      88              0.0000000000
     49903      1348  PVCL2     CD4           -16.4069882299      -40.1337921436      -14.0159222637  MEMB      88              0.0000000000
     49904      1348  PVCL2     H4X           -15.6057747180      -39.4107287775      -13.7521847095  MEMB      88              0.0000000000
     49905      1348  PVCL2     H4Y           -15.9515095032      -41.1232914709      -13.7974023614  MEMB      88              0.0000000000
     49906      1348  PVCL2     CD5           -17.7217048108      -39.9170827765      -13.1864262075  MEMB      88              0.0000000000
     49907      1348  PVCL2     H5X           -17.5488176940      -40.0393705554      -12.0957949490  MEMB      88              0.0000000000
     49908      1348  PVCL2     H5Y           -18.3199697234      -40.8091336774      -13.4704071649  MEMB      88              0.0000000000
     49909      1348  PVCL2     CD6           -18.5027173193      -38.5470970212      -13.4396400765  MEMB      88              0.0000000000
     49910      1348  PVCL2     H6X           -19.1978771913      -38.4815553380      -14.3038033860  MEMB      88              0.0000000000
     49911      1348  PVCL2     H6Y           -17.7276719427      -37.7984676957      -13.7101579515  MEMB      88              0.0000000000
     49912      1348  PVCL2     CD7           -19.2969712551      -38.0967432607      -12.2010118238  MEMB      88              0.0000000000
     49913      1348  PVCL2     H7X           -19.7380679085      -37.0961259567      -12.3972760555  MEMB      88              0.0000000000
     49914      1348  PVCL2     H7Y           -18.5619183323      -37.9061097125      -11.3900385325  MEMB      88              0.0000000000
     49915      1348  PVCL2     CD8           -20.4393476719      -39.0504129817      -11.6859467875  MEMB      88              0.0000000000
     49916      1348  PVCL2     H8X           -20.1157348720      -40.1120095960      -11.7370187763  MEMB      88              0.0000000000
     49917      1348  PVCL2     H8Y           -21.3284616657      -38.8898448742      -12.3324876690  MEMB      88              0.0000000000
     49918      1348  PVCL2     CD9           -20.8234763119      -38.7108921023      -10.2946864269  MEMB      88              0.0000000000
     49919      1348  PVCL2     H9X           -21.8965553254      -38.8868792497      -10.0669773201  MEMB      88              0.0000000000
     49920      1348  PVCL2     H9Y           -20.6324156298      -37.6228523136      -10.1764233197  MEMB      88              0.0000000000
     49921      1348  PVCL2     CD10          -20.1459338417      -39.5239045888       -9.1278004040  MEMB      88              0.0000000000
     49922      1348  PVCL2     H10X          -19.0407315506      -39.5360690782       -9.2404980267  MEMB      88              0.0000000000
     49923      1348  PVCL2     H10Y          -20.3715575016      -40.5979059939       -9.3008209708  MEMB      88              0.0000000000
     49924      1348  PVCL2     CD11          -20.6189740827      -39.1434630383       -7.7733129444  MEMB      88              0.0000000000
     49925      1348  PVCL2     H11X          -20.2664350245      -38.1339294175       -7.4718512337  MEMB      88              0.0000000000
     49926      1348  PVCL2     H11Y          -19.8748492687      -39.6421205815       -7.1160914787  MEMB      88              0.0000000000
     49927      1348  PVCL2     CD12          -22.0838356519      -39.6416206640       -7.4323568025  MEMB      88              0.0000000000
     49928      1348  PVCL2     H12X          -22.1008770652      -40.6881471407       -7.8049326826  MEMB      88              0.0000000000
     49929      1348  PVCL2     H12Y          -22.8694510144      -39.1294453673       -8.0280127573  MEMB      88              0.0000000000
     49930      1348  PVCL2     CD13          -22.5047285193      -39.6513515508       -5.9811593805  MEMB      88              0.0000000000
     49931      1348  PVCL2     H13X          -23.6080158283      -39.7819309483       -5.9863436561  MEMB      88              0.0000000000
     49932      1348  PVCL2     H13Y          -22.1487651047      -38.6880111699       -5.5573830380  MEMB      88              0.0000000000
     49933      1348  PVCL2     CD14          -21.7617416086      -40.7347563405       -5.0624734458  MEMB      88              0.0000000000
     49934      1348  PVCL2     H14X          -20.6941001966      -40.5931427472       -5.3352523648  MEMB      88              0.0000000000
     49935      1348  PVCL2     H14Y          -22.2311871878      -41.7145312747       -5.2948158492  MEMB      88              0.0000000000
     49936      1348  PVCL2     CD15          -21.8536798154      -40.4322442839       -3.5923593387  MEMB      88              0.0000000000
     49937      1348  PVCL2     H15X          -21.7125546329      -39.3426749891       -3.4273036808  MEMB      88              0.0000000000
     49938      1348  PVCL2     H15Y          -21.0813673364      -41.0781369238       -3.1225966969  MEMB      88              0.0000000000
     49939      1348  PVCL2     CD16          -23.2066769046      -40.8050111618       -3.0208830434  MEMB      88              0.0000000000
     49940      1348  PVCL2     H16X          -23.9359081317      -40.1982788434       -3.5991725399  MEMB      88              0.0000000000
     49941      1348  PVCL2     H16Y          -23.2081796949      -40.5855655437       -1.9317731975  MEMB      88              0.0000000000
     49942      1348  PVCL2     H16Z          -23.5056246515      -41.8699727501       -3.1248450463  MEMB      88              0.0000000000
     49943      1349  PVPG      C13           -27.9593902928       32.8854002063      -20.2782042409  MEMB      89              0.0000000000
     49944      1349  PVPG      H13A          -26.9247750474       32.5162098167      -20.4443085556  MEMB      89              0.0000000000
     49945      1349  PVPG      H13B          -28.2831886823       32.8411796396      -19.2163567585  MEMB      89              0.0000000000
     49946      1349  PVPG      OC3           -28.8332172803       32.0712463791      -21.0413370784  MEMB      89              0.0000000000
     49947      1349  PVPG      HO3           -28.2396337231       31.4772954827      -21.5066120452  MEMB      89              0.0000000000
     49948      1349  PVPG      C12           -27.8477814248       34.4142548351      -20.6523625000  MEMB      89              0.0000000000
     49949      1349  PVPG      H12A          -28.8663050399       34.8555899398      -20.5493478862  MEMB      89              0.0000000000
     49950      1349  PVPG      OC2           -27.4403183673       34.5591796959      -22.0136161617  MEMB      89              0.0000000000
     49951      1349  PVPG      HO2           -27.2739916240       35.5239381725      -22.0929467123  MEMB      89              0.0000000000
     49952      1349  PVPG      C11           -26.8844790643       35.2515705295      -19.7267071164  MEMB      89              0.0000000000
     49953      1349  PVPG      H11A          -26.8853714217       36.3218275356      -20.0248180648  MEMB      89              0.0000000000
     49954      1349  PVPG      H11B          -25.8149829686       34.9930247407      -19.8805031280  MEMB      89              0.0000000000
     49955      1349  PVPG      P             -26.5924974249       35.7917855995      -17.2600855091  MEMB      89              0.0000000000
     49956      1349  PVPG      O13           -27.1349536402       37.1799636430      -17.1693225400  MEMB      89              0.0000000000
     49957      1349  PVPG      O14           -25.1453750890       35.7275148383      -17.5084882890  MEMB      89              0.0000000000
     49958      1349  PVPG      O12           -27.3240304888       34.9860848065      -18.3827366228  MEMB      89              0.0000000000
     49959      1349  PVPG      O11           -26.9001979247       34.9889414672      -15.9671399377  MEMB      89              0.0000000000
     49960      1349  PVPG      C1            -28.1534541993       34.4085678287      -15.7025402085  MEMB      89              0.0000000000
     49961      1349  PVPG      HA            -28.4886409672       33.5912582357      -16.3763175669  MEMB      89              0.0000000000
     49962      1349  PVPG      HB            -28.8650051643       35.2571681510      -15.7913864779  MEMB      89              0.0000000000
     49963      1349  PVPG      C2            -28.1758610227       33.9810320418      -14.1804628336  MEMB      89              0.0000000000
     49964      1349  PVPG      HS            -29.2427389216       34.0093698655      -13.8717727499  MEMB      89              0.0000000000
     49965      1349  PVPG      O21           -27.3016214485       34.8491353519      -13.3902510654  MEMB      89              0.0000000000
     49966      1349  PVPG      C21           -27.7287656137       35.9489031585      -12.9392335058  MEMB      89              0.0000000000
     49967      1349  PVPG      O22           -28.8307955275       36.4504114205      -13.0397273834  MEMB      89              0.0000000000
     49968      1349  PVPG      C22           -26.6585639086       36.6122493491      -12.0639241450  MEMB      89              0.0000000000
     49969      1349  PVPG      H2R           -27.0090416784       37.5277510109      -11.5411020211  MEMB      89              0.0000000000
     49970      1349  PVPG      H2S           -25.6369590865       36.7823544997      -12.4660545571  MEMB      89              0.0000000000
     49971      1349  PVPG      C3            -27.5544308769       32.5275340057      -14.1809656385  MEMB      89              0.0000000000
     49972      1349  PVPG      HX            -28.2074116760       31.9251346371      -14.8480878467  MEMB      89              0.0000000000
     49973      1349  PVPG      HY            -26.5024306512       32.4975006460      -14.5369355436  MEMB      89              0.0000000000
     49974      1349  PVPG      O31           -27.6385745028       32.0314724949      -12.8824969083  MEMB      89              0.0000000000
     49975      1349  PVPG      C31           -28.7695532634       31.3124279741      -12.4602099236  MEMB      89              0.0000000000
     49976      1349  PVPG      O32           -29.7972484347       31.1816194281      -13.0865847150  MEMB      89              0.0000000000
     49977      1349  PVPG      C32           -28.6076480221       30.6908153085      -11.0581179910  MEMB      89              0.0000000000
     49978      1349  PVPG      H2X           -27.5976218036       30.2593208193      -10.8908467379  MEMB      89              0.0000000000
     49979      1349  PVPG      H2Y           -29.4856688743       30.0322071507      -10.8859679859  MEMB      89              0.0000000000
     49980      1349  PVPG      C23           -26.3912614902       35.6244828691      -10.9318197793  MEMB      89              0.0000000000
     49981      1349  PVPG      H3R           -26.0785286673       34.6215988169      -11.2934032454  MEMB      89              0.0000000000
     49982      1349  PVPG      H3S           -27.2184963465       35.5011417460      -10.2005259995  MEMB      89              0.0000000000
     49983      1349  PVPG      C24           -25.1885817714       36.0376721048       -9.9786145331  MEMB      89              0.0000000000
     49984      1349  PVPG      H4R           -25.3976724908       36.9620783237       -9.3988944114  MEMB      89              0.0000000000
     49985      1349  PVPG      H4S           -24.3858149146       36.3457008806      -10.6821800135  MEMB      89              0.0000000000
     49986      1349  PVPG      C25           -24.7531521499       34.8761766428       -8.9814725631  MEMB      89              0.0000000000
     49987      1349  PVPG      H5R           -25.6795968101       34.4258170790       -8.5653023883  MEMB      89              0.0000000000
     49988      1349  PVPG      H5S           -24.0915342184       35.3630099732       -8.2334241523  MEMB      89              0.0000000000
     49989      1349  PVPG      C26           -24.0904762845       33.7393381198       -9.7222968426  MEMB      89              0.0000000000
     49990      1349  PVPG      H6R           -23.2017480971       34.1539673561      -10.2443756230  MEMB      89              0.0000000000
     49991      1349  PVPG      H6S           -24.7848699735       33.1735522887      -10.3795836813  MEMB      89              0.0000000000
     49992      1349  PVPG      C27           -23.4945910033       32.6411726013       -8.7831000335  MEMB      89              0.0000000000
     49993      1349  PVPG      H7R           -22.9096116365       33.1768213280       -8.0051538081  MEMB      89              0.0000000000
     49994      1349  PVPG      H7S           -22.7493486483       32.1512334070       -9.4455907973  MEMB      89              0.0000000000
     49995      1349  PVPG      C28           -24.5124734273       31.7027727350       -8.1860972094  MEMB      89              0.0000000000
     49996      1349  PVPG      H8R           -25.0195139538       31.1995184889       -9.0369589559  MEMB      89              0.0000000000
     49997      1349  PVPG      H8S           -25.3176468779       32.4013859922       -7.8731174811  MEMB      89              0.0000000000
     49998      1349  PVPG      C29           -24.0027058567       30.6229298701       -7.1578665949  MEMB      89              0.0000000000
     49999      1349  PVPG      H9R           -23.1483446179       30.1812218532       -7.7139981714  MEMB      89              0.0000000000
     50000      1349  PVPG      H9S           -24.7541619199       29.8120602436       -7.0477519913  MEMB      89              0.0000000000
     50001      1349  PVPG      C210          -23.4998397518       31.1011082801       -5.7909863146  MEMB      89              0.0000000000
     50002      1349  PVPG      H10R          -22.6513843893       31.8000931339       -5.9518110579  MEMB      89              0.0000000000
     50003      1349  PVPG      H10S          -23.1052345374       30.2045160354       -5.2668400103  MEMB      89              0.0000000000
     50004      1349  PVPG      C211          -24.6821109127       31.6380080309       -4.9963307147  MEMB      89              0.0000000000
     50005      1349  PVPG      H111          -25.5878233632       31.0154052388       -4.9510445661  MEMB      89              0.0000000000
     50006      1349  PVPG      C212          -24.6671882020       32.8062539962       -4.3057658191  MEMB      89              0.0000000000
     50007      1349  PVPG      H121          -25.6519390681       32.9954391014       -3.8535767414  MEMB      89              0.0000000000
     50008      1349  PVPG      C213          -23.5431887726       33.7823967887       -4.1342350724  MEMB      89              0.0000000000
     50009      1349  PVPG      H13R          -23.4034163941       34.5349678164       -4.9394817330  MEMB      89              0.0000000000
     50010      1349  PVPG      H13S          -22.5379461277       33.3128545021       -4.0764609688  MEMB      89              0.0000000000
     50011      1349  PVPG      C214          -23.7658204870       34.6238344358       -2.7955196398  MEMB      89              0.0000000000
     50012      1349  PVPG      H14R          -24.6889807274       35.2404909105       -2.8383145034  MEMB      89              0.0000000000
     50013      1349  PVPG      H14S          -22.8532736954       35.2520234945       -2.7121063185  MEMB      89              0.0000000000
     50014      1349  PVPG      C215          -23.9065749156       33.8321206532       -1.4683608954  MEMB      89              0.0000000000
     50015      1349  PVPG      H15R          -23.1598613283       33.0594559917       -1.1859981348  MEMB      89              0.0000000000
     50016      1349  PVPG      H15S          -24.8286932644       33.2140372966       -1.5129903198  MEMB      89              0.0000000000
     50017      1349  PVPG      C216          -23.9385282613       34.8366271369       -0.2554076379  MEMB      89              0.0000000000
     50018      1349  PVPG      H16R          -24.8526357630       35.4559042206       -0.3787954080  MEMB      89              0.0000000000
     50019      1349  PVPG      H16S          -23.0919039507       35.5408328025       -0.4025231685  MEMB      89              0.0000000000
     50020      1349  PVPG      C217          -23.6625184097       34.2403388825        1.1613041967  MEMB      89              0.0000000000
     50021      1349  PVPG      H17R          -24.3211314257       33.3745975461        1.3872280848  MEMB      89              0.0000000000
     50022      1349  PVPG      H17S          -24.0090331302       35.0588041334        1.8279099420  MEMB      89              0.0000000000
     50023      1349  PVPG      C218          -22.2689408267       33.8407243516        1.3958735300  MEMB      89              0.0000000000
     50024      1349  PVPG      H18R          -22.0791299330       32.9598322203        0.7460102989  MEMB      89              0.0000000000
     50025      1349  PVPG      H18S          -21.4463453282       34.5379498806        1.1284160380  MEMB      89              0.0000000000
     50026      1349  PVPG      H18T          -21.9639617024       33.5188086255        2.4145384086  MEMB      89              0.0000000000
     50027      1349  PVPG      C33           -28.7150060434       31.8838145893      -10.0590993019  MEMB      89              0.0000000000
     50028      1349  PVPG      H3X           -29.7730596146       32.2207229658      -10.0956557639  MEMB      89              0.0000000000
     50029      1349  PVPG      H3Y           -27.9956375514       32.7123062455      -10.2335457321  MEMB      89              0.0000000000
     50030      1349  PVPG      C34           -28.3991812967       31.4441954272       -8.6506277473  MEMB      89              0.0000000000
     50031      1349  PVPG      H4X           -27.3756048916       31.0705678861       -8.4337985942  MEMB      89              0.0000000000
     50032      1349  PVPG      H4Y           -29.0287407246       30.6032805959       -8.2889119607  MEMB      89              0.0000000000
     50033      1349  PVPG      C35           -28.5460349498       32.6397029406       -7.6720655416  MEMB      89              0.0000000000
     50034      1349  PVPG      H5X           -28.0576848561       33.5125358214       -8.1557988782  MEMB      89              0.0000000000
     50035      1349  PVPG      H5Y           -28.0085626371       32.5536243692       -6.7035434736  MEMB      89              0.0000000000
     50036      1349  PVPG      C36           -29.9362857953       32.8686081428       -7.2309582174  MEMB      89              0.0000000000
     50037      1349  PVPG      H6X           -30.1911600181       32.1549489207       -6.4185240104  MEMB      89              0.0000000000
     50038      1349  PVPG      H6Y           -30.6794093198       32.8658830882       -8.0568405551  MEMB      89              0.0000000000
     50039      1349  PVPG      C37           -29.9548431873       34.2292534936       -6.4441003607  MEMB      89              0.0000000000
     50040      1349  PVPG      H7X           -30.9769319701       34.5000860471       -6.1030642805  MEMB      89              0.0000000000
     50041      1349  PVPG      H7Y           -29.4670490612       35.0596434597       -6.9980233179  MEMB      89              0.0000000000
     50042      1349  PVPG      C38           -29.2846113246       34.1358879812       -5.0456270504  MEMB      89              0.0000000000
     50043      1349  PVPG      H8X           -28.2099792697       33.8541791782       -5.0568983812  MEMB      89              0.0000000000
     50044      1349  PVPG      H8Y           -29.7664326906       33.3525248010       -4.4223199011  MEMB      89              0.0000000000
     50045      1349  PVPG      C39           -29.4497656102       35.5370526848       -4.5044667535  MEMB      89              0.0000000000
     50046      1349  PVPG      H9X           -30.4644493762       35.7868303088       -4.1271753604  MEMB      89              0.0000000000
     50047      1349  PVPG      H9Y           -29.1661665085       36.2904265725       -5.2701824007  MEMB      89              0.0000000000
     50048      1349  PVPG      C310          -28.5559280450       35.7769907271       -3.2422498562  MEMB      89              0.0000000000
     50049      1349  PVPG      H10X          -28.9102686057       36.7291985256       -2.7927352645  MEMB      89              0.0000000000
     50050      1349  PVPG      H10Y          -27.5455561335       36.0497991186       -3.6151380401  MEMB      89              0.0000000000
     50051      1349  PVPG      C311          -28.6507323264       34.7016509074       -2.1955352878  MEMB      89              0.0000000000
     50052      1349  PVPG      H11X          -28.3862515529       33.6450861547       -2.4147188678  MEMB      89              0.0000000000
     50053      1349  PVPG      H11Y          -29.7454364752       34.7568547106       -2.0141609628  MEMB      89              0.0000000000
     50054      1349  PVPG      C312          -27.7760432705       35.0382806791       -0.9914911976  MEMB      89              0.0000000000
     50055      1349  PVPG      H12X          -27.7607014776       36.1266561814       -0.7689490113  MEMB      89              0.0000000000
     50056      1349  PVPG      H12Y          -26.7406863267       34.6986410223       -1.2082902724  MEMB      89              0.0000000000
     50057      1349  PVPG      C313          -28.2132060720       34.2566382146        0.2647678954  MEMB      89              0.0000000000
     50058      1349  PVPG      H13X          -28.8554109802       34.8865250454        0.9167924499  MEMB      89              0.0000000000
     50059      1349  PVPG      H13Y          -27.2732469515       34.1386969414        0.8451899793  MEMB      89              0.0000000000
     50060      1349  PVPG      C314          -28.8788186621       32.8805526454        0.0023065142  MEMB      89              0.0000000000
     50061      1349  PVPG      H14X          -29.7323463653       33.0281937948       -0.6934051757  MEMB      89              0.0000000000
     50062      1349  PVPG      H14Y          -29.4513834388       32.6270971210        0.9200496268  MEMB      89              0.0000000000
     50063      1349  PVPG      C315          -27.8989045783       31.7543200423       -0.3812523823  MEMB      89              0.0000000000
     50064      1349  PVPG      H15X          -27.4324135708       32.1125824489       -1.3237783718  MEMB      89              0.0000000000
     50065      1349  PVPG      H15Y          -28.5932144912       30.9092012246       -0.5762624935  MEMB      89              0.0000000000
     50066      1349  PVPG      C316          -26.7903179329       31.3995830457        0.5652538158  MEMB      89              0.0000000000
     50067      1349  PVPG      H16X          -27.2564605521       31.2793353273        1.5665403494  MEMB      89              0.0000000000
     50068      1349  PVPG      H16Y          -26.2982574022       30.4565162585        0.2445947494  MEMB      89              0.0000000000
     50069      1349  PVPG      H16Z          -25.9796404892       32.1585432642        0.5984556246  MEMB      89              0.0000000000
     50070      1350  PPPE      N              32.7876002737      -30.6729756157      -16.9553943146  MEMB      90              0.0000000000
     50071      1350  PPPE      HN1            32.5940647805      -29.6541605408      -16.8769095633  MEMB      90              0.0000000000
     50072      1350  PPPE      HN2            32.1574659337      -30.9644355143      -17.7297210164  MEMB      90              0.0000000000
     50073      1350  PPPE      HN3            32.5511695952      -31.1970461662      -16.0887625633  MEMB      90              0.0000000000
     50074      1350  PPPE      C12            34.1777658466      -31.1562250090      -17.3723347355  MEMB      90              0.0000000000
     50075      1350  PPPE      H12A           34.2859795879      -32.1565928148      -16.9012986019  MEMB      90              0.0000000000
     50076      1350  PPPE      H12B           34.8296870713      -30.4150799224      -16.8624095668  MEMB      90              0.0000000000
     50077      1350  PPPE      C11            34.3359616316      -31.1217032315      -18.9058549872  MEMB      90              0.0000000000
     50078      1350  PPPE      H11A           33.6897621048      -31.9516056510      -19.2636386450  MEMB      90              0.0000000000
     50079      1350  PPPE      H11B           35.3789949964      -31.3734438538      -19.1940026212  MEMB      90              0.0000000000
     50080      1350  PPPE      P              34.9051200247      -28.6273396185      -19.8003605429  MEMB      90              0.0000000000
     50081      1350  PPPE      O13            36.3018923331      -29.1782473924      -19.7586221693  MEMB      90              0.0000000000
     50082      1350  PPPE      O14            34.4807232255      -27.9260514942      -21.0273872081  MEMB      90              0.0000000000
     50083      1350  PPPE      O11            34.7566817146      -27.5866490787      -18.6373920033  MEMB      90              0.0000000000
     50084      1350  PPPE      O12            33.8868461289      -29.8411333317      -19.5426536983  MEMB      90              0.0000000000
     50085      1350  PPPE      C1             33.5025324716      -27.0975519267      -18.1603407678  MEMB      90              0.0000000000
     50086      1350  PPPE      HA             32.8591936293      -27.9933892720      -18.0265065987  MEMB      90              0.0000000000
     50087      1350  PPPE      HB             33.0621399623      -26.5724038630      -19.0347519691  MEMB      90              0.0000000000
     50088      1350  PPPE      C2             33.6799194100      -26.1229640163      -16.9783643577  MEMB      90              0.0000000000
     50089      1350  PPPE      HS             34.2152765287      -25.2130009328      -17.3243136923  MEMB      90              0.0000000000
     50090      1350  PPPE      O21            34.5958279892      -26.7826221755      -16.0562132768  MEMB      90              0.0000000000
     50091      1350  PPPE      C21            34.9928612334      -25.9694093932      -15.0991811393  MEMB      90              0.0000000000
     50092      1350  PPPE      O22            34.6556441327      -24.7688858028      -14.9538782722  MEMB      90              0.0000000000
     50093      1350  PPPE      C22            35.8686586331      -26.7002942607      -14.1277987606  MEMB      90              0.0000000000
     50094      1350  PPPE      H2R            36.1788658166      -26.0728430309      -13.2650140495  MEMB      90              0.0000000000
     50095      1350  PPPE      H2S            36.8600406678      -26.9095877498      -14.5835167617  MEMB      90              0.0000000000
     50096      1350  PPPE      C3             32.3015979529      -25.8339081101      -16.3666314707  MEMB      90              0.0000000000
     50097      1350  PPPE      HX             32.3319194507      -25.1737849570      -15.4735250775  MEMB      90              0.0000000000
     50098      1350  PPPE      HY             31.7525523827      -25.2793667561      -17.1574246476  MEMB      90              0.0000000000
     50099      1350  PPPE      O31            31.6338264812      -27.0357696278      -16.0598189795  MEMB      90              0.0000000000
     50100      1350  PPPE      C31            30.4266403583      -27.0547929128      -15.4835470205  MEMB      90              0.0000000000
     50101      1350  PPPE      O32            29.8047105793      -26.0591269992      -15.1072113340  MEMB      90              0.0000000000
     50102      1350  PPPE      C32            30.0254007939      -28.4895819595      -15.1888296136  MEMB      90              0.0000000000
     50103      1350  PPPE      H2X            29.9041498139      -29.0492233954      -16.1408908843  MEMB      90              0.0000000000
     50104      1350  PPPE      H2Y            29.0529451206      -28.5826192934      -14.6596840590  MEMB      90              0.0000000000
     50105      1350  PPPE      C23            35.3568493918      -28.0677764170      -13.7543478728  MEMB      90              0.0000000000
     50106      1350  PPPE      H3R            35.2145404490      -28.7353041400      -14.6309754470  MEMB      90              0.0000000000
     50107      1350  PPPE      H3S            34.3698839749      -27.9217265769      -13.2655844229  MEMB      90              0.0000000000
     50108      1350  PPPE      C24            36.3372969880      -28.6782272581      -12.7129710864  MEMB      90              0.0000000000
     50109      1350  PPPE      H4R            37.3300697378      -28.5978584217      -13.2051744157  MEMB      90              0.0000000000
     50110      1350  PPPE      H4S            36.0283277929      -29.7450119580      -12.6841710775  MEMB      90              0.0000000000
     50111      1350  PPPE      C25            36.4425223749      -28.0704530756      -11.2952549314  MEMB      90              0.0000000000
     50112      1350  PPPE      H5R            36.7686525238      -27.0252131204      -11.4834929772  MEMB      90              0.0000000000
     50113      1350  PPPE      H5S            37.2952779545      -28.5693061685      -10.7870477758  MEMB      90              0.0000000000
     50114      1350  PPPE      C26            35.2146581169      -28.1601715600      -10.4600514885  MEMB      90              0.0000000000
     50115      1350  PPPE      H6R            34.8540867431      -29.2073568688      -10.5478706975  MEMB      90              0.0000000000
     50116      1350  PPPE      H6S            34.4585458385      -27.5836065222      -11.0346713450  MEMB      90              0.0000000000
     50117      1350  PPPE      C27            35.5309772868      -27.6740273563       -9.0159152204  MEMB      90              0.0000000000
     50118      1350  PPPE      H7R            35.6774928319      -26.5771838753       -9.1148524385  MEMB      90              0.0000000000
     50119      1350  PPPE      H7S            36.4686240738      -28.1646836016       -8.6776905142  MEMB      90              0.0000000000
     50120      1350  PPPE      C28            34.3831227210      -27.9264893355       -7.9704278306  MEMB      90              0.0000000000
     50121      1350  PPPE      H8R            34.3057453660      -29.0001166107       -7.6953674393  MEMB      90              0.0000000000
     50122      1350  PPPE      H8S            33.4012318905      -27.8217830787       -8.4795918483  MEMB      90              0.0000000000
     50123      1350  PPPE      C29            34.4505385467      -27.0142789494       -6.7393199985  MEMB      90              0.0000000000
     50124      1350  PPPE      H91            35.3279901528      -26.3517782111       -6.7735464622  MEMB      90              0.0000000000
     50125      1350  PPPE      C210           33.7940714708      -27.1206969599       -5.5588125495  MEMB      90              0.0000000000
     50126      1350  PPPE      H101           33.9352682626      -26.3721408344       -4.7652590270  MEMB      90              0.0000000000
     50127      1350  PPPE      C211           32.8793991975      -28.1201203042       -5.0758759765  MEMB      90              0.0000000000
     50128      1350  PPPE      H11R           32.8249669220      -29.0411080415       -5.6948587833  MEMB      90              0.0000000000
     50129      1350  PPPE      H11S           31.8512422303      -27.7001560505       -5.0468195410  MEMB      90              0.0000000000
     50130      1350  PPPE      C212           33.2232687837      -28.7545548628       -3.6688946788  MEMB      90              0.0000000000
     50131      1350  PPPE      H12R           34.2994586285      -28.9928353102       -3.5297586066  MEMB      90              0.0000000000
     50132      1350  PPPE      H12S           32.7660267204      -29.7662364318       -3.6270485516  MEMB      90              0.0000000000
     50133      1350  PPPE      C213           32.7761361605      -27.8810822492       -2.4263714059  MEMB      90              0.0000000000
     50134      1350  PPPE      H13R           31.6845766557      -27.6965056065       -2.3328283109  MEMB      90              0.0000000000
     50135      1350  PPPE      H13S           33.2158651609      -26.8686938972       -2.5529780049  MEMB      90              0.0000000000
     50136      1350  PPPE      C214           33.3436092355      -28.5280780170       -1.1925421936  MEMB      90              0.0000000000
     50137      1350  PPPE      H14R           34.4321277900      -28.6843022189       -1.3507899587  MEMB      90              0.0000000000
     50138      1350  PPPE      H14S           32.7534101223      -29.4686111617       -1.1553479669  MEMB      90              0.0000000000
     50139      1350  PPPE      C215           33.2324910352      -27.6492334996        0.1122818484  MEMB      90              0.0000000000
     50140      1350  PPPE      H15R           33.9255826831      -28.1907364066        0.7910451129  MEMB      90              0.0000000000
     50141      1350  PPPE      H15S           32.2441186434      -27.7966140362        0.5977918820  MEMB      90              0.0000000000
     50142      1350  PPPE      C216           33.7529059685      -26.2362588244        0.0053089907  MEMB      90              0.0000000000
     50143      1350  PPPE      H16R           34.7086835427      -26.3490222335       -0.5497537465  MEMB      90              0.0000000000
     50144      1350  PPPE      H16S           32.9847104394      -25.6566381530       -0.5498815229  MEMB      90              0.0000000000
     50145      1350  PPPE      H16T           34.0145700082      -25.8200182462        1.0016004699  MEMB      90              0.0000000000
     50146      1350  PPPE      C33            31.1383478938      -29.1878403259      -14.3211454396  MEMB      90              0.0000000000
     50147      1350  PPPE      H3X            32.0949458425      -29.1019894298      -14.8795995453  MEMB      90              0.0000000000
     50148      1350  PPPE      H3Y            30.8521333627      -30.2613389871      -14.3194523043  MEMB      90              0.0000000000
     50149      1350  PPPE      C34            31.1805813633      -28.5178845667      -12.9315944399  MEMB      90              0.0000000000
     50150      1350  PPPE      H4X            31.8152640944      -27.6104826603      -13.0217088726  MEMB      90              0.0000000000
     50151      1350  PPPE      H4Y            31.6890504755      -29.2122663226      -12.2290176549  MEMB      90              0.0000000000
     50152      1350  PPPE      C35            29.8025180114      -28.1965591265      -12.2503320946  MEMB      90              0.0000000000
     50153      1350  PPPE      H5X            29.2183128579      -29.1396268242      -12.1899279871  MEMB      90              0.0000000000
     50154      1350  PPPE      H5Y            29.1095956000      -27.5507754922      -12.8309722839  MEMB      90              0.0000000000
     50155      1350  PPPE      C36            29.9239662284      -27.7092181122      -10.8312560820  MEMB      90              0.0000000000
     50156      1350  PPPE      H6X            28.9242707647      -27.3402954462      -10.5168899798  MEMB      90              0.0000000000
     50157      1350  PPPE      H6Y            30.6146490198      -26.8392060110      -10.8123556763  MEMB      90              0.0000000000
     50158      1350  PPPE      C37            30.4208695025      -28.7961680771       -9.7890619950  MEMB      90              0.0000000000
     50159      1350  PPPE      H7X            30.5952813889      -28.2851121145       -8.8181226061  MEMB      90              0.0000000000
     50160      1350  PPPE      H7Y            31.4474548367      -29.0944367995      -10.0915174808  MEMB      90              0.0000000000
     50161      1350  PPPE      C38            29.5057953864      -29.9885197582       -9.5363109545  MEMB      90              0.0000000000
     50162      1350  PPPE      H8X            29.7444941381      -30.6578444273      -10.3903299199  MEMB      90              0.0000000000
     50163      1350  PPPE      H8Y            28.4327313360      -29.7006954475       -9.5328889798  MEMB      90              0.0000000000
     50164      1350  PPPE      C39            29.6879513655      -30.6973299784       -8.1788980722  MEMB      90              0.0000000000
     50165      1350  PPPE      H9X            30.6861387475      -31.1834613178       -8.2191382407  MEMB      90              0.0000000000
     50166      1350  PPPE      H9Y            28.9052220072      -31.4725388688       -8.0349990521  MEMB      90              0.0000000000
     50167      1350  PPPE      C310           29.4531085609      -29.8219751965       -6.9032754967  MEMB      90              0.0000000000
     50168      1350  PPPE      H10X           28.3886417768      -29.5055152853       -6.9362086121  MEMB      90              0.0000000000
     50169      1350  PPPE      H10Y           30.2254208410      -29.0254533432       -6.8449001653  MEMB      90              0.0000000000
     50170      1350  PPPE      C311           29.6491365662      -30.6110948394       -5.5520104180  MEMB      90              0.0000000000
     50171      1350  PPPE      H11X           30.6814815118      -31.0132810206       -5.4693594108  MEMB      90              0.0000000000
     50172      1350  PPPE      H11Y           28.9846188012      -31.4988487084       -5.6200560501  MEMB      90              0.0000000000
     50173      1350  PPPE      C312           29.2648132527      -29.8256886153       -4.3469503528  MEMB      90              0.0000000000
     50174      1350  PPPE      H12X           28.2124653316      -29.4936989485       -4.4760538542  MEMB      90              0.0000000000
     50175      1350  PPPE      H12Y           29.9277276182      -28.9350472507       -4.3872430738  MEMB      90              0.0000000000
     50176      1350  PPPE      C313           29.4448267464      -30.3809023316       -2.9310946745  MEMB      90              0.0000000000
     50177      1350  PPPE      H13X           30.5475354236      -30.3963461763       -2.7964987577  MEMB      90              0.0000000000
     50178      1350  PPPE      H13Y           29.0614564084      -31.4133081264       -2.7845120742  MEMB      90              0.0000000000
     50179      1350  PPPE      C314           29.0318292407      -29.5524275891       -1.7513316911  MEMB      90              0.0000000000
     50180      1350  PPPE      H14X           27.9302607970      -29.4080000927       -1.7542748688  MEMB      90              0.0000000000
     50181      1350  PPPE      H14Y           29.4808886115      -28.5629693001       -1.9829325893  MEMB      90              0.0000000000
     50182      1350  PPPE      C315           29.4054765959      -30.0887744028       -0.4789267483  MEMB      90              0.0000000000
     50183      1350  PPPE      H15X           30.4267347215      -30.4576495311       -0.7140522052  MEMB      90              0.0000000000
     50184      1350  PPPE      H15Y           28.8208478633      -30.9471600638       -0.0843329038  MEMB      90              0.0000000000
     50185      1350  PPPE      C316           29.5389309248      -29.1027468015        0.6889260605  MEMB      90              0.0000000000
     50186      1350  PPPE      H16X           28.5295951931      -28.7391755308        0.9776790898  MEMB      90              0.0000000000
     50187      1350  PPPE      H16Y           29.8253203892      -29.7625718157        1.5356450370  MEMB      90              0.0000000000
     50188      1350  PPPE      H16Z           30.2298421119      -28.2433878606        0.5530402910  MEMB      90              0.0000000000
     50189      1351  PPPE      N             -31.7364644112      -32.3489551827      -20.8128936841  MEMB      91              0.0000000000
     50190      1351  PPPE      HN1           -31.0163702911      -32.7401513453      -21.4532295495  MEMB      91              0.0000000000
     50191      1351  PPPE      HN2           -32.5550631815      -32.9898270370      -20.7849773897  MEMB      91              0.0000000000
     50192      1351  PPPE      HN3           -32.0460094862      -31.4007835936      -21.1074314307  MEMB      91              0.0000000000
     50193      1351  PPPE      C12           -31.1600916670      -32.3900478606      -19.4089668720  MEMB      91              0.0000000000
     50194      1351  PPPE      H12A          -30.2178724073      -31.8050181611      -19.3435137030  MEMB      91              0.0000000000
     50195      1351  PPPE      H12B          -30.8795588884      -33.4391050622      -19.1742301090  MEMB      91              0.0000000000
     50196      1351  PPPE      C11           -32.3329049326      -32.1584793013      -18.4264234199  MEMB      91              0.0000000000
     50197      1351  PPPE      H11A          -31.9612286313      -32.2084070019      -17.3806294862  MEMB      91              0.0000000000
     50198      1351  PPPE      H11B          -33.0426662069      -32.9872342860      -18.6355289174  MEMB      91              0.0000000000
     50199      1351  PPPE      P             -34.4720177697      -30.7130598283      -18.7262699548  MEMB      91              0.0000000000
     50200      1351  PPPE      O13           -34.6715257059      -29.3095771623      -19.1198879124  MEMB      91              0.0000000000
     50201      1351  PPPE      O14           -35.1389842731      -31.6806615597      -19.6536139484  MEMB      91              0.0000000000
     50202      1351  PPPE      O11           -35.0706197288      -31.0132551554      -17.2871782071  MEMB      91              0.0000000000
     50203      1351  PPPE      O12           -32.9315410852      -30.8992463351      -18.5647662638  MEMB      91              0.0000000000
     50204      1351  PPPE      C1            -34.5442360654      -30.1124628388      -16.2675161377  MEMB      91              0.0000000000
     50205      1351  PPPE      HA            -34.9582901437      -29.0924277777      -16.4172114768  MEMB      91              0.0000000000
     50206      1351  PPPE      HB            -33.4384060548      -30.1468977277      -16.1661493485  MEMB      91              0.0000000000
     50207      1351  PPPE      C2            -35.1038568569      -30.5257406578      -14.8536493132  MEMB      91              0.0000000000
     50208      1351  PPPE      HS            -34.6211084230      -29.7951392813      -14.1699120990  MEMB      91              0.0000000000
     50209      1351  PPPE      O21           -34.8726851866      -31.8489730900      -14.5672921790  MEMB      91              0.0000000000
     50210      1351  PPPE      C21           -33.6311874043      -32.0830842096      -14.2472690181  MEMB      91              0.0000000000
     50211      1351  PPPE      O22           -32.7631237193      -31.2428288433      -14.0122121465  MEMB      91              0.0000000000
     50212      1351  PPPE      C22           -33.4030434690      -33.5297001150      -14.2098452732  MEMB      91              0.0000000000
     50213      1351  PPPE      H2R           -32.4416750991      -33.7404072699      -13.6943897928  MEMB      91              0.0000000000
     50214      1351  PPPE      H2S           -33.0612169159      -33.8637808421      -15.2127738227  MEMB      91              0.0000000000
     50215      1351  PPPE      C3            -36.6419025521      -30.2647772070      -14.6119034543  MEMB      91              0.0000000000
     50216      1351  PPPE      HX            -36.8119099225      -29.2128177759      -14.9262278876  MEMB      91              0.0000000000
     50217      1351  PPPE      HY            -37.3077457312      -30.8591486922      -15.2734897287  MEMB      91              0.0000000000
     50218      1351  PPPE      O31           -36.9297163518      -30.2517699455      -13.2486522292  MEMB      91              0.0000000000
     50219      1351  PPPE      C31           -37.3265112682      -31.3963743083      -12.6872617716  MEMB      91              0.0000000000
     50220      1351  PPPE      O32           -37.5013824934      -32.4509808941      -13.2624240975  MEMB      91              0.0000000000
     50221      1351  PPPE      C32           -37.7122187814      -31.1387214611      -11.2790626081  MEMB      91              0.0000000000
     50222      1351  PPPE      H2X           -37.9391274508      -32.1482523195      -10.8744876438  MEMB      91              0.0000000000
     50223      1351  PPPE      H2Y           -38.6262553447      -30.5190635189      -11.4010552136  MEMB      91              0.0000000000
     50224      1351  PPPE      C23           -34.5653490590      -34.3594028964      -13.4859977839  MEMB      91              0.0000000000
     50225      1351  PPPE      H3R           -34.3857901496      -35.3818157796      -13.8819163291  MEMB      91              0.0000000000
     50226      1351  PPPE      H3S           -35.5532637968      -34.1160416225      -13.9322272778  MEMB      91              0.0000000000
     50227      1351  PPPE      C24           -34.7008293709      -34.2664918786      -12.0013548920  MEMB      91              0.0000000000
     50228      1351  PPPE      H4R           -34.7702349850      -33.1911780661      -11.7307923940  MEMB      91              0.0000000000
     50229      1351  PPPE      H4S           -33.7825725704      -34.5068167454      -11.4239733833  MEMB      91              0.0000000000
     50230      1351  PPPE      C25           -35.9005879434      -35.0923807319      -11.4454600057  MEMB      91              0.0000000000
     50231      1351  PPPE      H5R           -35.6226171243      -36.1649219563      -11.5273657185  MEMB      91              0.0000000000
     50232      1351  PPPE      H5S           -36.7657839391      -34.9435275062      -12.1263414977  MEMB      91              0.0000000000
     50233      1351  PPPE      C26           -36.1781227881      -34.8606710793      -10.0026861349  MEMB      91              0.0000000000
     50234      1351  PPPE      H6R           -37.2525076961      -34.9513490036       -9.7347391560  MEMB      91              0.0000000000
     50235      1351  PPPE      H6S           -35.9170876954      -33.8052282260       -9.7741646620  MEMB      91              0.0000000000
     50236      1351  PPPE      C27           -35.3459143540      -35.7057575683       -9.0477433179  MEMB      91              0.0000000000
     50237      1351  PPPE      H7R           -34.3079705408      -35.6027156490       -9.4303344882  MEMB      91              0.0000000000
     50238      1351  PPPE      H7S           -35.7077000116      -36.7353007585       -9.2562450143  MEMB      91              0.0000000000
     50239      1351  PPPE      C28           -35.5294661739      -35.2217961721       -7.5493675840  MEMB      91              0.0000000000
     50240      1351  PPPE      H8R           -34.8990769904      -35.9061769775       -6.9422816012  MEMB      91              0.0000000000
     50241      1351  PPPE      H8S           -36.5608125390      -35.4393368527       -7.1981956493  MEMB      91              0.0000000000
     50242      1351  PPPE      C29           -34.9462728409      -33.8184254127       -7.3630265622  MEMB      91              0.0000000000
     50243      1351  PPPE      H91           -35.6735272419      -32.9991919191       -7.4628139325  MEMB      91              0.0000000000
     50244      1351  PPPE      C210          -33.7615786890      -33.5002515017       -6.9119601121  MEMB      91              0.0000000000
     50245      1351  PPPE      H101          -33.5208926785      -32.4296502584       -6.8352579468  MEMB      91              0.0000000000
     50246      1351  PPPE      C211          -32.6571657254      -34.3946146074       -6.4795374575  MEMB      91              0.0000000000
     50247      1351  PPPE      H11R          -31.7347976435      -33.8351208095       -6.7451025371  MEMB      91              0.0000000000
     50248      1351  PPPE      H11S          -32.5647212909      -35.3573534339       -7.0262631459  MEMB      91              0.0000000000
     50249      1351  PPPE      C212          -32.7004557344      -34.7823498692       -5.0086305169  MEMB      91              0.0000000000
     50250      1351  PPPE      H12R          -31.6852258147      -35.0858482145       -4.6746874610  MEMB      91              0.0000000000
     50251      1351  PPPE      H12S          -33.4728226653      -35.5627167532       -4.8389312228  MEMB      91              0.0000000000
     50252      1351  PPPE      C213          -33.1375393336      -33.6074505941       -4.0260490319  MEMB      91              0.0000000000
     50253      1351  PPPE      H13R          -34.2480408944      -33.5790788166       -4.0434365464  MEMB      91              0.0000000000
     50254      1351  PPPE      H13S          -32.8142991758      -32.6019715755       -4.3707934929  MEMB      91              0.0000000000
     50255      1351  PPPE      C214          -32.7053202953      -33.8970540166       -2.5779387032  MEMB      91              0.0000000000
     50256      1351  PPPE      H14R          -33.1291395304      -34.8566011734       -2.2119229797  MEMB      91              0.0000000000
     50257      1351  PPPE      H14S          -33.2606662903      -33.1650857148       -1.9533314419  MEMB      91              0.0000000000
     50258      1351  PPPE      C215          -31.1951313340      -33.8624121513       -2.3493117256  MEMB      91              0.0000000000
     50259      1351  PPPE      H15R          -30.7482518888      -32.9481275527       -2.7950733593  MEMB      91              0.0000000000
     50260      1351  PPPE      H15S          -30.6448505295      -34.6417524537       -2.9186453091  MEMB      91              0.0000000000
     50261      1351  PPPE      C216          -30.6487625573      -34.0014054341       -0.9141081546  MEMB      91              0.0000000000
     50262      1351  PPPE      H16R          -30.6820194060      -35.0797384801       -0.6487540067  MEMB      91              0.0000000000
     50263      1351  PPPE      H16S          -29.6094477792      -33.6127951734       -0.8581809042  MEMB      91              0.0000000000
     50264      1351  PPPE      H16T          -31.2578897273      -33.3283668075       -0.2735583143  MEMB      91              0.0000000000
     50265      1351  PPPE      C33           -36.5562316310      -30.6515014828      -10.3768392377  MEMB      91              0.0000000000
     50266      1351  PPPE      H3X           -35.7020332248      -31.1872056306      -10.8434087919  MEMB      91              0.0000000000
     50267      1351  PPPE      H3Y           -36.7372951187      -30.8698553025       -9.3026611226  MEMB      91              0.0000000000
     50268      1351  PPPE      C34           -36.3127894411      -29.1236636336      -10.5401392079  MEMB      91              0.0000000000
     50269      1351  PPPE      H4X           -37.2570390020      -28.5418037436      -10.4756967127  MEMB      91              0.0000000000
     50270      1351  PPPE      H4Y           -35.8051430091      -28.8976713131      -11.5021909587  MEMB      91              0.0000000000
     50271      1351  PPPE      C35           -35.4109896777      -28.5882343432       -9.3946957413  MEMB      91              0.0000000000
     50272      1351  PPPE      H5X           -36.1034529035      -28.7108728732       -8.5345937288  MEMB      91              0.0000000000
     50273      1351  PPPE      H5Y           -35.2436294069      -27.4963922859       -9.5138278596  MEMB      91              0.0000000000
     50274      1351  PPPE      C36           -34.0557440544      -29.2795040242       -9.0801069148  MEMB      91              0.0000000000
     50275      1351  PPPE      H6X           -33.4806649458      -29.0767687891      -10.0088175497  MEMB      91              0.0000000000
     50276      1351  PPPE      H6Y           -34.2864662475      -30.3402874205       -8.8438298411  MEMB      91              0.0000000000
     50277      1351  PPPE      C37           -33.4414415643      -28.6697287510       -7.8201819025  MEMB      91              0.0000000000
     50278      1351  PPPE      H7X           -32.9571244681      -27.7199737294       -8.1327892425  MEMB      91              0.0000000000
     50279      1351  PPPE      H7Y           -32.5649766434      -29.2190214389       -7.4147096034  MEMB      91              0.0000000000
     50280      1351  PPPE      C38           -34.3291490528      -28.3077906166       -6.6218303276  MEMB      91              0.0000000000
     50281      1351  PPPE      H8X           -35.0906987385      -27.5265050096       -6.8314868956  MEMB      91              0.0000000000
     50282      1351  PPPE      H8Y           -33.6950384906      -27.9447908048       -5.7848978742  MEMB      91              0.0000000000
     50283      1351  PPPE      C39           -35.0742634378      -29.4870660238       -6.0602545081  MEMB      91              0.0000000000
     50284      1351  PPPE      H9X           -34.3073899399      -30.2909388094       -6.0564357672  MEMB      91              0.0000000000
     50285      1351  PPPE      H9Y           -35.9482376959      -29.8331526318       -6.6524656665  MEMB      91              0.0000000000
     50286      1351  PPPE      C310          -35.4965866023      -29.2567373105       -4.6230211845  MEMB      91              0.0000000000
     50287      1351  PPPE      H10X          -36.2691593029      -28.4701409742       -4.4862051550  MEMB      91              0.0000000000
     50288      1351  PPPE      H10Y          -34.6057085700      -28.9013621104       -4.0623378525  MEMB      91              0.0000000000
     50289      1351  PPPE      C311          -35.9939053309      -30.3983971249       -3.8060018250  MEMB      91              0.0000000000
     50290      1351  PPPE      H11X          -36.1330699329      -30.2007863778       -2.7216106566  MEMB      91              0.0000000000
     50291      1351  PPPE      H11Y          -35.2726940245      -31.2294283608       -3.9595021063  MEMB      91              0.0000000000
     50292      1351  PPPE      C312          -37.4001131395      -30.8516453103       -4.2851031697  MEMB      91              0.0000000000
     50293      1351  PPPE      H12X          -37.2960354412      -31.4778987154       -5.1968572513  MEMB      91              0.0000000000
     50294      1351  PPPE      H12Y          -38.0362531785      -29.9600983049       -4.4716260581  MEMB      91              0.0000000000
     50295      1351  PPPE      C313          -38.0977186931      -31.7161177117       -3.1298049779  MEMB      91              0.0000000000
     50296      1351  PPPE      H13X          -39.1369291168      -31.8191937258       -3.5089329649  MEMB      91              0.0000000000
     50297      1351  PPPE      H13Y          -38.0544376657      -31.0530131167       -2.2394454725  MEMB      91              0.0000000000
     50298      1351  PPPE      C314          -37.5353247983      -33.1444239680       -2.8774512950  MEMB      91              0.0000000000
     50299      1351  PPPE      H14X          -36.4493648530      -32.9330784679       -2.7757405434  MEMB      91              0.0000000000
     50300      1351  PPPE      H14Y          -37.5857209359      -33.6851519775       -3.8466749271  MEMB      91              0.0000000000
     50301      1351  PPPE      C315          -38.0959092215      -33.8914926747       -1.6677893333  MEMB      91              0.0000000000
     50302      1351  PPPE      H15X          -37.7546577362      -34.9475142882       -1.7196234511  MEMB      91              0.0000000000
     50303      1351  PPPE      H15Y          -39.1693363396      -34.0912783173       -1.8731205757  MEMB      91              0.0000000000
     50304      1351  PPPE      C316          -37.8460547187      -33.2382206389       -0.2752736785  MEMB      91              0.0000000000
     50305      1351  PPPE      H16X          -38.0703687924      -33.9736319825        0.5267078376  MEMB      91              0.0000000000
     50306      1351  PPPE      H16Y          -36.8074979611      -32.8644157266       -0.1488191465  MEMB      91              0.0000000000
     50307      1351  PPPE      H16Z          -38.5175479145      -32.3664678996       -0.1220906200  MEMB      91              0.0000000000
     50308      1352  PPPE      N             -37.2141030984       33.3185418132      -18.0993543686  MEMB      92              0.0000000000
     50309      1352  PPPE      HN1           -36.5432169812       33.3084940197      -17.3047407144  MEMB      92              0.0000000000
     50310      1352  PPPE      HN2           -37.9432916477       34.0427754601      -17.9400757317  MEMB      92              0.0000000000
     50311      1352  PPPE      HN3           -37.7340658311       32.4182569872      -18.1262985473  MEMB      92              0.0000000000
     50312      1352  PPPE      C12           -36.6236946725       33.4658336263      -19.4910729129  MEMB      92              0.0000000000
     50313      1352  PPPE      H12A          -36.0658482029       34.4265990535      -19.4986959310  MEMB      92              0.0000000000
     50314      1352  PPPE      H12B          -37.4740274977       33.5155434657      -20.2043638900  MEMB      92              0.0000000000
     50315      1352  PPPE      C11           -35.8027624708       32.2258504384      -19.9238570546  MEMB      92              0.0000000000
     50316      1352  PPPE      H11A          -35.4827883026       32.4141026732      -20.9709953587  MEMB      92              0.0000000000
     50317      1352  PPPE      H11B          -36.5879892863       31.4412425280      -19.8777021503  MEMB      92              0.0000000000
     50318      1352  PPPE      P             -34.2255003665       30.4251344667      -18.8925234744  MEMB      92              0.0000000000
     50319      1352  PPPE      O13           -34.8250265770       29.7916154535      -17.7267085245  MEMB      92              0.0000000000
     50320      1352  PPPE      O14           -34.4764313894       29.7875488544      -20.2137990653  MEMB      92              0.0000000000
     50321      1352  PPPE      O11           -32.7158294259       30.5534157854      -18.6317235578  MEMB      92              0.0000000000
     50322      1352  PPPE      O12           -34.7154473916       31.9744945441      -19.0209614234  MEMB      92              0.0000000000
     50323      1352  PPPE      C1            -32.0960124700       31.7337751688      -18.1185174309  MEMB      92              0.0000000000
     50324      1352  PPPE      HA            -32.8203515750       32.5006546665      -17.7698776496  MEMB      92              0.0000000000
     50325      1352  PPPE      HB            -31.4414231249       32.0996294962      -18.9382639773  MEMB      92              0.0000000000
     50326      1352  PPPE      C2            -31.2052833659       31.4556659798      -16.9513788999  MEMB      92              0.0000000000
     50327      1352  PPPE      HS            -30.4246565587       30.7035982601      -17.1949706338  MEMB      92              0.0000000000
     50328      1352  PPPE      O21           -32.0300092355       30.9398271964      -15.9489645802  MEMB      92              0.0000000000
     50329      1352  PPPE      C21           -31.5064261714       30.3186655702      -14.9416577661  MEMB      92              0.0000000000
     50330      1352  PPPE      O22           -30.3336420878       30.0596971071      -14.6569411922  MEMB      92              0.0000000000
     50331      1352  PPPE      C22           -32.6586762038       29.8705418193      -14.0177212478  MEMB      92              0.0000000000
     50332      1352  PPPE      H2R           -32.4460386664       28.8081223331      -13.7720159102  MEMB      92              0.0000000000
     50333      1352  PPPE      H2S           -33.6579000172       29.9629579310      -14.4945147386  MEMB      92              0.0000000000
     50334      1352  PPPE      C3            -30.4791439427       32.7082769657      -16.4047554031  MEMB      92              0.0000000000
     50335      1352  PPPE      HX            -29.9396344071       32.3616548569      -15.4975048453  MEMB      92              0.0000000000
     50336      1352  PPPE      HY            -29.7919991069       33.1702953693      -17.1454928528  MEMB      92              0.0000000000
     50337      1352  PPPE      O31           -31.5214085111       33.6477714634      -16.0387156099  MEMB      92              0.0000000000
     50338      1352  PPPE      C31           -31.0827331154       34.5892836682      -15.2256781053  MEMB      92              0.0000000000
     50339      1352  PPPE      O32           -29.9044428195       34.6366902027      -14.8563405452  MEMB      92              0.0000000000
     50340      1352  PPPE      C32           -32.2163541020       35.5044542309      -14.7935072184  MEMB      92              0.0000000000
     50341      1352  PPPE      H2X           -32.5342259325       36.0278219728      -15.7205264772  MEMB      92              0.0000000000
     50342      1352  PPPE      H2Y           -31.8037021761       36.2953493387      -14.1312955328  MEMB      92              0.0000000000
     50343      1352  PPPE      C23           -32.6096930594       30.8341819464      -12.8285809997  MEMB      92              0.0000000000
     50344      1352  PPPE      H3R           -33.2181020194       31.7236807914      -13.0986760612  MEMB      92              0.0000000000
     50345      1352  PPPE      H3S           -31.6221622321       31.2965633670      -12.6157259148  MEMB      92              0.0000000000
     50346      1352  PPPE      C24           -33.2058397150       30.0805454859      -11.6247504745  MEMB      92              0.0000000000
     50347      1352  PPPE      H4R           -32.5173006655       29.2456716610      -11.3733132577  MEMB      92              0.0000000000
     50348      1352  PPPE      H4S           -34.1901049146       29.6705049367      -11.9368558487  MEMB      92              0.0000000000
     50349      1352  PPPE      C25           -33.4634910546       30.9703024315      -10.3259656963  MEMB      92              0.0000000000
     50350      1352  PPPE      H5R           -34.3418108152       31.5867994894      -10.6137273613  MEMB      92              0.0000000000
     50351      1352  PPPE      H5S           -32.6103602777       31.5245013050       -9.8794766302  MEMB      92              0.0000000000
     50352      1352  PPPE      C26           -33.8761356616       30.0580790407       -9.2142015287  MEMB      92              0.0000000000
     50353      1352  PPPE      H6R           -34.5540078800       29.2678009805       -9.6018493626  MEMB      92              0.0000000000
     50354      1352  PPPE      H6S           -34.4639895379       30.7074998608       -8.5308265082  MEMB      92              0.0000000000
     50355      1352  PPPE      C27           -32.6837141724       29.5489043952       -8.3214622449  MEMB      92              0.0000000000
     50356      1352  PPPE      H7R           -32.2601958328       30.4372076881       -7.8058359500  MEMB      92              0.0000000000
     50357      1352  PPPE      H7S           -31.9009026207       29.1288307290       -8.9885943080  MEMB      92              0.0000000000
     50358      1352  PPPE      C28           -32.9843543010       28.4684458585       -7.3062910134  MEMB      92              0.0000000000
     50359      1352  PPPE      H8R           -32.0117813114       28.0477762082       -6.9724350187  MEMB      92              0.0000000000
     50360      1352  PPPE      H8S           -33.6586670948       27.7655153525       -7.8406242052  MEMB      92              0.0000000000
     50361      1352  PPPE      C29           -33.6443548802       28.8682579686       -5.9715598117  MEMB      92              0.0000000000
     50362      1352  PPPE      H91           -34.7312606029       28.7086610318       -5.9153035432  MEMB      92              0.0000000000
     50363      1352  PPPE      C210          -33.0687093785       29.3969219981       -4.8853849794  MEMB      92              0.0000000000
     50364      1352  PPPE      H101          -33.6441123983       29.3729710577       -3.9481882459  MEMB      92              0.0000000000
     50365      1352  PPPE      C211          -31.6193667339       29.6894444294       -4.6244341141  MEMB      92              0.0000000000
     50366      1352  PPPE      H11R          -31.0516255331       29.9919900915       -5.5302249571  MEMB      92              0.0000000000
     50367      1352  PPPE      H11S          -31.1758924412       28.7455189708       -4.2414768311  MEMB      92              0.0000000000
     50368      1352  PPPE      C212          -31.3803491719       30.8754286744       -3.6936949703  MEMB      92              0.0000000000
     50369      1352  PPPE      H12R          -31.8774994579       31.7797446650       -4.1052471327  MEMB      92              0.0000000000
     50370      1352  PPPE      H12S          -30.2826478040       31.0467659204       -3.6896632236  MEMB      92              0.0000000000
     50371      1352  PPPE      C213          -31.6855975127       30.7025314662       -2.1855766511  MEMB      92              0.0000000000
     50372      1352  PPPE      H13R          -32.7844908048       30.5624683100       -2.2700565004  MEMB      92              0.0000000000
     50373      1352  PPPE      H13S          -31.3929188220       31.6434783431       -1.6724692951  MEMB      92              0.0000000000
     50374      1352  PPPE      C214          -30.9691311263       29.6159990070       -1.4306005356  MEMB      92              0.0000000000
     50375      1352  PPPE      H14R          -30.0083380688       29.9452233945       -0.9802573294  MEMB      92              0.0000000000
     50376      1352  PPPE      H14S          -30.7165493031       28.7093284860       -2.0209156964  MEMB      92              0.0000000000
     50377      1352  PPPE      C215          -31.9116513245       29.2230594188       -0.3061343757  MEMB      92              0.0000000000
     50378      1352  PPPE      H15R          -31.3199577580       28.4387569271        0.2126038289  MEMB      92              0.0000000000
     50379      1352  PPPE      H15S          -32.8066478221       28.6717937911       -0.6658682731  MEMB      92              0.0000000000
     50380      1352  PPPE      C216          -32.1327126059       30.3172311004        0.7857706061  MEMB      92              0.0000000000
     50381      1352  PPPE      H16R          -31.2195045627       30.5359877079        1.3795025460  MEMB      92              0.0000000000
     50382      1352  PPPE      H16S          -32.6175725064       31.1698537053        0.2639789135  MEMB      92              0.0000000000
     50383      1352  PPPE      H16T          -32.8537602007       29.8791335832        1.5085997224  MEMB      92              0.0000000000
     50384      1352  PPPE      C33           -33.3299589422       34.7209456532      -14.0708987815  MEMB      92              0.0000000000
     50385      1352  PPPE      H3X           -33.4849568216       33.7011672176      -14.4836318668  MEMB      92              0.0000000000
     50386      1352  PPPE      H3Y           -34.3004339208       35.2367304827      -14.2335804508  MEMB      92              0.0000000000
     50387      1352  PPPE      C34           -33.2480355089       34.3664630033      -12.5275449497  MEMB      92              0.0000000000
     50388      1352  PPPE      H4X           -32.3202675701       33.8592119262      -12.1865698824  MEMB      92              0.0000000000
     50389      1352  PPPE      H4Y           -34.0411051575       33.5903456933      -12.5823487240  MEMB      92              0.0000000000
     50390      1352  PPPE      C35           -33.5608120555       35.5039259617      -11.5446685170  MEMB      92              0.0000000000
     50391      1352  PPPE      H5X           -34.4893693301       36.0251681247      -11.8615423014  MEMB      92              0.0000000000
     50392      1352  PPPE      H5Y           -32.7135809771       36.2088164529      -11.6848466010  MEMB      92              0.0000000000
     50393      1352  PPPE      C36           -33.6536042307       34.9486208278      -10.1459873668  MEMB      92              0.0000000000
     50394      1352  PPPE      H6X           -32.6503459367       34.5795447426       -9.8433710442  MEMB      92              0.0000000000
     50395      1352  PPPE      H6Y           -34.2790120310       34.0303692220      -10.1462555334  MEMB      92              0.0000000000
     50396      1352  PPPE      C37           -34.1015626059       35.9346331896       -9.0291014904  MEMB      92              0.0000000000
     50397      1352  PPPE      H7X           -35.1760708090       36.2156925943       -9.0015563907  MEMB      92              0.0000000000
     50398      1352  PPPE      H7Y           -33.4765818437       36.8315093521       -9.2274274749  MEMB      92              0.0000000000
     50399      1352  PPPE      C38           -33.6820735928       35.3844877027       -7.6887549119  MEMB      92              0.0000000000
     50400      1352  PPPE      H8X           -33.4526914621       36.2584662384       -7.0423290792  MEMB      92              0.0000000000
     50401      1352  PPPE      H8Y           -32.7113006912       34.8442555866       -7.6971355056  MEMB      92              0.0000000000
     50402      1352  PPPE      C39           -34.6943244063       34.3436275845       -7.1048964792  MEMB      92              0.0000000000
     50403      1352  PPPE      H9X           -34.7751224261       33.4222396402       -7.7203937871  MEMB      92              0.0000000000
     50404      1352  PPPE      H9Y           -35.7130757093       34.7829482651       -7.1637532738  MEMB      92              0.0000000000
     50405      1352  PPPE      C310          -34.5369941440       33.9025326766       -5.6089974920  MEMB      92              0.0000000000
     50406      1352  PPPE      H10X          -34.3114362240       34.8738969076       -5.1192055408  MEMB      92              0.0000000000
     50407      1352  PPPE      H10Y          -33.6713179230       33.2104439331       -5.6860614386  MEMB      92              0.0000000000
     50408      1352  PPPE      C311          -35.7742237533       33.1285730718       -5.0877847299  MEMB      92              0.0000000000
     50409      1352  PPPE      H11X          -36.0532444424       32.4248630379       -5.9009640725  MEMB      92              0.0000000000
     50410      1352  PPPE      H11Y          -36.6052069842       33.8598657129       -4.9929219712  MEMB      92              0.0000000000
     50411      1352  PPPE      C312          -35.5150754969       32.3924928705       -3.7409460085  MEMB      92              0.0000000000
     50412      1352  PPPE      H12X          -34.9890649589       31.4144858454       -3.7746531694  MEMB      92              0.0000000000
     50413      1352  PPPE      H12Y          -36.5503690651       32.1280904220       -3.4366770930  MEMB      92              0.0000000000
     50414      1352  PPPE      C313          -34.8894801507       33.3605919427       -2.7182904471  MEMB      92              0.0000000000
     50415      1352  PPPE      H13X          -35.4229826338       34.3285246655       -2.6051429999  MEMB      92              0.0000000000
     50416      1352  PPPE      H13Y          -33.8270786838       33.5114654434       -3.0061468518  MEMB      92              0.0000000000
     50417      1352  PPPE      C314          -35.0347024755       32.6968544741       -1.2689546105  MEMB      92              0.0000000000
     50418      1352  PPPE      H14X          -34.7114195176       33.4909424281       -0.5623900697  MEMB      92              0.0000000000
     50419      1352  PPPE      H14Y          -34.2151417016       31.9496894241       -1.2027313069  MEMB      92              0.0000000000
     50420      1352  PPPE      C315          -36.3942375035       32.0748359026       -0.8974692320  MEMB      92              0.0000000000
     50421      1352  PPPE      H15X          -36.6754248457       31.2397983449       -1.5742017905  MEMB      92              0.0000000000
     50422      1352  PPPE      H15Y          -37.1416870544       32.8948922083       -0.9535747087  MEMB      92              0.0000000000
     50423      1352  PPPE      C316          -36.3713038383       31.6897220333        0.5489705814  MEMB      92              0.0000000000
     50424      1352  PPPE      H16X          -35.6494656022       30.8549384075        0.6770598432  MEMB      92              0.0000000000
     50425      1352  PPPE      H16Y          -36.0894152424       32.5249639715        1.2251589604  MEMB      92              0.0000000000
     50426      1352  PPPE      H16Z          -37.3941233636       31.3987436675        0.8706735645  MEMB      92              0.0000000000
     50427      1353  PPPE      N              31.1814652553       32.3499992384      -21.4255954473  MEMB      93              0.0000000000
     50428      1353  PPPE      HN1            32.0982741561       32.5563625175      -21.8711014928  MEMB      93              0.0000000000
     50429      1353  PPPE      HN2            30.6578492571       31.6775442825      -22.0216077111  MEMB      93              0.0000000000
     50430      1353  PPPE      HN3            30.6451930025       33.2318408405      -21.2976600743  MEMB      93              0.0000000000
     50431      1353  PPPE      C12            31.4204502297       31.6401874957      -20.0761271641  MEMB      93              0.0000000000
     50432      1353  PPPE      H12A           32.4961719726       31.7053946771      -19.8061424328  MEMB      93              0.0000000000
     50433      1353  PPPE      H12B           31.1972776718       30.5713185289      -20.2811494592  MEMB      93              0.0000000000
     50434      1353  PPPE      C11            30.5864248063       32.1366026933      -18.9074371863  MEMB      93              0.0000000000
     50435      1353  PPPE      H11A           30.8122721620       31.6531323564      -17.9329781542  MEMB      93              0.0000000000
     50436      1353  PPPE      H11B           29.5964685423       31.8086193616      -19.2904966198  MEMB      93              0.0000000000
     50437      1353  PPPE      P              31.9523426309       34.1897794432      -18.3514052457  MEMB      93              0.0000000000
     50438      1353  PPPE      O13            32.8756456976       33.2187260534      -17.7500365217  MEMB      93              0.0000000000
     50439      1353  PPPE      O14            32.4695556579       34.9707278427      -19.5020016338  MEMB      93              0.0000000000
     50440      1353  PPPE      O11            31.4828366117       35.0183407500      -17.1707813765  MEMB      93              0.0000000000
     50441      1353  PPPE      O12            30.5840447104       33.5891172833      -18.8166157217  MEMB      93              0.0000000000
     50442      1353  PPPE      C1             30.4406707501       35.9702623127      -17.1847807568  MEMB      93              0.0000000000
     50443      1353  PPPE      HA             29.7864904433       35.9285230598      -18.0817907684  MEMB      93              0.0000000000
     50444      1353  PPPE      HB             30.7818291333       37.0243913819      -17.2669017827  MEMB      93              0.0000000000
     50445      1353  PPPE      C2             29.3482973337       35.7934114548      -16.1145092997  MEMB      93              0.0000000000
     50446      1353  PPPE      HS             28.7908704378       36.7544475788      -16.1120960098  MEMB      93              0.0000000000
     50447      1353  PPPE      O21            29.9354721467       35.5983253963      -14.7752561419  MEMB      93              0.0000000000
     50448      1353  PPPE      C21            30.5311117175       36.5418109092      -14.1562867868  MEMB      93              0.0000000000
     50449      1353  PPPE      O22            30.7929531793       37.6418233550      -14.6489847483  MEMB      93              0.0000000000
     50450      1353  PPPE      C22            31.1277386512       36.0711140883      -12.8300388259  MEMB      93              0.0000000000
     50451      1353  PPPE      H2R            32.2241237112       36.0084689246      -12.9983729687  MEMB      93              0.0000000000
     50452      1353  PPPE      H2S            30.7710317531       35.0702100781      -12.5055818160  MEMB      93              0.0000000000
     50453      1353  PPPE      C3             28.3663575584       34.6245336869      -16.2849268211  MEMB      93              0.0000000000
     50454      1353  PPPE      HX             27.4366119463       34.9709589147      -15.7850431764  MEMB      93              0.0000000000
     50455      1353  PPPE      HY             28.2206627172       34.4804998790      -17.3768738323  MEMB      93              0.0000000000
     50456      1353  PPPE      O31            28.9357621287       33.4139804553      -15.8480028941  MEMB      93              0.0000000000
     50457      1353  PPPE      C31            28.7465453778       33.0957385909      -14.5683583212  MEMB      93              0.0000000000
     50458      1353  PPPE      O32            27.9717272792       33.6533217125      -13.7856341010  MEMB      93              0.0000000000
     50459      1353  PPPE      C32            29.6313280355       31.8461703809      -14.2161322075  MEMB      93              0.0000000000
     50460      1353  PPPE      H2X            30.6409683434       32.1343631162      -14.5793021346  MEMB      93              0.0000000000
     50461      1353  PPPE      H2Y            29.2737260416       30.9963505554      -14.8360096778  MEMB      93              0.0000000000
     50462      1353  PPPE      C23            30.8892103145       37.0864485666      -11.7240918224  MEMB      93              0.0000000000
     50463      1353  PPPE      H3R            30.9732280280       38.1350996247      -12.0812934213  MEMB      93              0.0000000000
     50464      1353  PPPE      H3S            31.5867477497       37.0337438610      -10.8609668369  MEMB      93              0.0000000000
     50465      1353  PPPE      C24            29.4364397008       37.0261384681      -11.2253552100  MEMB      93              0.0000000000
     50466      1353  PPPE      H4R            28.7134459153       37.3997568867      -11.9816688111  MEMB      93              0.0000000000
     50467      1353  PPPE      H4S            29.3142102202       37.7234710343      -10.3691378041  MEMB      93              0.0000000000
     50468      1353  PPPE      C25            28.9569900929       35.6328730748      -10.7778854427  MEMB      93              0.0000000000
     50469      1353  PPPE      H5R            29.7953229978       35.1380471550      -10.2424732184  MEMB      93              0.0000000000
     50470      1353  PPPE      H5S            28.6776427954       34.9719685510      -11.6261137716  MEMB      93              0.0000000000
     50471      1353  PPPE      C26            27.8280025301       35.5678095436       -9.6340915615  MEMB      93              0.0000000000
     50472      1353  PPPE      H6R            27.0010651452       36.0715339055      -10.1788459362  MEMB      93              0.0000000000
     50473      1353  PPPE      H6S            28.1868728252       35.9942267973       -8.6729976864  MEMB      93              0.0000000000
     50474      1353  PPPE      C27            27.4438930607       34.1508605235       -9.1256813248  MEMB      93              0.0000000000
     50475      1353  PPPE      H7R            27.1935466138       33.6818684720      -10.1012294334  MEMB      93              0.0000000000
     50476      1353  PPPE      H7S            26.4772658865       34.1682799904       -8.5782788510  MEMB      93              0.0000000000
     50477      1353  PPPE      C28            28.5968489568       33.3000873198       -8.5088003859  MEMB      93              0.0000000000
     50478      1353  PPPE      H8R            29.0669039382       33.8253013567       -7.6500108133  MEMB      93              0.0000000000
     50479      1353  PPPE      H8S            29.3836877163       33.1225090695       -9.2727845033  MEMB      93              0.0000000000
     50480      1353  PPPE      C29            27.9768448150       32.0330723234       -8.0544806602  MEMB      93              0.0000000000
     50481      1353  PPPE      H91            28.1347260057       31.1143843750       -8.6385063301  MEMB      93              0.0000000000
     50482      1353  PPPE      C210           27.3887580483       31.8352812060       -6.8686756042  MEMB      93              0.0000000000
     50483      1353  PPPE      H101           27.1904133327       30.7952975951       -6.5701903232  MEMB      93              0.0000000000
     50484      1353  PPPE      C211           27.2031891722       32.8467175320       -5.8032629543  MEMB      93              0.0000000000
     50485      1353  PPPE      H11R           26.1677636508       32.9887033748       -5.4263610967  MEMB      93              0.0000000000
     50486      1353  PPPE      H11S           27.5268147811       33.8764018272       -6.0665835145  MEMB      93              0.0000000000
     50487      1353  PPPE      C212           27.8639166346       32.2539069929       -4.5434180251  MEMB      93              0.0000000000
     50488      1353  PPPE      H12R           28.9499039724       32.0641976818       -4.6811237959  MEMB      93              0.0000000000
     50489      1353  PPPE      H12S           27.5307269636       31.2295309250       -4.2714634063  MEMB      93              0.0000000000
     50490      1353  PPPE      C213           27.6724571836       33.1108170526       -3.2925784312  MEMB      93              0.0000000000
     50491      1353  PPPE      H13R           26.5961902245       33.0123497172       -3.0351398626  MEMB      93              0.0000000000
     50492      1353  PPPE      H13S           28.0540994909       34.1129515155       -3.5830894766  MEMB      93              0.0000000000
     50493      1353  PPPE      C214           28.5421189259       32.5939055324       -2.1112521216  MEMB      93              0.0000000000
     50494      1353  PPPE      H14R           28.2661841318       33.2018430683       -1.2232245647  MEMB      93              0.0000000000
     50495      1353  PPPE      H14S           29.5776829466       32.9190196030       -2.3483786706  MEMB      93              0.0000000000
     50496      1353  PPPE      C215           28.5303736340       31.0448948423       -1.7726205758  MEMB      93              0.0000000000
     50497      1353  PPPE      H15R           29.3712712471       30.5737136957       -2.3250701494  MEMB      93              0.0000000000
     50498      1353  PPPE      H15S           27.5605201832       30.5707923102       -2.0351697578  MEMB      93              0.0000000000
     50499      1353  PPPE      C216           28.6575731699       30.9477535876       -0.1994521314  MEMB      93              0.0000000000
     50500      1353  PPPE      H16R           27.7316350073       31.3043753182        0.3003282807  MEMB      93              0.0000000000
     50501      1353  PPPE      H16S           28.9275821686       29.9220187503        0.1311294530  MEMB      93              0.0000000000
     50502      1353  PPPE      H16T           29.3971142848       31.6878993469        0.1741575506  MEMB      93              0.0000000000
     50503      1353  PPPE      C33            29.7254099551       31.6324747833      -12.6886315611  MEMB      93              0.0000000000
     50504      1353  PPPE      H3X            28.7877838734       31.0639648992      -12.5098164541  MEMB      93              0.0000000000
     50505      1353  PPPE      H3Y            29.5729691883       32.5633944264      -12.1017146753  MEMB      93              0.0000000000
     50506      1353  PPPE      C34            30.9801350906       30.9453706940      -12.2357727957  MEMB      93              0.0000000000
     50507      1353  PPPE      H4X            31.8623765107       31.2775896753      -12.8236517162  MEMB      93              0.0000000000
     50508      1353  PPPE      H4Y            30.9550727742       29.8356240996      -12.2821988268  MEMB      93              0.0000000000
     50509      1353  PPPE      C35            31.3244479180       31.1818353914      -10.7743302727  MEMB      93              0.0000000000
     50510      1353  PPPE      H5X            31.9392468001       30.3210036588      -10.4347539741  MEMB      93              0.0000000000
     50511      1353  PPPE      H5Y            30.3496614369       31.1403603153      -10.2429244634  MEMB      93              0.0000000000
     50512      1353  PPPE      C36            32.0538964953       32.4637615861      -10.5402684218  MEMB      93              0.0000000000
     50513      1353  PPPE      H6X            31.4914045981       33.2807613662      -11.0407034574  MEMB      93              0.0000000000
     50514      1353  PPPE      H6Y            33.0728143373       32.5232289730      -10.9791204029  MEMB      93              0.0000000000
     50515      1353  PPPE      C37            32.3256989190       32.8375949273       -9.0231252400  MEMB      93              0.0000000000
     50516      1353  PPPE      H7X            33.0601363588       32.1103606132       -8.6156293512  MEMB      93              0.0000000000
     50517      1353  PPPE      H7Y            31.3950956993       32.5521300165       -8.4875802537  MEMB      93              0.0000000000
     50518      1353  PPPE      C38            32.5939967696       34.2911973935       -8.7098223381  MEMB      93              0.0000000000
     50519      1353  PPPE      H8X            31.9647603793       34.8393549073       -9.4432430259  MEMB      93              0.0000000000
     50520      1353  PPPE      H8Y            33.6104107467       34.5850337466       -9.0487675032  MEMB      93              0.0000000000
     50521      1353  PPPE      C39            32.1588012769       34.5929994102       -7.2420593519  MEMB      93              0.0000000000
     50522      1353  PPPE      H9X            31.1293691571       34.2083761769       -7.0787942939  MEMB      93              0.0000000000
     50523      1353  PPPE      H9Y            32.1875749800       35.6982304465       -7.1327093150  MEMB      93              0.0000000000
     50524      1353  PPPE      C310           33.0113865381       33.8748537017       -6.1543631264  MEMB      93              0.0000000000
     50525      1353  PPPE      H10X           34.0903051470       34.1337572837       -6.2111484303  MEMB      93              0.0000000000
     50526      1353  PPPE      H10Y           32.7945056122       32.8155449704       -6.4096055128  MEMB      93              0.0000000000
     50527      1353  PPPE      C311           32.4674399917       34.0430813631       -4.7152535800  MEMB      93              0.0000000000
     50528      1353  PPPE      H11X           32.9062016282       33.2274312611       -4.1016379532  MEMB      93              0.0000000000
     50529      1353  PPPE      H11Y           31.3810475729       33.8163108035       -4.6637984946  MEMB      93              0.0000000000
     50530      1353  PPPE      C312           32.8158613208       35.3377111277       -4.0676135588  MEMB      93              0.0000000000
     50531      1353  PPPE      H12X           32.4763363950       36.1342047036       -4.7637757586  MEMB      93              0.0000000000
     50532      1353  PPPE      H12Y           33.8753567567       35.5242247049       -3.7901192223  MEMB      93              0.0000000000
     50533      1353  PPPE      C313           32.0429976306       35.3511444563       -2.7798811879  MEMB      93              0.0000000000
     50534      1353  PPPE      H13X           32.5914352928       34.6865829741       -2.0785288035  MEMB      93              0.0000000000
     50535      1353  PPPE      H13Y           31.0977959079       34.7765162105       -2.8834045298  MEMB      93              0.0000000000
     50536      1353  PPPE      C314           32.1378480857       36.7003685637       -2.0832138222  MEMB      93              0.0000000000
     50537      1353  PPPE      H14X           32.0469837088       37.5337389306       -2.8122944052  MEMB      93              0.0000000000
     50538      1353  PPPE      H14Y           33.1206856301       36.6428901403       -1.5683860917  MEMB      93              0.0000000000
     50539      1353  PPPE      C315           30.9538523213       36.6965722327       -1.0870325912  MEMB      93              0.0000000000
     50540      1353  PPPE      H15X           30.7700982707       35.6552875423       -0.7460316492  MEMB      93              0.0000000000
     50541      1353  PPPE      H15Y           30.0681459919       36.9891216269       -1.6905722752  MEMB      93              0.0000000000
     50542      1353  PPPE      C316           31.0419504638       37.6165331100        0.1197468169  MEMB      93              0.0000000000
     50543      1353  PPPE      H16X           30.2725800450       37.2963750570        0.8545181962  MEMB      93              0.0000000000
     50544      1353  PPPE      H16Y           31.9754138026       37.5581414603        0.7193780455  MEMB      93              0.0000000000
     50545      1353  PPPE      H16Z           30.8599457804       38.6276704489       -0.3030966262  MEMB      93              0.0000000000
     50546      1354  PPPE      N              28.0749887573       40.1120588880      -19.8915752567  MEMB      94              0.0000000000
     50547      1354  PPPE      HN1            28.0027013833       39.2394935641      -19.3303228259  MEMB      94              0.0000000000
     50548      1354  PPPE      HN2            28.2747506407       39.9391498431      -20.8974567866  MEMB      94              0.0000000000
     50549      1354  PPPE      HN3            28.6909141992       40.8133877456      -19.4329101463  MEMB      94              0.0000000000
     50550      1354  PPPE      C12            26.6756441179       40.7153291703      -19.8549494242  MEMB      94              0.0000000000
     50551      1354  PPPE      H12A           26.8820252965       41.6190702784      -20.4673053816  MEMB      94              0.0000000000
     50552      1354  PPPE      H12B           26.5419717990       41.1215532624      -18.8295545257  MEMB      94              0.0000000000
     50553      1354  PPPE      C11            25.5155144032       39.8353933679      -20.2915967489  MEMB      94              0.0000000000
     50554      1354  PPPE      H11A           25.5696693958       39.5183865773      -21.3550321873  MEMB      94              0.0000000000
     50555      1354  PPPE      H11B           24.6037679326       40.4699281853      -20.3117198381  MEMB      94              0.0000000000
     50556      1354  PPPE      P              24.1563772435       38.6221198480      -18.4134983796  MEMB      94              0.0000000000
     50557      1354  PPPE      O13            23.4733838177       39.9344553673      -18.3859822034  MEMB      94              0.0000000000
     50558      1354  PPPE      O14            23.3287256570       37.3919061999      -18.6661295925  MEMB      94              0.0000000000
     50559      1354  PPPE      O11            24.9980399645       38.4252743417      -17.0237694913  MEMB      94              0.0000000000
     50560      1354  PPPE      O12            25.2929476440       38.6983316182      -19.4724990530  MEMB      94              0.0000000000
     50561      1354  PPPE      C1             26.3020527361       37.8968104068      -16.9030744559  MEMB      94              0.0000000000
     50562      1354  PPPE      HA             27.0710439178       38.4651161200      -17.4687618066  MEMB      94              0.0000000000
     50563      1354  PPPE      HB             26.3179397303       36.9211359240      -17.4342315956  MEMB      94              0.0000000000
     50564      1354  PPPE      C2             26.7140578316       37.4918189079      -15.4156958936  MEMB      94              0.0000000000
     50565      1354  PPPE      HS             27.4547099899       36.6643796434      -15.4488567756  MEMB      94              0.0000000000
     50566      1354  PPPE      O21            25.6363547259       36.8869485446      -14.6133979693  MEMB      94              0.0000000000
     50567      1354  PPPE      C21            26.0370959188       36.1015025513      -13.5929987985  MEMB      94              0.0000000000
     50568      1354  PPPE      O22            27.1529813428       35.7159235249      -13.3986301320  MEMB      94              0.0000000000
     50569      1354  PPPE      C22            24.7422543803       35.5630439221      -12.8873749235  MEMB      94              0.0000000000
     50570      1354  PPPE      H2R            24.2832168549       34.9725430077      -13.7089065543  MEMB      94              0.0000000000
     50571      1354  PPPE      H2S            24.1393805814       36.4314933355      -12.5458199513  MEMB      94              0.0000000000
     50572      1354  PPPE      C3             27.1946962024       38.7591220898      -14.5882833750  MEMB      94              0.0000000000
     50573      1354  PPPE      HX             27.3516733401       38.4248848366      -13.5404452975  MEMB      94              0.0000000000
     50574      1354  PPPE      HY             28.1324984256       39.2469914062      -14.9300896361  MEMB      94              0.0000000000
     50575      1354  PPPE      O31            26.1502024120       39.7379289222      -14.5135913795  MEMB      94              0.0000000000
     50576      1354  PPPE      C31            26.3417534821       40.8524989301      -15.2524706338  MEMB      94              0.0000000000
     50577      1354  PPPE      O32            27.4089866811       41.2013074728      -15.7520227648  MEMB      94              0.0000000000
     50578      1354  PPPE      C32            24.9300215631       41.6010609677      -15.4301850876  MEMB      94              0.0000000000
     50579      1354  PPPE      H2X            24.1526172476       40.8818572804      -15.7659075720  MEMB      94              0.0000000000
     50580      1354  PPPE      H2Y            24.9693188092       42.4768279490      -16.1126870442  MEMB      94              0.0000000000
     50581      1354  PPPE      C23            25.1781407092       34.8253612936      -11.6170922963  MEMB      94              0.0000000000
     50582      1354  PPPE      H3R            26.0183985474       34.1312730461      -11.8327987403  MEMB      94              0.0000000000
     50583      1354  PPPE      H3S            24.2997103746       34.2227527738      -11.3015861646  MEMB      94              0.0000000000
     50584      1354  PPPE      C24            25.7154878163       35.6408617145      -10.4408184129  MEMB      94              0.0000000000
     50585      1354  PPPE      H4R            25.0335752891       36.5073629226      -10.3048332606  MEMB      94              0.0000000000
     50586      1354  PPPE      H4S            26.6806616776       36.0518579727      -10.8066633162  MEMB      94              0.0000000000
     50587      1354  PPPE      C25            25.9118400710       34.8505302110       -9.1027066584  MEMB      94              0.0000000000
     50588      1354  PPPE      H5R            26.2829705482       33.8272988275       -9.3253739095  MEMB      94              0.0000000000
     50589      1354  PPPE      H5S            24.9018147396       34.8457620169       -8.6399463594  MEMB      94              0.0000000000
     50590      1354  PPPE      C26            26.7377289004       35.6155937062       -8.1061321473  MEMB      94              0.0000000000
     50591      1354  PPPE      H6R            27.8036401069       35.7430102454       -8.3923476696  MEMB      94              0.0000000000
     50592      1354  PPPE      H6S            26.9195743753       34.9637207644       -7.2250448129  MEMB      94              0.0000000000
     50593      1354  PPPE      C27            26.2084825073       37.0357539957       -7.8007545620  MEMB      94              0.0000000000
     50594      1354  PPPE      H7R            25.2485059575       36.9967830024       -7.2428591546  MEMB      94              0.0000000000
     50595      1354  PPPE      H7S            26.1040786081       37.6223598097       -8.7384722406  MEMB      94              0.0000000000
     50596      1354  PPPE      C28            27.1862083102       37.7562336645       -6.8180556274  MEMB      94              0.0000000000
     50597      1354  PPPE      H8R            28.2226266619       37.9103349715       -7.1873939379  MEMB      94              0.0000000000
     50598      1354  PPPE      H8S            27.3882124880       37.2314173125       -5.8598890924  MEMB      94              0.0000000000
     50599      1354  PPPE      C29            26.7574897338       39.1952957555       -6.5131615807  MEMB      94              0.0000000000
     50600      1354  PPPE      H91            26.7184384586       39.8206121104       -7.4172934595  MEMB      94              0.0000000000
     50601      1354  PPPE      C210           26.5403474098       39.6907574661       -5.3259619371  MEMB      94              0.0000000000
     50602      1354  PPPE      H101           26.2743550782       40.7571295917       -5.3717720814  MEMB      94              0.0000000000
     50603      1354  PPPE      C211           26.5334268377       39.0349677069       -4.0249290428  MEMB      94              0.0000000000
     50604      1354  PPPE      H11R           26.7621880828       37.9599288339       -4.1870423189  MEMB      94              0.0000000000
     50605      1354  PPPE      H11S           25.4748905139       39.1548899275       -3.7095871459  MEMB      94              0.0000000000
     50606      1354  PPPE      C212           27.5215305820       39.6665941864       -3.0110572631  MEMB      94              0.0000000000
     50607      1354  PPPE      H12R           27.2659691164       40.7451461341       -2.9353272606  MEMB      94              0.0000000000
     50608      1354  PPPE      H12S           28.5852463374       39.5804713823       -3.3199466517  MEMB      94              0.0000000000
     50609      1354  PPPE      C213           27.4168475149       38.9680330428       -1.6000801392  MEMB      94              0.0000000000
     50610      1354  PPPE      H13R           26.3612600227       38.7871556804       -1.3045476944  MEMB      94              0.0000000000
     50611      1354  PPPE      H13S           27.8586542159       39.6869244817       -0.8773610112  MEMB      94              0.0000000000
     50612      1354  PPPE      C214           28.0771388210       37.6435495469       -1.5678915524  MEMB      94              0.0000000000
     50613      1354  PPPE      H14R           29.1655306276       37.8444774023       -1.6645986991  MEMB      94              0.0000000000
     50614      1354  PPPE      H14S           27.7463192829       36.9174235857       -2.3409507492  MEMB      94              0.0000000000
     50615      1354  PPPE      C215           27.8219570046       36.9276743492       -0.1616294482  MEMB      94              0.0000000000
     50616      1354  PPPE      H15R           28.3173570202       35.9374762207       -0.2533218184  MEMB      94              0.0000000000
     50617      1354  PPPE      H15S           26.7515759621       36.6506000010       -0.0528396078  MEMB      94              0.0000000000
     50618      1354  PPPE      C216           28.2820317527       37.6600156791        1.0436511934  MEMB      94              0.0000000000
     50619      1354  PPPE      H16R           29.3234188451       38.0466848921        1.0615632958  MEMB      94              0.0000000000
     50620      1354  PPPE      H16S           27.5908605530       38.5167018281        1.1942905469  MEMB      94              0.0000000000
     50621      1354  PPPE      H16T           27.9689946684       37.1282196781        1.9675136275  MEMB      94              0.0000000000
     50622      1354  PPPE      C33            24.6560812920       42.3417877099      -14.0545676097  MEMB      94              0.0000000000
     50623      1354  PPPE      H3X            23.9296914577       43.1460065730      -14.2993344966  MEMB      94              0.0000000000
     50624      1354  PPPE      H3Y            25.5725442598       42.8978399700      -13.7626386581  MEMB      94              0.0000000000
     50625      1354  PPPE      C34            24.0438219399       41.5202426633      -12.9123666680  MEMB      94              0.0000000000
     50626      1354  PPPE      H4X            24.8210859822       40.7489490281      -12.7245163634  MEMB      94              0.0000000000
     50627      1354  PPPE      H4Y            23.1353716678       40.9767789051      -13.2495405793  MEMB      94              0.0000000000
     50628      1354  PPPE      C35            23.6501470785       42.3659011109      -11.5911605009  MEMB      94              0.0000000000
     50629      1354  PPPE      H5X            22.7932805262       42.9938936031      -11.9163160659  MEMB      94              0.0000000000
     50630      1354  PPPE      H5Y            24.6274353369       42.8056537233      -11.2981651088  MEMB      94              0.0000000000
     50631      1354  PPPE      C36            23.0145443372       41.4246516121      -10.4570389500  MEMB      94              0.0000000000
     50632      1354  PPPE      H6X            22.2332625046       40.7405656641      -10.8519390813  MEMB      94              0.0000000000
     50633      1354  PPPE      H6Y            22.6639113916       42.0857916489       -9.6358986519  MEMB      94              0.0000000000
     50634      1354  PPPE      C37            24.1429422067       40.6388478847       -9.7970918686  MEMB      94              0.0000000000
     50635      1354  PPPE      H7X            24.9152639112       41.3482582214       -9.4302442723  MEMB      94              0.0000000000
     50636      1354  PPPE      H7Y            24.4876643024       39.8174591600      -10.4610257807  MEMB      94              0.0000000000
     50637      1354  PPPE      C38            23.7233610782       39.9363741849       -8.5159319836  MEMB      94              0.0000000000
     50638      1354  PPPE      H8X            23.7265130098       40.7567302960       -7.7667144476  MEMB      94              0.0000000000
     50639      1354  PPPE      H8Y            24.5567006344       39.2169614551       -8.3665616103  MEMB      94              0.0000000000
     50640      1354  PPPE      C39            22.4128293975       39.0469886927       -8.5840595677  MEMB      94              0.0000000000
     50641      1354  PPPE      H9X            22.6208587169       38.2432329343       -9.3223152708  MEMB      94              0.0000000000
     50642      1354  PPPE      H9Y            21.5374755468       39.5999041927       -8.9870001165  MEMB      94              0.0000000000
     50643      1354  PPPE      C310           22.0333469355       38.4418834315       -7.2629002345  MEMB      94              0.0000000000
     50644      1354  PPPE      H10X           22.9585099027       37.9776753778       -6.8592848643  MEMB      94              0.0000000000
     50645      1354  PPPE      H10Y           21.1522788704       37.7710919849       -7.1730175339  MEMB      94              0.0000000000
     50646      1354  PPPE      C311           21.5461047281       39.3896310878       -6.1752131359  MEMB      94              0.0000000000
     50647      1354  PPPE      H11X           20.5871909990       39.9030736586       -6.4014479401  MEMB      94              0.0000000000
     50648      1354  PPPE      H11Y           22.4068610403       40.0828036691       -6.0614970703  MEMB      94              0.0000000000
     50649      1354  PPPE      C312           21.0849993725       38.9581640131       -4.7526683429  MEMB      94              0.0000000000
     50650      1354  PPPE      H12X           20.2833277812       38.1969198232       -4.8628996588  MEMB      94              0.0000000000
     50651      1354  PPPE      H12Y           20.7152495248       39.8525925823       -4.2071377893  MEMB      94              0.0000000000
     50652      1354  PPPE      C313           22.2928043588       38.3855320337       -4.0005409815  MEMB      94              0.0000000000
     50653      1354  PPPE      H13X           23.1541512053       39.0614136693       -3.8118968074  MEMB      94              0.0000000000
     50654      1354  PPPE      H13Y           22.7967199470       37.6464861003       -4.6594804235  MEMB      94              0.0000000000
     50655      1354  PPPE      C314           21.9734638439       37.7505553533       -2.6367592386  MEMB      94              0.0000000000
     50656      1354  PPPE      H14X           21.4149390858       36.8017598466       -2.7856154817  MEMB      94              0.0000000000
     50657      1354  PPPE      H14Y           21.4401079739       38.3839093941       -1.8960061251  MEMB      94              0.0000000000
     50658      1354  PPPE      C315           23.2707134480       37.4484078766       -1.8273840694  MEMB      94              0.0000000000
     50659      1354  PPPE      H15X           23.8871487423       38.3726506003       -1.8171901632  MEMB      94              0.0000000000
     50660      1354  PPPE      H15Y           23.9019688909       36.8144564451       -2.4861276829  MEMB      94              0.0000000000
     50661      1354  PPPE      C316           23.0866559539       36.8763164590       -0.4014733945  MEMB      94              0.0000000000
     50662      1354  PPPE      H16X           22.5174603632       37.4798999691        0.3374611940  MEMB      94              0.0000000000
     50663      1354  PPPE      H16Y           22.3865425127       36.0162580393       -0.4682692340  MEMB      94              0.0000000000
     50664      1354  PPPE      H16Z           24.1154938921       36.6545152662       -0.0456395459  MEMB      94              0.0000000000
     50665      1355  PPPE      N              36.8401025206       25.1961042093      -18.8572144376  MEMB      95              0.0000000000
     50666      1355  PPPE      HN1            37.1428678589       25.3170485234      -19.8447900666  MEMB      95              0.0000000000
     50667      1355  PPPE      HN2            37.6679048034       25.2115024423      -18.2278446934  MEMB      95              0.0000000000
     50668      1355  PPPE      HN3            36.4610865679       24.2277039155      -18.8693708603  MEMB      95              0.0000000000
     50669      1355  PPPE      C12            35.9367023304       26.3552053799      -18.5490470379  MEMB      95              0.0000000000
     50670      1355  PPPE      H12A           35.3645844950       26.0842840197      -17.6360279806  MEMB      95              0.0000000000
     50671      1355  PPPE      H12B           35.2927820527       26.4345407655      -19.4509303854  MEMB      95              0.0000000000
     50672      1355  PPPE      C11            36.8575415358       27.5986167959      -18.2464160872  MEMB      95              0.0000000000
     50673      1355  PPPE      H11A           37.3730162786       27.3895695068      -17.2846957430  MEMB      95              0.0000000000
     50674      1355  PPPE      H11B           36.1732751549       28.4691133359      -18.1551127803  MEMB      95              0.0000000000
     50675      1355  PPPE      P              38.7846655559       28.9720427390      -19.3325863788  MEMB      95              0.0000000000
     50676      1355  PPPE      O13            40.0072681358       28.3353491676      -19.8923260176  MEMB      95              0.0000000000
     50677      1355  PPPE      O14            38.1399515448       30.1039527395      -19.9773724484  MEMB      95              0.0000000000
     50678      1355  PPPE      O11            38.8440471654       29.3762857658      -17.8670640206  MEMB      95              0.0000000000
     50679      1355  PPPE      O12            37.7943500131       27.7609688042      -19.2779737522  MEMB      95              0.0000000000
     50680      1355  PPPE      C1             40.0747635607       29.5867754421      -17.1773342764  MEMB      95              0.0000000000
     50681      1355  PPPE      HA             39.9539668563       30.4319706737      -16.4664375351  MEMB      95              0.0000000000
     50682      1355  PPPE      HB             40.9148169119       29.8541953996      -17.8534392485  MEMB      95              0.0000000000
     50683      1355  PPPE      C2             40.6669396159       28.3652660454      -16.4307241864  MEMB      95              0.0000000000
     50684      1355  PPPE      HS             41.0580492540       27.6277963961      -17.1638631687  MEMB      95              0.0000000000
     50685      1355  PPPE      O21            39.6033145146       27.7354673089      -15.6707775025  MEMB      95              0.0000000000
     50686      1355  PPPE      C21            39.9333381487       26.5971212302      -15.0572189729  MEMB      95              0.0000000000
     50687      1355  PPPE      O22            40.9665773676       25.9870064534      -15.2666637122  MEMB      95              0.0000000000
     50688      1355  PPPE      C22            38.8971547392       26.2253116021      -14.0755106718  MEMB      95              0.0000000000
     50689      1355  PPPE      H2R            38.2538473456       25.3868178645      -14.4181545823  MEMB      95              0.0000000000
     50690      1355  PPPE      H2S            38.1041771553       26.9949848188      -13.9610087459  MEMB      95              0.0000000000
     50691      1355  PPPE      C3             41.7416842582       28.9604967546      -15.4062213914  MEMB      95              0.0000000000
     50692      1355  PPPE      HX             42.2983665285       28.1189970440      -14.9411363593  MEMB      95              0.0000000000
     50693      1355  PPPE      HY             42.4624535089       29.5796374680      -15.9819621876  MEMB      95              0.0000000000
     50694      1355  PPPE      O31            41.1859102227       29.7719419276      -14.3680020735  MEMB      95              0.0000000000
     50695      1355  PPPE      C31            41.2751083614       29.2914867803      -13.1461389220  MEMB      95              0.0000000000
     50696      1355  PPPE      O32            41.8318606253       28.2878060799      -12.7475300513  MEMB      95              0.0000000000
     50697      1355  PPPE      C32            40.2407712153       30.1002989640      -12.2702536550  MEMB      95              0.0000000000
     50698      1355  PPPE      H2X            40.3978577670       31.2000659177      -12.2828020752  MEMB      95              0.0000000000
     50699      1355  PPPE      H2Y            40.2683127820       29.8261886480      -11.1939516543  MEMB      95              0.0000000000
     50700      1355  PPPE      C23            39.5273524548       25.6980237802      -12.7642695753  MEMB      95              0.0000000000
     50701      1355  PPPE      H3R            40.2848030507       26.4449246084      -12.4437563185  MEMB      95              0.0000000000
     50702      1355  PPPE      H3S            40.0704996680       24.7419124118      -12.9228985639  MEMB      95              0.0000000000
     50703      1355  PPPE      C24            38.4420372331       25.4344891855      -11.6969334519  MEMB      95              0.0000000000
     50704      1355  PPPE      H4R            37.9888431387       24.4201398233      -11.7025445263  MEMB      95              0.0000000000
     50705      1355  PPPE      H4S            37.6335898085       26.1914360895      -11.7850535180  MEMB      95              0.0000000000
     50706      1355  PPPE      C25            38.8561660320       25.6373104902      -10.1929050069  MEMB      95              0.0000000000
     50707      1355  PPPE      H5R            39.2525623938       26.6492749192       -9.9624295878  MEMB      95              0.0000000000
     50708      1355  PPPE      H5S            39.6400469701       24.8692388399      -10.0199379147  MEMB      95              0.0000000000
     50709      1355  PPPE      C26            37.6435336888       25.3349459866       -9.1935800647  MEMB      95              0.0000000000
     50710      1355  PPPE      H6R            37.3055119580       24.2815255856       -9.0917578253  MEMB      95              0.0000000000
     50711      1355  PPPE      H6S            36.8206181529       25.8840442106       -9.6991709677  MEMB      95              0.0000000000
     50712      1355  PPPE      C27            37.8873398308       25.7752014330       -7.7139676997  MEMB      95              0.0000000000
     50713      1355  PPPE      H7R            36.9850564526       25.5750739612       -7.0974008334  MEMB      95              0.0000000000
     50714      1355  PPPE      H7S            38.0439317772       26.8662061131       -7.8536414281  MEMB      95              0.0000000000
     50715      1355  PPPE      C28            39.1942235666       25.0679130106       -7.1212257251  MEMB      95              0.0000000000
     50716      1355  PPPE      H8R            39.3316596702       24.1707980583       -7.7620198261  MEMB      95              0.0000000000
     50717      1355  PPPE      H8S            38.9951090567       24.6170321109       -6.1255446386  MEMB      95              0.0000000000
     50718      1355  PPPE      C29            40.4069953236       25.8690689245       -7.0993048422  MEMB      95              0.0000000000
     50719      1355  PPPE      H91            41.1835310947       25.4513500052       -7.7569545215  MEMB      95              0.0000000000
     50720      1355  PPPE      C210           40.7124988234       26.9545190612       -6.3432438905  MEMB      95              0.0000000000
     50721      1355  PPPE      H101           41.7257774433       27.3127606822       -6.5776140665  MEMB      95              0.0000000000
     50722      1355  PPPE      C211           39.9666002479       27.7238281950       -5.3264956304  MEMB      95              0.0000000000
     50723      1355  PPPE      H11R           38.8878064166       27.5557481138       -5.5321019439  MEMB      95              0.0000000000
     50724      1355  PPPE      H11S           40.1280174485       28.8000030878       -5.5503551567  MEMB      95              0.0000000000
     50725      1355  PPPE      C212           40.1830445443       27.4440676502       -3.8885472162  MEMB      95              0.0000000000
     50726      1355  PPPE      H12R           40.2935710775       26.3446750940       -3.7726123516  MEMB      95              0.0000000000
     50727      1355  PPPE      H12S           39.2061637876       27.6739344147       -3.4119066201  MEMB      95              0.0000000000
     50728      1355  PPPE      C213           41.2452136933       28.2288457573       -3.1506341790  MEMB      95              0.0000000000
     50729      1355  PPPE      H13R           41.0705117711       29.3234814757       -3.2252859189  MEMB      95              0.0000000000
     50730      1355  PPPE      H13S           42.0695527738       27.9730661704       -3.8501789476  MEMB      95              0.0000000000
     50731      1355  PPPE      C214           41.5985217170       27.7632661943       -1.7537315489  MEMB      95              0.0000000000
     50732      1355  PPPE      H14R           42.4339340505       28.4675876266       -1.5528869492  MEMB      95              0.0000000000
     50733      1355  PPPE      H14S           42.1015797467       26.7731565831       -1.7843350837  MEMB      95              0.0000000000
     50734      1355  PPPE      C215           40.4782336231       27.7690927451       -0.7636927886  MEMB      95              0.0000000000
     50735      1355  PPPE      H15R           39.7952186020       26.9664562108       -1.1152409004  MEMB      95              0.0000000000
     50736      1355  PPPE      H15S           40.0270905865       28.7843713798       -0.7641972387  MEMB      95              0.0000000000
     50737      1355  PPPE      C216           40.8822224751       27.4644371920        0.6906779138  MEMB      95              0.0000000000
     50738      1355  PPPE      H16R           41.2283862204       28.4234363432        1.1320533655  MEMB      95              0.0000000000
     50739      1355  PPPE      H16S           40.0061462107       27.2596793265        1.3425104042  MEMB      95              0.0000000000
     50740      1355  PPPE      H16T           41.4798577377       26.5288950063        0.7344261883  MEMB      95              0.0000000000
     50741      1355  PPPE      C33            38.8064934427       29.8346330471      -12.7563812943  MEMB      95              0.0000000000
     50742      1355  PPPE      H3X            38.5085443802       28.7656539697      -12.7031733216  MEMB      95              0.0000000000
     50743      1355  PPPE      H3Y            38.7521194119       30.0924950007      -13.8356735057  MEMB      95              0.0000000000
     50744      1355  PPPE      C34            37.7030918213       30.6488217498      -12.1103488372  MEMB      95              0.0000000000
     50745      1355  PPPE      H4X            36.7228767647       30.1412769304      -12.2364349151  MEMB      95              0.0000000000
     50746      1355  PPPE      H4Y            37.7395458514       31.6338674706      -12.6228691116  MEMB      95              0.0000000000
     50747      1355  PPPE      C35            37.8865320249       30.9254989517      -10.5769361378  MEMB      95              0.0000000000
     50748      1355  PPPE      H5X            37.1044962238       31.6423235318      -10.2469307937  MEMB      95              0.0000000000
     50749      1355  PPPE      H5Y            38.8901856649       31.4017812538      -10.5644645854  MEMB      95              0.0000000000
     50750      1355  PPPE      C36            37.9073406013       29.6703228680       -9.6656828858  MEMB      95              0.0000000000
     50751      1355  PPPE      H6X            38.5217725391       28.9537682153      -10.2516383650  MEMB      95              0.0000000000
     50752      1355  PPPE      H6Y            36.8787218209       29.2582942389       -9.5850800723  MEMB      95              0.0000000000
     50753      1355  PPPE      C37            38.4242083664       29.8633857052       -8.2971657508  MEMB      95              0.0000000000
     50754      1355  PPPE      H7X            39.3176795913       30.5208475646       -8.3585992401  MEMB      95              0.0000000000
     50755      1355  PPPE      H7Y            38.7626469834       28.8575561084       -7.9683996868  MEMB      95              0.0000000000
     50756      1355  PPPE      C38            37.4328820797       30.5033759256       -7.2123383225  MEMB      95              0.0000000000
     50757      1355  PPPE      H8X            37.0306248599       31.3856192182       -7.7547006570  MEMB      95              0.0000000000
     50758      1355  PPPE      H8Y            38.1240360068       30.9186339696       -6.4480163969  MEMB      95              0.0000000000
     50759      1355  PPPE      C39            36.3932074905       29.4994447436       -6.7428744696  MEMB      95              0.0000000000
     50760      1355  PPPE      H9X            36.9458892305       28.5996435300       -6.3975895582  MEMB      95              0.0000000000
     50761      1355  PPPE      H9Y            35.6891153855       29.1313276256       -7.5194471289  MEMB      95              0.0000000000
     50762      1355  PPPE      C310           35.5770164140       30.0199695940       -5.5207426892  MEMB      95              0.0000000000
     50763      1355  PPPE      H10X           34.8653066711       30.8369871315       -5.7662474457  MEMB      95              0.0000000000
     50764      1355  PPPE      H10Y           36.3697076527       30.3764232209       -4.8287149354  MEMB      95              0.0000000000
     50765      1355  PPPE      C311           34.7620180865       29.0033630477       -4.7429886614  MEMB      95              0.0000000000
     50766      1355  PPPE      H11X           34.0496399529       28.4626703737       -5.4021470846  MEMB      95              0.0000000000
     50767      1355  PPPE      H11Y           34.1682422539       29.5193195122       -3.9584249690  MEMB      95              0.0000000000
     50768      1355  PPPE      C312           35.7037136454       28.0423498432       -3.9090058060  MEMB      95              0.0000000000
     50769      1355  PPPE      H12X           36.1923347202       28.7330158448       -3.1889010083  MEMB      95              0.0000000000
     50770      1355  PPPE      H12Y           36.5586250375       27.6543518069       -4.5030639137  MEMB      95              0.0000000000
     50771      1355  PPPE      C313           34.9280716882       26.8218221246       -3.3391461845  MEMB      95              0.0000000000
     50772      1355  PPPE      H13X           35.5488614546       25.9664506940       -3.6816090025  MEMB      95              0.0000000000
     50773      1355  PPPE      H13Y           33.9633733017       26.7062392303       -3.8779584131  MEMB      95              0.0000000000
     50774      1355  PPPE      C314           34.7425148839       26.7722137073       -1.7918180290  MEMB      95              0.0000000000
     50775      1355  PPPE      H14X           33.9410654572       26.0485764257       -1.5303818016  MEMB      95              0.0000000000
     50776      1355  PPPE      H14Y           34.3809844528       27.7811853070       -1.4992551155  MEMB      95              0.0000000000
     50777      1355  PPPE      C315           35.9910927740       26.6565792556       -0.9868181740  MEMB      95              0.0000000000
     50778      1355  PPPE      H15X           35.6232657359       26.8132857929        0.0497469861  MEMB      95              0.0000000000
     50779      1355  PPPE      H15Y           36.7450014910       27.4083552843       -1.3042696651  MEMB      95              0.0000000000
     50780      1355  PPPE      C316           36.7352228487       25.3631310260       -1.0280720396  MEMB      95              0.0000000000
     50781      1355  PPPE      H16X           37.2332819938       25.2908422138       -2.0185428446  MEMB      95              0.0000000000
     50782      1355  PPPE      H16Y           37.5151845544       25.3150239705       -0.2383464868  MEMB      95              0.0000000000
     50783      1355  PPPE      H16Z           35.9805716646       24.5699243805       -0.8392710648  MEMB      95              0.0000000000
     50784      1356  PPPE      N             -38.8123199379      -22.7905212855      -20.2733611722  MEMB      96              0.0000000000
     50785      1356  PPPE      HN1           -38.7884219384      -22.9203516254      -21.3049487683  MEMB      96              0.0000000000
     50786      1356  PPPE      HN2           -39.6817028664      -22.3080278024      -19.9684458358  MEMB      96              0.0000000000
     50787      1356  PPPE      HN3           -37.9422178057      -22.3024722702      -19.9795407535  MEMB      96              0.0000000000
     50788      1356  PPPE      C12           -38.8338628806      -24.0624186396      -19.5043611272  MEMB      96              0.0000000000
     50789      1356  PPPE      H12A          -39.1726314406      -23.9215154175      -18.4556938088  MEMB      96              0.0000000000
     50790      1356  PPPE      H12B          -37.7813171990      -24.3575759746      -19.3059909281  MEMB      96              0.0000000000
     50791      1356  PPPE      C11           -39.4241842193      -25.2585297431      -20.2779945693  MEMB      96              0.0000000000
     50792      1356  PPPE      H11A          -38.8978988561      -25.2132141891      -21.2553845718  MEMB      96              0.0000000000
     50793      1356  PPPE      H11B          -40.4929408982      -25.1538188423      -20.5628029061  MEMB      96              0.0000000000
     50794      1356  PPPE      P             -39.6953709061      -27.0416251361      -18.3754330884  MEMB      96              0.0000000000
     50795      1356  PPPE      O13           -41.1787929517      -26.7516580367      -18.3236835872  MEMB      96              0.0000000000
     50796      1356  PPPE      O14           -39.3365709000      -28.4960656103      -18.2890634515  MEMB      96              0.0000000000
     50797      1356  PPPE      O11           -39.0351798670      -26.2360086311      -17.2261536528  MEMB      96              0.0000000000
     50798      1356  PPPE      O12           -39.0256895359      -26.4536625086      -19.7299490405  MEMB      96              0.0000000000
     50799      1356  PPPE      C1            -37.7154510734      -26.4897210840      -16.7368452134  MEMB      96              0.0000000000
     50800      1356  PPPE      HA            -37.2594766460      -25.6860039590      -16.1200412700  MEMB      96              0.0000000000
     50801      1356  PPPE      HB            -37.1004239040      -26.5681414744      -17.6587523797  MEMB      96              0.0000000000
     50802      1356  PPPE      C2            -37.6437836397      -27.8005820113      -15.8799421854  MEMB      96              0.0000000000
     50803      1356  PPPE      HS            -37.8601233416      -28.6580016551      -16.5525116523  MEMB      96              0.0000000000
     50804      1356  PPPE      O21           -38.5440572516      -27.7464692940      -14.7847495723  MEMB      96              0.0000000000
     50805      1356  PPPE      C21           -38.7704035143      -28.9873817650      -14.2565961190  MEMB      96              0.0000000000
     50806      1356  PPPE      O22           -38.1948891442      -30.0157420113      -14.5480745261  MEMB      96              0.0000000000
     50807      1356  PPPE      C22           -39.6549451844      -28.7838178413      -12.9569112260  MEMB      96              0.0000000000
     50808      1356  PPPE      H2R           -39.0461100199      -28.2312742487      -12.2096921679  MEMB      96              0.0000000000
     50809      1356  PPPE      H2S           -39.9355456521      -29.6995363831      -12.3938446849  MEMB      96              0.0000000000
     50810      1356  PPPE      C3            -36.2251444970      -28.0688464362      -15.3154771010  MEMB      96              0.0000000000
     50811      1356  PPPE      HX            -36.1173614605      -29.1278494352      -14.9973317488  MEMB      96              0.0000000000
     50812      1356  PPPE      HY            -35.4498740190      -28.0534881120      -16.1111157174  MEMB      96              0.0000000000
     50813      1356  PPPE      O31           -36.0767888908      -26.9504997960      -14.3374369621  MEMB      96              0.0000000000
     50814      1356  PPPE      C31           -35.7263130426      -27.4314651487      -13.1549989781  MEMB      96              0.0000000000
     50815      1356  PPPE      O32           -35.8109597734      -28.5648098736      -12.7704512196  MEMB      96              0.0000000000
     50816      1356  PPPE      C32           -35.3898321248      -26.2542464371      -12.2190864017  MEMB      96              0.0000000000
     50817      1356  PPPE      H2X           -36.3073922760      -25.6774555199      -11.9747165858  MEMB      96              0.0000000000
     50818      1356  PPPE      H2Y           -34.5865342618      -25.5531487307      -12.5313291746  MEMB      96              0.0000000000
     50819      1356  PPPE      C23           -40.9712587058      -28.1394888662      -13.4656460989  MEMB      96              0.0000000000
     50820      1356  PPPE      H3R           -41.6379351103      -29.0120016390      -13.6347171875  MEMB      96              0.0000000000
     50821      1356  PPPE      H3S           -40.8571511817      -27.4133552704      -14.2987310130  MEMB      96              0.0000000000
     50822      1356  PPPE      C24           -41.6431278893      -27.3216970474      -12.3386691836  MEMB      96              0.0000000000
     50823      1356  PPPE      H4R           -41.9255015173      -28.0404616041      -11.5399429187  MEMB      96              0.0000000000
     50824      1356  PPPE      H4S           -42.5756262972      -26.8690786036      -12.7385494948  MEMB      96              0.0000000000
     50825      1356  PPPE      C25           -40.7871029997      -26.1846442667      -11.8923293400  MEMB      96              0.0000000000
     50826      1356  PPPE      H5R           -41.3645236201      -25.2383108341      -11.9655376835  MEMB      96              0.0000000000
     50827      1356  PPPE      H5S           -39.8671308303      -26.0546211260      -12.5014813658  MEMB      96              0.0000000000
     50828      1356  PPPE      C26           -40.4398703822      -26.3240076623      -10.4301072987  MEMB      96              0.0000000000
     50829      1356  PPPE      H6R           -39.6286466982      -27.0830345065      -10.4193655888  MEMB      96              0.0000000000
     50830      1356  PPPE      H6S           -41.3234693722      -26.6878753083       -9.8633850026  MEMB      96              0.0000000000
     50831      1356  PPPE      C27           -39.8309650460      -25.1308086762       -9.6237474784  MEMB      96              0.0000000000
     50832      1356  PPPE      H7R           -40.5576723880      -24.2985162805       -9.5075286886  MEMB      96              0.0000000000
     50833      1356  PPPE      H7S           -39.0248526997      -24.7016061053      -10.2564314739  MEMB      96              0.0000000000
     50834      1356  PPPE      C28           -39.1837052648      -25.5254223511       -8.2563578302  MEMB      96              0.0000000000
     50835      1356  PPPE      H8R           -38.5669760280      -24.6365569480       -8.0036043064  MEMB      96              0.0000000000
     50836      1356  PPPE      H8S           -38.4502200906      -26.3557539120       -8.3392432840  MEMB      96              0.0000000000
     50837      1356  PPPE      C29           -40.1799783953      -25.8070839232       -7.1465826431  MEMB      96              0.0000000000
     50838      1356  PPPE      H91           -40.8051950271      -24.9494871063       -6.8573909019  MEMB      96              0.0000000000
     50839      1356  PPPE      C210          -40.3809324021      -27.0027695190       -6.5504223914  MEMB      96              0.0000000000
     50840      1356  PPPE      H101          -41.0731083553      -26.8910297090       -5.7028336558  MEMB      96              0.0000000000
     50841      1356  PPPE      C211          -39.6478405177      -28.2634084001       -6.7938932082  MEMB      96              0.0000000000
     50842      1356  PPPE      H11R          -39.2995165020      -28.4938855464       -7.8233938955  MEMB      96              0.0000000000
     50843      1356  PPPE      H11S          -40.2716160634      -29.1800910657       -6.7237650449  MEMB      96              0.0000000000
     50844      1356  PPPE      C212          -38.4832013454      -28.3922011707       -5.7871390296  MEMB      96              0.0000000000
     50845      1356  PPPE      H12R          -37.9321735063      -27.4280070884       -5.8190622540  MEMB      96              0.0000000000
     50846      1356  PPPE      H12S          -37.7539549456      -29.0734132438       -6.2754737507  MEMB      96              0.0000000000
     50847      1356  PPPE      C213          -38.9163546883      -28.6925521425       -4.3118721360  MEMB      96              0.0000000000
     50848      1356  PPPE      H13R          -39.4135071333      -29.6859215234       -4.3313071455  MEMB      96              0.0000000000
     50849      1356  PPPE      H13S          -39.6366417083      -27.8609205418       -4.1572872416  MEMB      96              0.0000000000
     50850      1356  PPPE      C214          -37.8287561084      -28.8253821783       -3.2360960738  MEMB      96              0.0000000000
     50851      1356  PPPE      H14R          -37.3378026485      -27.8289438313       -3.2560038830  MEMB      96              0.0000000000
     50852      1356  PPPE      H14S          -37.1281376973      -29.6497992237       -3.4886656228  MEMB      96              0.0000000000
     50853      1356  PPPE      C215          -38.4019630884      -29.0384860624       -1.7896885317  MEMB      96              0.0000000000
     50854      1356  PPPE      H15R          -37.5630022283      -29.3719658036       -1.1421880009  MEMB      96              0.0000000000
     50855      1356  PPPE      H15S          -39.0067278636      -29.9701883703       -1.8123021556  MEMB      96              0.0000000000
     50856      1356  PPPE      C216          -39.3511788236      -28.0577701881       -1.1479046426  MEMB      96              0.0000000000
     50857      1356  PPPE      H16R          -38.8564615226      -27.0656852207       -1.0748073816  MEMB      96              0.0000000000
     50858      1356  PPPE      H16S          -40.3135153907      -28.0541201958       -1.7030766961  MEMB      96              0.0000000000
     50859      1356  PPPE      H16T          -39.6001694494      -28.4726121293       -0.1477892332  MEMB      96              0.0000000000
     50860      1356  PPPE      C33           -35.0474600547      -26.7434608042      -10.7675391687  MEMB      96              0.0000000000
     50861      1356  PPPE      H3X           -34.1880873216      -27.4274847006      -10.9346044703  MEMB      96              0.0000000000
     50862      1356  PPPE      H3Y           -35.8909404738      -27.3528548565      -10.3783082970  MEMB      96              0.0000000000
     50863      1356  PPPE      C34           -34.7480494319      -25.6155190205       -9.6988128487  MEMB      96              0.0000000000
     50864      1356  PPPE      H4X           -35.6751771520      -25.0043320464       -9.7335356544  MEMB      96              0.0000000000
     50865      1356  PPPE      H4Y           -33.8981843532      -24.9610654601       -9.9881930230  MEMB      96              0.0000000000
     50866      1356  PPPE      C35           -34.4689164490      -26.2207542028       -8.3305418883  MEMB      96              0.0000000000
     50867      1356  PPPE      H5X           -33.5897759671      -26.8948551812       -8.4143326049  MEMB      96              0.0000000000
     50868      1356  PPPE      H5Y           -35.3419071316      -26.7570653440       -7.9009157392  MEMB      96              0.0000000000
     50869      1356  PPPE      C36           -33.9982040941      -25.0989731872       -7.3714505846  MEMB      96              0.0000000000
     50870      1356  PPPE      H6X           -34.4896805754      -24.1914702850       -7.7828024422  MEMB      96              0.0000000000
     50871      1356  PPPE      H6Y           -32.9178766729      -25.0362451321       -7.6230034700  MEMB      96              0.0000000000
     50872      1356  PPPE      C37           -34.3968218253      -25.3551421661       -5.9142328403  MEMB      96              0.0000000000
     50873      1356  PPPE      H7X           -33.7601282600      -24.7200558935       -5.2618466584  MEMB      96              0.0000000000
     50874      1356  PPPE      H7Y           -34.2411458496      -26.4399538625       -5.7318333502  MEMB      96              0.0000000000
     50875      1356  PPPE      C38           -35.8185082302      -24.8970522775       -5.5280378311  MEMB      96              0.0000000000
     50876      1356  PPPE      H8X           -36.5327988105      -25.3592414385       -6.2425244624  MEMB      96              0.0000000000
     50877      1356  PPPE      H8Y           -35.8885335631      -23.8259844860       -5.8147977288  MEMB      96              0.0000000000
     50878      1356  PPPE      C39           -36.2216170165      -25.0047524635       -4.0674635831  MEMB      96              0.0000000000
     50879      1356  PPPE      H9X           -35.5993718608      -24.3430171894       -3.4277461509  MEMB      96              0.0000000000
     50880      1356  PPPE      H9Y           -35.9448142943      -26.0553732609       -3.8353058932  MEMB      96              0.0000000000
     50881      1356  PPPE      C310          -37.7210091502      -24.9618113423       -3.7861793474  MEMB      96              0.0000000000
     50882      1356  PPPE      H10X          -37.8891540401      -25.0589915206       -2.6922852443  MEMB      96              0.0000000000
     50883      1356  PPPE      H10Y          -38.2111670248      -25.8014632066       -4.3238139860  MEMB      96              0.0000000000
     50884      1356  PPPE      C311          -38.5319353592      -23.7240506802       -4.2134711562  MEMB      96              0.0000000000
     50885      1356  PPPE      H11X          -38.3970177311      -23.6253646893       -5.3118241545  MEMB      96              0.0000000000
     50886      1356  PPPE      H11Y          -38.0928473483      -22.8162345836       -3.7472173051  MEMB      96              0.0000000000
     50887      1356  PPPE      C312          -39.9852274747      -23.9211679173       -3.9057788169  MEMB      96              0.0000000000
     50888      1356  PPPE      H12X          -40.3770471271      -24.8744354553       -4.3206033111  MEMB      96              0.0000000000
     50889      1356  PPPE      H12Y          -40.5868027688      -23.1186114801       -4.3836190943  MEMB      96              0.0000000000
     50890      1356  PPPE      C313          -40.2576187119      -23.9484165660       -2.3658967402  MEMB      96              0.0000000000
     50891      1356  PPPE      H13X          -39.8026125895      -24.8284459152       -1.8630659804  MEMB      96              0.0000000000
     50892      1356  PPPE      H13Y          -41.3315648669      -24.1580462941       -2.1735012282  MEMB      96              0.0000000000
     50893      1356  PPPE      C314          -39.7696940546      -22.7725198024       -1.4327407477  MEMB      96              0.0000000000
     50894      1356  PPPE      H14X          -40.1224169351      -21.8843927312       -1.9994310289  MEMB      96              0.0000000000
     50895      1356  PPPE      H14Y          -38.6734493670      -22.6608651422       -1.2909598541  MEMB      96              0.0000000000
     50896      1356  PPPE      C315          -40.4809974919      -22.7812604876       -0.0735381634  MEMB      96              0.0000000000
     50897      1356  PPPE      H15X          -41.5864331691      -22.8777620270       -0.1284964785  MEMB      96              0.0000000000
     50898      1356  PPPE      H15Y          -40.2553926877      -21.7862268781        0.3661567175  MEMB      96              0.0000000000
     50899      1356  PPPE      C316          -39.8862731401      -23.7769120854        0.8235554781  MEMB      96              0.0000000000
     50900      1356  PPPE      H16X          -38.7860947027      -23.6597438080        0.9245505307  MEMB      96              0.0000000000
     50901      1356  PPPE      H16Y          -40.0704538057      -23.8064397583        1.9187844948  MEMB      96              0.0000000000
     50902      1356  PPPE      H16Z          -40.1778312027      -24.8041520152        0.5168096180  MEMB      96              0.0000000000
     50903      1357  PVPG      C13            31.0699829373      -39.7853657114      -20.5250514571  MEMB      97              0.0000000000
     50904      1357  PVPG      H13A           31.0167420429      -40.4271492795      -19.6197337060  MEMB      97              0.0000000000
     50905      1357  PVPG      H13B           30.2048335612      -40.0802509453      -21.1566212722  MEMB      97              0.0000000000
     50906      1357  PVPG      OC3            32.3245002016      -40.1871817148      -21.1062316523  MEMB      97              0.0000000000
     50907      1357  PVPG      HO3            33.0382228652      -39.7600336669      -20.6269149511  MEMB      97              0.0000000000
     50908      1357  PVPG      C12            31.0770197194      -38.3481542157      -20.1061882001  MEMB      97              0.0000000000
     50909      1357  PVPG      H12A           30.0189134648      -38.0537380401      -19.9151141062  MEMB      97              0.0000000000
     50910      1357  PVPG      OC2            31.5779819149      -37.5297717708      -21.1641711596  MEMB      97              0.0000000000
     50911      1357  PVPG      HO2            31.6653308715      -36.6484920840      -20.7393969684  MEMB      97              0.0000000000
     50912      1357  PVPG      C11            31.9247132640      -38.1742343652      -18.7634879986  MEMB      97              0.0000000000
     50913      1357  PVPG      H11A           31.3615175109      -38.7900931725      -18.0301057764  MEMB      97              0.0000000000
     50914      1357  PVPG      H11B           31.8830701358      -37.1759846203      -18.2776030159  MEMB      97              0.0000000000
     50915      1357  PVPG      P              34.2329799291      -38.3541908202      -17.6503726155  MEMB      97              0.0000000000
     50916      1357  PVPG      O13            33.5707346717      -37.5972771566      -16.5494662860  MEMB      97              0.0000000000
     50917      1357  PVPG      O14            35.6050111971      -37.9334670615      -18.1052680572  MEMB      97              0.0000000000
     50918      1357  PVPG      O12            33.2717721075      -38.4943784340      -18.9130305443  MEMB      97              0.0000000000
     50919      1357  PVPG      O11            34.5135080644      -39.8195697787      -17.1167320296  MEMB      97              0.0000000000
     50920      1357  PVPG      C1             33.8398003654      -40.9605865650      -17.3740433318  MEMB      97              0.0000000000
     50921      1357  PVPG      HA             34.4983390921      -41.6013128218      -17.9986375214  MEMB      97              0.0000000000
     50922      1357  PVPG      HB             32.9240869327      -40.8923465490      -17.9994498135  MEMB      97              0.0000000000
     50923      1357  PVPG      C2             33.5216928684      -41.6702559900      -16.0060430882  MEMB      97              0.0000000000
     50924      1357  PVPG      HS             32.9233220966      -42.5815604048      -16.2200463802  MEMB      97              0.0000000000
     50925      1357  PVPG      O21            32.8511613757      -40.7577945242      -15.1394063460  MEMB      97              0.0000000000
     50926      1357  PVPG      C21            31.5050641014      -40.7673734860      -15.0906036206  MEMB      97              0.0000000000
     50927      1357  PVPG      O22            30.7476490567      -41.5319239449      -15.6347497107  MEMB      97              0.0000000000
     50928      1357  PVPG      C22            31.0934657371      -39.5172806032      -14.3139018875  MEMB      97              0.0000000000
     50929      1357  PVPG      H2R            31.0794042011      -38.7232264885      -15.0908196738  MEMB      97              0.0000000000
     50930      1357  PVPG      H2S            31.9264080896      -39.2925132108      -13.6138965381  MEMB      97              0.0000000000
     50931      1357  PVPG      C3             34.8183743975      -42.1016060050      -15.2876945318  MEMB      97              0.0000000000
     50932      1357  PVPG      HX             35.1828396310      -42.9724233939      -15.8734953761  MEMB      97              0.0000000000
     50933      1357  PVPG      HY             35.5182239288      -41.2387778877      -15.2954151584  MEMB      97              0.0000000000
     50934      1357  PVPG      O31            34.5487214501      -42.4369066300      -13.9010988454  MEMB      97              0.0000000000
     50935      1357  PVPG      C31            34.9759772330      -41.6250580752      -12.9921909904  MEMB      97              0.0000000000
     50936      1357  PVPG      O32            35.8115777556      -40.7379932393      -13.0960908667  MEMB      97              0.0000000000
     50937      1357  PVPG      C32            34.1577043125      -41.8691266599      -11.7481342354  MEMB      97              0.0000000000
     50938      1357  PVPG      H2X            34.4943752294      -42.7622598059      -11.1795509562  MEMB      97              0.0000000000
     50939      1357  PVPG      H2Y            33.1400143730      -42.1703071677      -12.0766439840  MEMB      97              0.0000000000
     50940      1357  PVPG      C23            29.7498620040      -39.6511247797      -13.5270659250  MEMB      97              0.0000000000
     50941      1357  PVPG      H3R            29.8685331969      -40.5890123624      -12.9434520036  MEMB      97              0.0000000000
     50942      1357  PVPG      H3S            28.9070289998      -39.6930225038      -14.2496988643  MEMB      97              0.0000000000
     50943      1357  PVPG      C24            29.5445101165      -38.4071083909      -12.5609820245  MEMB      97              0.0000000000
     50944      1357  PVPG      H4R            28.5853886403      -38.6700831585      -12.0657533781  MEMB      97              0.0000000000
     50945      1357  PVPG      H4S            29.3523366564      -37.5529563893      -13.2449517700  MEMB      97              0.0000000000
     50946      1357  PVPG      C25            30.4975197456      -38.3427682844      -11.3460942134  MEMB      97              0.0000000000
     50947      1357  PVPG      H5R            31.5242672241      -38.1882081674      -11.7413428094  MEMB      97              0.0000000000
     50948      1357  PVPG      H5S            30.4724094590      -39.3307869534      -10.8386402232  MEMB      97              0.0000000000
     50949      1357  PVPG      C26            30.1570340795      -37.2447730507      -10.2869635518  MEMB      97              0.0000000000
     50950      1357  PVPG      H6R            30.8659181250      -37.3376851404       -9.4365685121  MEMB      97              0.0000000000
     50951      1357  PVPG      H6S            29.2066653072      -37.4209338309       -9.7391613670  MEMB      97              0.0000000000
     50952      1357  PVPG      C27            30.1781905445      -35.8212070329      -10.6839901631  MEMB      97              0.0000000000
     50953      1357  PVPG      H7R            29.9011570723      -35.1586841509       -9.8362656632  MEMB      97              0.0000000000
     50954      1357  PVPG      H7S            29.3747592533      -35.6964746499      -11.4411299645  MEMB      97              0.0000000000
     50955      1357  PVPG      C28            31.5288000577      -35.2880420951      -11.3154512314  MEMB      97              0.0000000000
     50956      1357  PVPG      H8R            31.3658002645      -34.3102281767      -11.8170805779  MEMB      97              0.0000000000
     50957      1357  PVPG      H8S            31.7441824484      -36.0460065343      -12.0986634318  MEMB      97              0.0000000000
     50958      1357  PVPG      C29            32.7490110230      -35.1584488196      -10.4040238234  MEMB      97              0.0000000000
     50959      1357  PVPG      H9R            33.6670499932      -34.8975215930      -10.9727440395  MEMB      97              0.0000000000
     50960      1357  PVPG      H9S            32.9486439529      -36.2273883429      -10.1763488828  MEMB      97              0.0000000000
     50961      1357  PVPG      C210           32.6692028320      -34.4414249696       -9.0074225562  MEMB      97              0.0000000000
     50962      1357  PVPG      H10R           31.9430100565      -35.0490373282       -8.4262404311  MEMB      97              0.0000000000
     50963      1357  PVPG      H10S           32.3492857921      -33.3965253068       -9.2078168395  MEMB      97              0.0000000000
     50964      1357  PVPG      C211           33.9473949030      -34.4176475580       -8.2177756810  MEMB      97              0.0000000000
     50965      1357  PVPG      H111           34.5533263393      -33.5348729362       -8.4698796378  MEMB      97              0.0000000000
     50966      1357  PVPG      C212           34.5357638999      -35.3989880103       -7.5199949437  MEMB      97              0.0000000000
     50967      1357  PVPG      H121           35.4944495959      -35.2249817943       -7.0094618217  MEMB      97              0.0000000000
     50968      1357  PVPG      C213           33.9838825169      -36.8544264851       -7.3453357644  MEMB      97              0.0000000000
     50969      1357  PVPG      H13R           34.7973430359      -37.5768337868       -7.5705709221  MEMB      97              0.0000000000
     50970      1357  PVPG      H13S           33.2150953780      -37.1050248280       -8.1072334996  MEMB      97              0.0000000000
     50971      1357  PVPG      C214           33.3940426114      -37.0165680874       -5.9054969883  MEMB      97              0.0000000000
     50972      1357  PVPG      H14R           32.8455467632      -37.9737667007       -5.7741806032  MEMB      97              0.0000000000
     50973      1357  PVPG      H14S           32.6901911078      -36.1599291638       -5.8341943504  MEMB      97              0.0000000000
     50974      1357  PVPG      C215           34.4438890378      -37.0469806039       -4.7734522663  MEMB      97              0.0000000000
     50975      1357  PVPG      H15R           35.2595267082      -36.3106958492       -4.9375885395  MEMB      97              0.0000000000
     50976      1357  PVPG      H15S           34.9596238214      -38.0185046493       -4.6169915869  MEMB      97              0.0000000000
     50977      1357  PVPG      C216           33.8063071827      -36.8632443196       -3.3767950110  MEMB      97              0.0000000000
     50978      1357  PVPG      H16R           34.7146895206      -36.9079466802       -2.7387007631  MEMB      97              0.0000000000
     50979      1357  PVPG      H16S           33.1573666684      -37.7354649523       -3.1478230624  MEMB      97              0.0000000000
     50980      1357  PVPG      C217           33.1766060532      -35.4973741639       -3.1032879033  MEMB      97              0.0000000000
     50981      1357  PVPG      H17R           32.2678307164      -35.3378693789       -3.7221630710  MEMB      97              0.0000000000
     50982      1357  PVPG      H17S           33.9202167490      -34.6933276372       -3.2900320573  MEMB      97              0.0000000000
     50983      1357  PVPG      C218           32.8373049593      -35.4004881751       -1.6403276376  MEMB      97              0.0000000000
     50984      1357  PVPG      H18R           32.1214309696      -36.2404414773       -1.5125600884  MEMB      97              0.0000000000
     50985      1357  PVPG      H18S           33.8156564138      -35.5838876440       -1.1468564179  MEMB      97              0.0000000000
     50986      1357  PVPG      H18T           32.3588482635      -34.4607728082       -1.2905637628  MEMB      97              0.0000000000
     50987      1357  PVPG      C33            33.9476476324      -40.6232667262      -10.9005232640  MEMB      97              0.0000000000
     50988      1357  PVPG      H3X            33.5597626073      -39.7717611974      -11.4995262750  MEMB      97              0.0000000000
     50989      1357  PVPG      H3Y            34.9294762708      -40.3884577196      -10.4366281555  MEMB      97              0.0000000000
     50990      1357  PVPG      C34            33.0954492872      -40.7912419871       -9.6410739099  MEMB      97              0.0000000000
     50991      1357  PVPG      H4X            32.0657639269      -41.1093556460       -9.9110232056  MEMB      97              0.0000000000
     50992      1357  PVPG      H4Y            33.0698934984      -39.7479804074       -9.2599263708  MEMB      97              0.0000000000
     50993      1357  PVPG      C35            33.7320125958      -41.7571027929       -8.6540379353  MEMB      97              0.0000000000
     50994      1357  PVPG      H5X            34.8323247365      -41.6047113439       -8.6337606039  MEMB      97              0.0000000000
     50995      1357  PVPG      H5Y            33.5121605079      -42.8246736542       -8.8691617586  MEMB      97              0.0000000000
     50996      1357  PVPG      C36            33.3009582428      -41.5767350791       -7.1987200464  MEMB      97              0.0000000000
     50997      1357  PVPG      H6X            32.1912251092      -41.5398365074       -7.1606166405  MEMB      97              0.0000000000
     50998      1357  PVPG      H6Y            33.8080433487      -40.7284351872       -6.6912031043  MEMB      97              0.0000000000
     50999      1357  PVPG      C37            33.6990266773      -42.8997094615       -6.3861152992  MEMB      97              0.0000000000
     51000      1357  PVPG      H7X            34.7353299962      -43.1892781947       -6.6627859045  MEMB      97              0.0000000000
     51001      1357  PVPG      H7Y            33.0790225357      -43.7490933095       -6.7445333438  MEMB      97              0.0000000000
     51002      1357  PVPG      C38            33.7457899082      -42.7125223046       -4.8570912314  MEMB      97              0.0000000000
     51003      1357  PVPG      H8X            33.8271708305      -43.7420795338       -4.4475666805  MEMB      97              0.0000000000
     51004      1357  PVPG      H8Y            32.7489577529      -42.2762658535       -4.6327541670  MEMB      97              0.0000000000
     51005      1357  PVPG      C39            34.9493272836      -41.9282951168       -4.3381207402  MEMB      97              0.0000000000
     51006      1357  PVPG      H9X            34.8697251690      -40.9282689201       -4.8155439881  MEMB      97              0.0000000000
     51007      1357  PVPG      H9Y            35.8557320580      -42.3902181810       -4.7846391878  MEMB      97              0.0000000000
     51008      1357  PVPG      C310           34.8616678601      -41.5080704708       -2.8283545052  MEMB      97              0.0000000000
     51009      1357  PVPG      H10X           35.5573096932      -40.6461213202       -2.7420578748  MEMB      97              0.0000000000
     51010      1357  PVPG      H10Y           35.3076652890      -42.3732517011       -2.2927522471  MEMB      97              0.0000000000
     51011      1357  PVPG      C311           33.4842664616      -41.0939674599       -2.3016982676  MEMB      97              0.0000000000
     51012      1357  PVPG      H11X           32.9359808903      -42.0348164829       -2.0814559863  MEMB      97              0.0000000000
     51013      1357  PVPG      H11Y           33.0080542263      -40.4217495527       -3.0471287730  MEMB      97              0.0000000000
     51014      1357  PVPG      C312           33.4858226188      -40.3693253404       -0.9527019987  MEMB      97              0.0000000000
     51015      1357  PVPG      H12X           32.7161315123      -39.5701200553       -0.8964219872  MEMB      97              0.0000000000
     51016      1357  PVPG      H12Y           34.4399976455      -39.8146767256       -0.8252824788  MEMB      97              0.0000000000
     51017      1357  PVPG      C313           33.1794373046      -41.2283855889        0.2582511961  MEMB      97              0.0000000000
     51018      1357  PVPG      H13X           33.8237551578      -42.1320377575        0.2073745251  MEMB      97              0.0000000000
     51019      1357  PVPG      H13Y           32.1238488911      -41.5598379108        0.1572890446  MEMB      97              0.0000000000
     51020      1357  PVPG      C314           33.3134483938      -40.6436459668        1.5887129244  MEMB      97              0.0000000000
     51021      1357  PVPG      H14X           32.6811797924      -39.7319784501        1.6471917597  MEMB      97              0.0000000000
     51022      1357  PVPG      H14Y           34.3225582520      -40.1792207924        1.5706157750  MEMB      97              0.0000000000
     51023      1357  PVPG      C315           33.0136447378      -41.6821930266        2.7434849129  MEMB      97              0.0000000000
     51024      1357  PVPG      H15X           33.2702935903      -41.0737158116        3.6369084791  MEMB      97              0.0000000000
     51025      1357  PVPG      H15Y           33.7128573754      -42.5455518052        2.7376339418  MEMB      97              0.0000000000
     51026      1357  PVPG      C316           31.6517862780      -42.2870852020        2.7928459613  MEMB      97              0.0000000000
     51027      1357  PVPG      H16X           31.5813776401      -43.1762315475        2.1304384717  MEMB      97              0.0000000000
     51028      1357  PVPG      H16Y           31.4653890416      -42.5670105701        3.8517217477  MEMB      97              0.0000000000
     51029      1357  PVPG      H16Z           30.9008831780      -41.5560694152        2.4239533048  MEMB      97              0.0000000000
     51030      1358  PPPE      N             -29.5709006302      -40.9538659708      -19.9459625481  MEMB      98              0.0000000000
     51031      1358  PPPE      HN1           -30.3348822651      -41.5737432402      -19.6087916232  MEMB      98              0.0000000000
     51032      1358  PPPE      HN2           -29.1014339187      -41.4826939821      -20.7085515208  MEMB      98              0.0000000000
     51033      1358  PPPE      HN3           -29.0107685879      -40.7709660693      -19.0889912994  MEMB      98              0.0000000000
     51034      1358  PPPE      C12           -30.0869427401      -39.6494759259      -20.5969602306  MEMB      98              0.0000000000
     51035      1358  PPPE      H12A          -30.5431504988      -39.9714135300      -21.5574557590  MEMB      98              0.0000000000
     51036      1358  PPPE      H12B          -29.1568041280      -39.1269371378      -20.9069866443  MEMB      98              0.0000000000
     51037      1358  PPPE      C11           -30.9366821925      -38.8553552128      -19.6716526579  MEMB      98              0.0000000000
     51038      1358  PPPE      H11A          -30.9318977180      -37.8227057922      -20.0814492941  MEMB      98              0.0000000000
     51039      1358  PPPE      H11B          -30.5499345928      -38.7131951987      -18.6398882350  MEMB      98              0.0000000000
     51040      1358  PPPE      P             -33.0035187781      -39.4903288557      -18.3377198846  MEMB      98              0.0000000000
     51041      1358  PPPE      O13           -33.4501585075      -38.1107719548      -17.9736569669  MEMB      98              0.0000000000
     51042      1358  PPPE      O14           -34.0845844567      -40.5104946039      -18.5571641968  MEMB      98              0.0000000000
     51043      1358  PPPE      O11           -32.0365231688      -39.9436868287      -17.2330177353  MEMB      98              0.0000000000
     51044      1358  PPPE      O12           -32.1589527210      -39.5176294244      -19.6838657324  MEMB      98              0.0000000000
     51045      1358  PPPE      C1            -31.8479122200      -41.3920535471      -17.0586189060  MEMB      98              0.0000000000
     51046      1358  PPPE      HA            -30.8662737805      -41.4668571131      -16.5437292083  MEMB      98              0.0000000000
     51047      1358  PPPE      HB            -31.7806376822      -41.9379159467      -18.0239320040  MEMB      98              0.0000000000
     51048      1358  PPPE      C2            -32.7730301113      -42.1335812941      -16.0411599326  MEMB      98              0.0000000000
     51049      1358  PPPE      HS            -33.7364741838      -42.0212726869      -16.5829009186  MEMB      98              0.0000000000
     51050      1358  PPPE      O21           -32.6855285929      -41.6273271744      -14.6980745484  MEMB      98              0.0000000000
     51051      1358  PPPE      C21           -33.4700183143      -40.5156107908      -14.3729090786  MEMB      98              0.0000000000
     51052      1358  PPPE      O22           -34.1891553885      -40.0537936938      -15.2173574319  MEMB      98              0.0000000000
     51053      1358  PPPE      C22           -33.3178520308      -40.2383775817      -12.9250317172  MEMB      98              0.0000000000
     51054      1358  PPPE      H2R           -32.6446837490      -40.9741976956      -12.4354051002  MEMB      98              0.0000000000
     51055      1358  PPPE      H2S           -34.2611541752      -40.1597485918      -12.3433792897  MEMB      98              0.0000000000
     51056      1358  PPPE      C3            -32.3545744871      -43.6343595578      -16.1926010595  MEMB      98              0.0000000000
     51057      1358  PPPE      HX            -33.1417431928      -44.2764277156      -15.7426733880  MEMB      98              0.0000000000
     51058      1358  PPPE      HY            -32.2596489470      -43.9679224722      -17.2480847988  MEMB      98              0.0000000000
     51059      1358  PPPE      O31           -31.1152290682      -43.9877461823      -15.5182679808  MEMB      98              0.0000000000
     51060      1358  PPPE      C31           -31.0165189751      -44.2653183079      -14.3023799576  MEMB      98              0.0000000000
     51061      1358  PPPE      O32           -31.9736839838      -44.4244355256      -13.5594605133  MEMB      98              0.0000000000
     51062      1358  PPPE      C32           -29.4868484883      -44.3593903299      -14.1119127745  MEMB      98              0.0000000000
     51063      1358  PPPE      H2X           -28.9261965829      -43.4584148324      -14.4409015188  MEMB      98              0.0000000000
     51064      1358  PPPE      H2Y           -29.0417987450      -45.2673313245      -14.5722331807  MEMB      98              0.0000000000
     51065      1358  PPPE      C23           -32.6205542891      -38.8809622574      -12.7799775059  MEMB      98              0.0000000000
     51066      1358  PPPE      H3R           -33.1914889527      -38.1153310532      -13.3475719641  MEMB      98              0.0000000000
     51067      1358  PPPE      H3S           -31.5804525889      -39.0338786162      -13.1393186262  MEMB      98              0.0000000000
     51068      1358  PPPE      C24           -32.6041625941      -38.4129020552      -11.3377168169  MEMB      98              0.0000000000
     51069      1358  PPPE      H4R           -33.5986384790      -38.1891563963      -10.8958157030  MEMB      98              0.0000000000
     51070      1358  PPPE      H4S           -32.1185948201      -37.4155846477      -11.4001902150  MEMB      98              0.0000000000
     51071      1358  PPPE      C25           -31.7137649770      -39.3110720399      -10.4238429497  MEMB      98              0.0000000000
     51072      1358  PPPE      H5R           -30.7315169903      -39.5353247410      -10.8920529652  MEMB      98              0.0000000000
     51073      1358  PPPE      H5S           -32.2566111130      -40.2578507870      -10.2158788258  MEMB      98              0.0000000000
     51074      1358  PPPE      C26           -31.3986025657      -38.7543319783       -9.0553507417  MEMB      98              0.0000000000
     51075      1358  PPPE      H6R           -30.6745352385      -37.9304522820       -9.2321832944  MEMB      98              0.0000000000
     51076      1358  PPPE      H6S           -30.9018092704      -39.6076142042       -8.5460111058  MEMB      98              0.0000000000
     51077      1358  PPPE      C27           -32.6791944102      -38.3900747142       -8.2780496479  MEMB      98              0.0000000000
     51078      1358  PPPE      H7R           -33.5127606911      -39.1144108038       -8.3998095947  MEMB      98              0.0000000000
     51079      1358  PPPE      H7S           -33.0929550414      -37.4551585882       -8.7128541758  MEMB      98              0.0000000000
     51080      1358  PPPE      C28           -32.4902340610      -38.0699221020       -6.8112231550  MEMB      98              0.0000000000
     51081      1358  PPPE      H8R           -33.5251433256      -37.8750813360       -6.4572162487  MEMB      98              0.0000000000
     51082      1358  PPPE      H8S           -31.9430433670      -37.1057389988       -6.7387366876  MEMB      98              0.0000000000
     51083      1358  PPPE      C29           -31.8844617271      -39.2062649283       -6.0579663029  MEMB      98              0.0000000000
     51084      1358  PPPE      H91           -32.1842007567      -40.2305995631       -6.3242275846  MEMB      98              0.0000000000
     51085      1358  PPPE      C210          -30.8199588846      -39.0731834515       -5.2063111220  MEMB      98              0.0000000000
     51086      1358  PPPE      H101          -30.4501562732      -40.0209174866       -4.7879258601  MEMB      98              0.0000000000
     51087      1358  PPPE      C211          -30.0514761415      -37.8474356875       -4.7921244280  MEMB      98              0.0000000000
     51088      1358  PPPE      H11R          -30.6763718224      -36.9336496397       -4.8860469864  MEMB      98              0.0000000000
     51089      1358  PPPE      H11S          -29.1517434658      -37.6000362359       -5.3951133365  MEMB      98              0.0000000000
     51090      1358  PPPE      C212          -29.6547567630      -37.9354431575       -3.3415431335  MEMB      98              0.0000000000
     51091      1358  PPPE      H12R          -29.1612747005      -37.0275899599       -2.9333776944  MEMB      98              0.0000000000
     51092      1358  PPPE      H12S          -28.9141301190      -38.7528493614       -3.2087264481  MEMB      98              0.0000000000
     51093      1358  PPPE      C213          -30.8442285048      -38.1044184239       -2.3397439143  MEMB      98              0.0000000000
     51094      1358  PPPE      H13R          -31.3397706692      -39.0470174029       -2.6563921862  MEMB      98              0.0000000000
     51095      1358  PPPE      H13S          -31.4887903639      -37.2232289060       -2.5455740471  MEMB      98              0.0000000000
     51096      1358  PPPE      C214          -30.5189664767      -38.1007033236       -0.8571267569  MEMB      98              0.0000000000
     51097      1358  PPPE      H14R          -30.1977866915      -37.1713585458       -0.3399393349  MEMB      98              0.0000000000
     51098      1358  PPPE      H14S          -29.7464608792      -38.8988733928       -0.8352031988  MEMB      98              0.0000000000
     51099      1358  PPPE      C215          -31.6756097964      -38.6153220342       -0.0540350899  MEMB      98              0.0000000000
     51100      1358  PPPE      H15R          -31.3765329311      -38.9667647412        0.9565894954  MEMB      98              0.0000000000
     51101      1358  PPPE      H15S          -32.0402402174      -39.5325020146       -0.5640807151  MEMB      98              0.0000000000
     51102      1358  PPPE      C216          -32.7725331702      -37.5953768956        0.0442096068  MEMB      98              0.0000000000
     51103      1358  PPPE      H16R          -33.6817072087      -37.9696038707        0.5615854265  MEMB      98              0.0000000000
     51104      1358  PPPE      H16S          -32.4163650497      -36.7006390759        0.5982037439  MEMB      98              0.0000000000
     51105      1358  PPPE      H16T          -33.1025987654      -37.2689856355       -0.9651696323  MEMB      98              0.0000000000
     51106      1358  PPPE      C33           -29.2877982615      -44.5115620252      -12.6196975168  MEMB      98              0.0000000000
     51107      1358  PPPE      H3X           -28.2820634882      -44.9612915777      -12.4763033221  MEMB      98              0.0000000000
     51108      1358  PPPE      H3Y           -29.9045491546      -45.3168629474      -12.1664539171  MEMB      98              0.0000000000
     51109      1358  PPPE      C34           -29.4482880599      -43.1913636783      -11.8680336358  MEMB      98              0.0000000000
     51110      1358  PPPE      H4X           -30.5305645396      -42.9443701738      -11.8233925071  MEMB      98              0.0000000000
     51111      1358  PPPE      H4Y           -28.9298054957      -42.3657433885      -12.4008074788  MEMB      98              0.0000000000
     51112      1358  PPPE      C35           -28.8588897206      -43.2847453017      -10.4565698959  MEMB      98              0.0000000000
     51113      1358  PPPE      H5X           -29.1649211605      -42.3686092444       -9.9076067986  MEMB      98              0.0000000000
     51114      1358  PPPE      H5Y           -27.7484499657      -43.2600488249      -10.4817618536  MEMB      98              0.0000000000
     51115      1358  PPPE      C36           -29.3924342944      -44.5076107114       -9.7411438212  MEMB      98              0.0000000000
     51116      1358  PPPE      H6X           -28.9379980425      -45.4344582719      -10.1519507011  MEMB      98              0.0000000000
     51117      1358  PPPE      H6Y           -30.4970404391      -44.6241327869       -9.7654104830  MEMB      98              0.0000000000
     51118      1358  PPPE      C37           -29.0527812859      -44.4330542261       -8.2468604338  MEMB      98              0.0000000000
     51119      1358  PPPE      H7X           -27.9875394391      -44.1252916859       -8.1771250307  MEMB      98              0.0000000000
     51120      1358  PPPE      H7Y           -29.1356298383      -45.4664997061       -7.8475515842  MEMB      98              0.0000000000
     51121      1358  PPPE      C38           -30.0601946373      -43.5351950867       -7.4600653253  MEMB      98              0.0000000000
     51122      1358  PPPE      H8X           -31.0567885497      -43.6987309742       -7.9230745988  MEMB      98              0.0000000000
     51123      1358  PPPE      H8Y           -29.8371455739      -42.4764246671       -7.7122067814  MEMB      98              0.0000000000
     51124      1358  PPPE      C39           -30.0861170606      -43.7700105415       -6.0102374908  MEMB      98              0.0000000000
     51125      1358  PPPE      H9X           -29.2319744659      -43.3706354490       -5.4226483799  MEMB      98              0.0000000000
     51126      1358  PPPE      H9Y           -30.0531954026      -44.8514961892       -5.7579956258  MEMB      98              0.0000000000
     51127      1358  PPPE      C310          -31.3959093983      -43.0971834517       -5.3634212394  MEMB      98              0.0000000000
     51128      1358  PPPE      H10X          -32.2695758063      -43.6845863255       -5.7183661243  MEMB      98              0.0000000000
     51129      1358  PPPE      H10Y          -31.4876271110      -42.1130077320       -5.8706756274  MEMB      98              0.0000000000
     51130      1358  PPPE      C311          -31.2877445830      -42.9325601999       -3.8960051655  MEMB      98              0.0000000000
     51131      1358  PPPE      H11X          -30.3452042214      -42.3745222606       -3.7101764133  MEMB      98              0.0000000000
     51132      1358  PPPE      H11Y          -31.1058019313      -43.9620706811       -3.5200716067  MEMB      98              0.0000000000
     51133      1358  PPPE      C312          -32.3331004061      -42.0866854132       -3.1508679618  MEMB      98              0.0000000000
     51134      1358  PPPE      H12X          -33.3370155994      -42.4880583654       -3.4065533895  MEMB      98              0.0000000000
     51135      1358  PPPE      H12Y          -32.2779879472      -41.0162147042       -3.4430598128  MEMB      98              0.0000000000
     51136      1358  PPPE      C313          -32.0083667588      -42.1419497698       -1.6983580512  MEMB      98              0.0000000000
     51137      1358  PPPE      H13X          -32.8227243668      -41.6879819728       -1.0941594699  MEMB      98              0.0000000000
     51138      1358  PPPE      H13Y          -31.0495954513      -41.6741346666       -1.3881522984  MEMB      98              0.0000000000
     51139      1358  PPPE      C314          -31.9864039416      -43.5625290423       -1.1366883351  MEMB      98              0.0000000000
     51140      1358  PPPE      H14X          -31.0522971629      -44.0478176752       -1.4920198266  MEMB      98              0.0000000000
     51141      1358  PPPE      H14Y          -32.8162598064      -44.1020379214       -1.6412578675  MEMB      98              0.0000000000
     51142      1358  PPPE      C315          -31.9795757139      -43.6286848735        0.4070385927  MEMB      98              0.0000000000
     51143      1358  PPPE      H15X          -32.7069582180      -42.8477162638        0.7157839951  MEMB      98              0.0000000000
     51144      1358  PPPE      H15Y          -30.9613893599      -43.4161908006        0.7975047468  MEMB      98              0.0000000000
     51145      1358  PPPE      C316          -32.3145240499      -45.0922502762        0.9152489251  MEMB      98              0.0000000000
     51146      1358  PPPE      H16X          -32.4258182415      -45.0845583244        2.0206336711  MEMB      98              0.0000000000
     51147      1358  PPPE      H16Y          -33.2221726509      -45.4521187159        0.3851642871  MEMB      98              0.0000000000
     51148      1358  PPPE      H16Z          -31.4485739830      -45.7336046233        0.6448490672  MEMB      98              0.0000000000
     51149      1359  PVPG      C13           -41.5491818436      -31.8296898386      -18.7648225767  MEMB      99              0.0000000000
     51150      1359  PVPG      H13A          -41.8203716447      -31.9068228947      -17.6901935527  MEMB      99              0.0000000000
     51151      1359  PVPG      H13B          -40.8289159150      -30.9976535453      -18.9173144667  MEMB      99              0.0000000000
     51152      1359  PVPG      OC3           -42.7166482624      -31.4616874547      -19.5561206945  MEMB      99              0.0000000000
     51153      1359  PVPG      HO3           -43.3275907586      -32.2020315410      -19.5716129402  MEMB      99              0.0000000000
     51154      1359  PVPG      C12           -40.9252757671      -33.0706378917      -19.3145542955  MEMB      99              0.0000000000
     51155      1359  PVPG      H12A          -39.8295405881      -33.0044352406      -19.1202332554  MEMB      99              0.0000000000
     51156      1359  PVPG      OC2           -41.1190933282      -33.1341076812      -20.7282187638  MEMB      99              0.0000000000
     51157      1359  PVPG      HO2           -40.7979655148      -34.0341812241      -20.9550697826  MEMB      99              0.0000000000
     51158      1359  PVPG      C11           -41.4170045563      -34.3782878258      -18.6759305662  MEMB      99              0.0000000000
     51159      1359  PVPG      H11A          -42.5256930191      -34.4183422383      -18.6165439694  MEMB      99              0.0000000000
     51160      1359  PVPG      H11B          -41.0902059109      -34.2846075054      -17.6182218683  MEMB      99              0.0000000000
     51161      1359  PVPG      P             -39.6748870194      -36.3644967926      -18.5892087773  MEMB      99              0.0000000000
     51162      1359  PVPG      O13           -38.8189519381      -35.3986112384      -17.8686702355  MEMB      99              0.0000000000
     51163      1359  PVPG      O14           -39.1235966742      -37.3573921095      -19.5231069790  MEMB      99              0.0000000000
     51164      1359  PVPG      O12           -40.8522489753      -35.5163849532      -19.3090863415  MEMB      99              0.0000000000
     51165      1359  PVPG      O11           -40.6300636140      -37.1929331812      -17.6702807700  MEMB      99              0.0000000000
     51166      1359  PVPG      C1            -40.1924286712      -37.9425505832      -16.5099577213  MEMB      99              0.0000000000
     51167      1359  PVPG      HA            -39.0922925292      -38.0953632620      -16.4840792346  MEMB      99              0.0000000000
     51168      1359  PVPG      HB            -40.5248256445      -38.9899320887      -16.6737436307  MEMB      99              0.0000000000
     51169      1359  PVPG      C2            -40.7573107657      -37.4879796754      -15.1118636583  MEMB      99              0.0000000000
     51170      1359  PVPG      HS            -40.6005202955      -38.3618803742      -14.4440052581  MEMB      99              0.0000000000
     51171      1359  PVPG      O21           -42.1716918790      -37.2907091186      -15.3297094525  MEMB      99              0.0000000000
     51172      1359  PVPG      C21           -43.0345295397      -38.0777062484      -14.5778322136  MEMB      99              0.0000000000
     51173      1359  PVPG      O22           -42.6628352603      -38.9488960769      -13.8025355460  MEMB      99              0.0000000000
     51174      1359  PVPG      C22           -44.4107683996      -37.6171103459      -14.8786672940  MEMB      99              0.0000000000
     51175      1359  PVPG      H2R           -45.1947695056      -38.2839636919      -14.4603737696  MEMB      99              0.0000000000
     51176      1359  PVPG      H2S           -44.4619439139      -37.7072454792      -15.9848218295  MEMB      99              0.0000000000
     51177      1359  PVPG      C3            -40.1096684110      -36.2656202311      -14.5129009404  MEMB      99              0.0000000000
     51178      1359  PVPG      HX            -39.0991985239      -36.5837283183      -14.1781193125  MEMB      99              0.0000000000
     51179      1359  PVPG      HY            -40.0788460957      -35.5035757374      -15.3207742865  MEMB      99              0.0000000000
     51180      1359  PVPG      O31           -40.7302758280      -35.8659136980      -13.3229881991  MEMB      99              0.0000000000
     51181      1359  PVPG      C31           -40.2147177478      -34.6440798229      -12.9237242131  MEMB      99              0.0000000000
     51182      1359  PVPG      O32           -39.3154272329      -34.0768939363      -13.4684499173  MEMB      99              0.0000000000
     51183      1359  PVPG      C32           -40.9682731268      -33.9727597629      -11.8527792005  MEMB      99              0.0000000000
     51184      1359  PVPG      H2X           -41.9098331411      -33.6024417944      -12.3117458682  MEMB      99              0.0000000000
     51185      1359  PVPG      H2Y           -40.3535906629      -33.1072395948      -11.5251186179  MEMB      99              0.0000000000
     51186      1359  PVPG      C23           -44.6563286452      -36.1271558869      -14.4348828680  MEMB      99              0.0000000000
     51187      1359  PVPG      H3R           -45.6662061609      -36.0462787535      -14.8908729480  MEMB      99              0.0000000000
     51188      1359  PVPG      H3S           -44.0429928919      -35.3749835584      -14.9756018559  MEMB      99              0.0000000000
     51189      1359  PVPG      C24           -44.6639735247      -35.8430229159      -12.9165319057  MEMB      99              0.0000000000
     51190      1359  PVPG      H4R           -45.0532690759      -34.8156111956      -12.7516223327  MEMB      99              0.0000000000
     51191      1359  PVPG      H4S           -43.6552459574      -36.1112260402      -12.5359312741  MEMB      99              0.0000000000
     51192      1359  PVPG      C25           -45.6225954008      -36.6963515722      -12.0790404762  MEMB      99              0.0000000000
     51193      1359  PVPG      H5R           -45.8822102509      -37.6548816391      -12.5771781351  MEMB      99              0.0000000000
     51194      1359  PVPG      H5S           -46.5986843795      -36.1706607182      -12.0067864622  MEMB      99              0.0000000000
     51195      1359  PVPG      C26           -44.9969721732      -37.0712543426      -10.6686974011  MEMB      99              0.0000000000
     51196      1359  PVPG      H6R           -45.8869626255      -37.3478068231      -10.0639184821  MEMB      99              0.0000000000
     51197      1359  PVPG      H6S           -44.5723632724      -36.2604033819      -10.0389757050  MEMB      99              0.0000000000
     51198      1359  PVPG      C27           -43.9019296990      -38.2225141661      -10.6212515776  MEMB      99              0.0000000000
     51199      1359  PVPG      H7R           -43.1489403614      -38.0291030311      -11.4149270649  MEMB      99              0.0000000000
     51200      1359  PVPG      H7S           -44.2671668150      -39.2669099562      -10.7220474870  MEMB      99              0.0000000000
     51201      1359  PVPG      C28           -43.0998030966      -38.1013818185       -9.3347024066  MEMB      99              0.0000000000
     51202      1359  PVPG      H8R           -43.8372525104      -38.4679723406       -8.5889802464  MEMB      99              0.0000000000
     51203      1359  PVPG      H8S           -42.8148129687      -37.0418928730       -9.1598170048  MEMB      99              0.0000000000
     51204      1359  PVPG      C29           -41.9376769558      -39.1372143351       -9.2313072287  MEMB      99              0.0000000000
     51205      1359  PVPG      H9R           -41.1085467666      -38.8402794204       -9.9085765617  MEMB      99              0.0000000000
     51206      1359  PVPG      H9S           -42.2065791584      -40.1480857524       -9.6056759566  MEMB      99              0.0000000000
     51207      1359  PVPG      C210          -41.3104380876      -39.1419062072       -7.7939077337  MEMB      99              0.0000000000
     51208      1359  PVPG      H10R          -41.2761117485      -38.0973127986       -7.4171223313  MEMB      99              0.0000000000
     51209      1359  PVPG      H10S          -40.2725497846      -39.5195854884       -7.9141881713  MEMB      99              0.0000000000
     51210      1359  PVPG      C211          -41.9896152394      -40.0805945067       -6.8810723416  MEMB      99              0.0000000000
     51211      1359  PVPG      H111          -42.4275367358      -41.0036429492       -7.2887569872  MEMB      99              0.0000000000
     51212      1359  PVPG      C212          -42.1749371968      -39.8300301552       -5.5719588040  MEMB      99              0.0000000000
     51213      1359  PVPG      H121          -42.7431758392      -40.5552182203       -4.9709538173  MEMB      99              0.0000000000
     51214      1359  PVPG      C213          -41.7382770629      -38.5734047594       -4.7859410238  MEMB      99              0.0000000000
     51215      1359  PVPG      H13R          -41.2513780887      -37.8002265346       -5.4179582646  MEMB      99              0.0000000000
     51216      1359  PVPG      H13S          -40.9712212797      -38.8080407917       -4.0172457721  MEMB      99              0.0000000000
     51217      1359  PVPG      C214          -42.9109415977      -37.9482801216       -3.9993274829  MEMB      99              0.0000000000
     51218      1359  PVPG      H14R          -43.9142790039      -38.3245619838       -4.2926653681  MEMB      99              0.0000000000
     51219      1359  PVPG      H14S          -42.7953436164      -36.8655365005       -4.2198372325  MEMB      99              0.0000000000
     51220      1359  PVPG      C215          -42.7772977414      -37.9954941501       -2.4686603666  MEMB      99              0.0000000000
     51221      1359  PVPG      H15R          -41.7892311059      -37.5432562084       -2.2373028261  MEMB      99              0.0000000000
     51222      1359  PVPG      H15S          -42.6907096845      -39.0829625253       -2.2583369227  MEMB      99              0.0000000000
     51223      1359  PVPG      C216          -43.9070655108      -37.2960491996       -1.6949344329  MEMB      99              0.0000000000
     51224      1359  PVPG      H16R          -44.8492948738      -37.8760766221       -1.7953979008  MEMB      99              0.0000000000
     51225      1359  PVPG      H16S          -44.1980772122      -36.3135737809       -2.1243254654  MEMB      99              0.0000000000
     51226      1359  PVPG      C217          -43.6967560739      -37.3929119151       -0.2087411839  MEMB      99              0.0000000000
     51227      1359  PVPG      H17R          -42.8019051369      -36.7859853122        0.0466078765  MEMB      99              0.0000000000
     51228      1359  PVPG      H17S          -43.3918945750      -38.4512212040       -0.0625836168  MEMB      99              0.0000000000
     51229      1359  PVPG      C218          -44.9343120843      -37.0591898490        0.5938651794  MEMB      99              0.0000000000
     51230      1359  PVPG      H18R          -45.4444441639      -36.1609586921        0.1848820545  MEMB      99              0.0000000000
     51231      1359  PVPG      H18S          -45.5169192051      -37.9907993690        0.4295676999  MEMB      99              0.0000000000
     51232      1359  PVPG      H18T          -44.7343103324      -36.9261818226        1.6785905850  MEMB      99              0.0000000000
     51233      1359  PVPG      C33           -41.2871004078      -34.8402055944      -10.5619343342  MEMB      99              0.0000000000
     51234      1359  PVPG      H3X           -40.3811976900      -35.4032026808      -10.2509754101  MEMB      99              0.0000000000
     51235      1359  PVPG      H3Y           -42.0302296105      -35.5999103886      -10.8858609003  MEMB      99              0.0000000000
     51236      1359  PVPG      C34           -41.7218717507      -33.9699998706       -9.4332970747  MEMB      99              0.0000000000
     51237      1359  PVPG      H4X           -42.7703094868      -33.6678352863       -9.6425716068  MEMB      99              0.0000000000
     51238      1359  PVPG      H4Y           -41.0399276377      -33.0929760741       -9.4434249110  MEMB      99              0.0000000000
     51239      1359  PVPG      C35           -41.7688147875      -34.6624333817       -8.0266305904  MEMB      99              0.0000000000
     51240      1359  PVPG      H5X           -42.7120414979      -35.2472079368       -7.9748292969  MEMB      99              0.0000000000
     51241      1359  PVPG      H5Y           -41.9182821675      -33.9701863637       -7.1706076527  MEMB      99              0.0000000000
     51242      1359  PVPG      C36           -40.5614621128      -35.5724019490       -7.6199148009  MEMB      99              0.0000000000
     51243      1359  PVPG      H6X           -40.3566325996      -36.4505034512       -8.2689938507  MEMB      99              0.0000000000
     51244      1359  PVPG      H6Y           -40.8618745918      -35.9950499840       -6.6373454627  MEMB      99              0.0000000000
     51245      1359  PVPG      C37           -39.3690921381      -34.7317214151       -7.3195370193  MEMB      99              0.0000000000
     51246      1359  PVPG      H7X           -39.1146592381      -34.2185603749       -8.2715089745  MEMB      99              0.0000000000
     51247      1359  PVPG      H7Y           -38.5072204616      -35.3794184449       -7.0512337475  MEMB      99              0.0000000000
     51248      1359  PVPG      C38           -39.5853173701      -33.6752926302       -6.1073661524  MEMB      99              0.0000000000
     51249      1359  PVPG      H8X           -40.4104616385      -33.0164684324       -6.4529214057  MEMB      99              0.0000000000
     51250      1359  PVPG      H8Y           -38.6261096672      -33.1193411597       -6.1791990057  MEMB      99              0.0000000000
     51251      1359  PVPG      C39           -39.7326912454      -34.3772255490       -4.8123090887  MEMB      99              0.0000000000
     51252      1359  PVPG      H9X           -38.9142828755      -35.0881293071       -4.5691123783  MEMB      99              0.0000000000
     51253      1359  PVPG      H9Y           -40.7344073333      -34.8514235665       -4.7347068026  MEMB      99              0.0000000000
     51254      1359  PVPG      C310          -39.8207503206      -33.3818869138       -3.6232218796  MEMB      99              0.0000000000
     51255      1359  PVPG      H10X          -40.7841989038      -32.8793308141       -3.8545765638  MEMB      99              0.0000000000
     51256      1359  PVPG      H10Y          -38.9854776350      -32.6496539832       -3.6450234331  MEMB      99              0.0000000000
     51257      1359  PVPG      C311          -39.6577363556      -34.0879033987       -2.2441159084  MEMB      99              0.0000000000
     51258      1359  PVPG      H11X          -38.6192147876      -34.4501658690       -2.0873989706  MEMB      99              0.0000000000
     51259      1359  PVPG      H11Y          -40.4324451455      -34.8831541990       -2.2025968727  MEMB      99              0.0000000000
     51260      1359  PVPG      C312          -39.9301742026      -33.2567351170       -1.0255151798  MEMB      99              0.0000000000
     51261      1359  PVPG      H12X          -39.3606754546      -32.3069495266       -1.1143904799  MEMB      99              0.0000000000
     51262      1359  PVPG      H12Y          -39.4460780214      -33.7650077690       -0.1643343389  MEMB      99              0.0000000000
     51263      1359  PVPG      C313          -41.4000023567      -32.9167517699       -0.7660537425  MEMB      99              0.0000000000
     51264      1359  PVPG      H13X          -41.8284662310      -33.9197983529       -0.9773292987  MEMB      99              0.0000000000
     51265      1359  PVPG      H13Y          -41.7679419375      -32.0577171424       -1.3668856945  MEMB      99              0.0000000000
     51266      1359  PVPG      C314          -41.8679611068      -32.5090941891        0.7096143240  MEMB      99              0.0000000000
     51267      1359  PVPG      H14X          -41.0838482790      -31.8901130261        1.1957727023  MEMB      99              0.0000000000
     51268      1359  PVPG      H14Y          -41.9353327694      -33.4968002755        1.2138157262  MEMB      99              0.0000000000
     51269      1359  PVPG      C315          -43.2271586505      -31.6191772299        0.7092731737  MEMB      99              0.0000000000
     51270      1359  PVPG      H15X          -42.9836142224      -30.8501300647       -0.0546470993  MEMB      99              0.0000000000
     51271      1359  PVPG      H15Y          -43.2356735545      -31.1698285004        1.7253113481  MEMB      99              0.0000000000
     51272      1359  PVPG      C316          -44.5193435715      -32.4213362338        0.3436820181  MEMB      99              0.0000000000
     51273      1359  PVPG      H16X          -44.6740062349      -32.7303584728       -0.7122083353  MEMB      99              0.0000000000
     51274      1359  PVPG      H16Y          -44.7067708770      -33.3554519651        0.9151897477  MEMB      99              0.0000000000
     51275      1359  PVPG      H16Z          -45.3594305514      -31.7873048895        0.6994624708  MEMB      99              0.0000000000
     51276      1360  PVCL2     C3            -38.6341558240       35.7817731599      -19.3807316878  MEMB      100             0.0000000000
     51277      1360  PVCL2     HG31          -38.9593543560       35.3706218594      -18.4011799811  MEMB      100             0.0000000000
     51278      1360  PVCL2     HG32          -37.5807363242       35.5780057535      -19.6690149512  MEMB      100             0.0000000000
     51279      1360  PVCL2     P3            -38.4731686171       38.2506779433      -20.3773493219  MEMB      100             0.0000000000
     51280      1360  PVCL2     OP33          -39.5773886830       39.1940608830      -20.5218075150  MEMB      100             0.0000000000
     51281      1360  PVCL2     OP34          -37.9901881976       37.6351348545      -21.6323198655  MEMB      100             0.0000000000
     51282      1360  PVCL2     OP31          -38.9388207618       37.1657246149      -19.3020678381  MEMB      100             0.0000000000
     51283      1360  PVCL2     OP32          -37.2521099271       39.0386937041      -19.7746377855  MEMB      100             0.0000000000
     51284      1360  PVCL2     C31           -37.2700730749       39.8035041130      -18.5569276227  MEMB      100             0.0000000000
     51285      1360  PVCL2     H31J          -36.7498131069       40.7536638940      -18.8035992523  MEMB      100             0.0000000000
     51286      1360  PVCL2     H31K          -38.2903338164       40.0237191357      -18.1762774840  MEMB      100             0.0000000000
     51287      1360  PVCL2     C2            -39.6368212202       35.2211594685      -20.3848287559  MEMB      100             0.0000000000
     51288      1360  PVCL2     HG22          -39.6631782658       35.8687509695      -21.2871876154  MEMB      100             0.0000000000
     51289      1360  PVCL2     OG12          -39.2816224231       33.9062122756      -20.7089848159  MEMB      100             0.0000000000
     51290      1360  PVCL2     HO12          -38.9629202440       33.5444214890      -19.8788423542  MEMB      100             0.0000000000
     51291      1360  PVCL2     C1            -41.1581064440       35.1745304772      -19.9046658340  MEMB      100             0.0000000000
     51292      1360  PVCL2     HG11          -41.2165527912       34.5584154783      -18.9820026129  MEMB      100             0.0000000000
     51293      1360  PVCL2     HG12          -41.8106587583       34.6718691742      -20.6502046379  MEMB      100             0.0000000000
     51294      1360  PVCL2     P1            -42.4103551291       36.7570327855      -18.2688656638  MEMB      100             0.0000000000
     51295      1360  PVCL2     OP13          -41.4891802485       36.1722477994      -17.2938841103  MEMB      100             0.0000000000
     51296      1360  PVCL2     OP14          -42.8929646786       38.1593552300      -18.0139121195  MEMB      100             0.0000000000
     51297      1360  PVCL2     OP11          -41.8658353134       36.4854271514      -19.7687733657  MEMB      100             0.0000000000
     51298      1360  PVCL2     OP12          -43.6933165593       35.7982123980      -18.2652505809  MEMB      100             0.0000000000
     51299      1360  PVCL2     C11           -44.7881030504       36.1257309353      -19.1300088213  MEMB      100             0.0000000000
     51300      1360  PVCL2     H11J          -44.4554924979       36.1340507606      -20.1900192575  MEMB      100             0.0000000000
     51301      1360  PVCL2     H11K          -45.1222861832       37.1431067873      -18.8340546153  MEMB      100             0.0000000000
     51302      1360  PVCL2     C12           -46.0282263023       35.1792295264      -18.9261871236  MEMB      100             0.0000000000
     51303      1360  PVCL2     H12J          -46.7464557540       35.6238923345      -19.6478122962  MEMB      100             0.0000000000
     51304      1360  PVCL2     O12           -46.4704785846       35.3010806705      -17.5378506235  MEMB      100             0.0000000000
     51305      1360  PVCL2     CA1           -47.2402623350       36.3040416143      -17.1807458410  MEMB      100             0.0000000000
     51306      1360  PVCL2     OA1           -47.5506684042       37.1852178112      -17.9977702715  MEMB      100             0.0000000000
     51307      1360  PVCL2     CA2           -47.4308452458       36.3347199627      -15.6704384983  MEMB      100             0.0000000000
     51308      1360  PVCL2     H2A           -47.0929397959       35.3970582008      -15.1795910169  MEMB      100             0.0000000000
     51309      1360  PVCL2     H2B           -48.4835561836       36.5618932440      -15.3974687958  MEMB      100             0.0000000000
     51310      1360  PVCL2     C13           -45.8833381262       33.6600984167      -19.1113133203  MEMB      100             0.0000000000
     51311      1360  PVCL2     H13J          -45.9793377366       33.2948137012      -20.1561444312  MEMB      100             0.0000000000
     51312      1360  PVCL2     H13K          -46.7775690349       33.1755033490      -18.6642789885  MEMB      100             0.0000000000
     51313      1360  PVCL2     O13           -44.7363025529       33.0835933320      -18.4612354152  MEMB      100             0.0000000000
     51314      1360  PVCL2     CB1           -43.7063837187       32.8301324486      -19.2399875268  MEMB      100             0.0000000000
     51315      1360  PVCL2     OB1           -43.6481448957       33.1253501868      -20.4582054751  MEMB      100             0.0000000000
     51316      1360  PVCL2     CB2           -42.7359559778       31.8726081516      -18.5907112366  MEMB      100             0.0000000000
     51317      1360  PVCL2     H2D           -41.6491616168       31.9569589108      -18.8053828840  MEMB      100             0.0000000000
     51318      1360  PVCL2     H2E           -43.0868560739       30.8382723842      -18.7940326221  MEMB      100             0.0000000000
     51319      1360  PVCL2     C32           -36.4050187258       39.2453775932      -17.4787434623  MEMB      100             0.0000000000
     51320      1360  PVCL2     H32J          -35.3644165108       39.1807845204      -17.8625344930  MEMB      100             0.0000000000
     51321      1360  PVCL2     O32           -36.9387930860       37.9937698793      -17.0469366772  MEMB      100             0.0000000000
     51322      1360  PVCL2     CC1           -36.0980119048       37.0097462560      -16.7005309176  MEMB      100             0.0000000000
     51323      1360  PVCL2     OC1           -34.8808660057       37.0778605885      -16.5848079340  MEMB      100             0.0000000000
     51324      1360  PVCL2     CC2           -36.9595339750       35.8345493945      -16.2640047102  MEMB      100             0.0000000000
     51325      1360  PVCL2     H2R           -36.9915687344       35.0198715094      -17.0187197048  MEMB      100             0.0000000000
     51326      1360  PVCL2     H2S           -37.9784830282       36.2236027047      -16.0525775385  MEMB      100             0.0000000000
     51327      1360  PVCL2     C33           -36.3214084771       40.1443462880      -16.1931227034  MEMB      100             0.0000000000
     51328      1360  PVCL2     H33J          -35.7509711525       39.6157631471      -15.3996984555  MEMB      100             0.0000000000
     51329      1360  PVCL2     H33K          -35.7679039719       40.9908704773      -16.6528513564  MEMB      100             0.0000000000
     51330      1360  PVCL2     O33           -37.6660116016       40.5862302345      -15.8759111978  MEMB      100             0.0000000000
     51331      1360  PVCL2     CD1           -38.1396664958       40.4151839620      -14.6509630921  MEMB      100             0.0000000000
     51332      1360  PVCL2     OD1           -37.7232928449       39.6626557186      -13.7554067056  MEMB      100             0.0000000000
     51333      1360  PVCL2     CD2           -39.3652961363       41.3682052270      -14.4013384989  MEMB      100             0.0000000000
     51334      1360  PVCL2     H2X           -40.0524632826       41.0183873906      -15.2011821971  MEMB      100             0.0000000000
     51335      1360  PVCL2     H2Y           -38.9575509971       42.3957819344      -14.5115720349  MEMB      100             0.0000000000
     51336      1360  PVCL2     CA3           -46.5118435331       37.3803808323      -15.0243967906  MEMB      100             0.0000000000
     51337      1360  PVCL2     H3A           -46.7813271257       37.4386210408      -13.9481497559  MEMB      100             0.0000000000
     51338      1360  PVCL2     H3B           -46.8116619427       38.3601043645      -15.4540145842  MEMB      100             0.0000000000
     51339      1360  PVCL2     CA4           -44.9857021557       37.1454181197      -15.3527740806  MEMB      100             0.0000000000
     51340      1360  PVCL2     H4A           -44.6761096623       37.3707681794      -16.3956983374  MEMB      100             0.0000000000
     51341      1360  PVCL2     H4B           -44.6694862142       36.1238002728      -15.0517338865  MEMB      100             0.0000000000
     51342      1360  PVCL2     CA5           -44.0575712372       37.9101893041      -14.4117273434  MEMB      100             0.0000000000
     51343      1360  PVCL2     H5A           -44.4660271947       37.8423689065      -13.3807644973  MEMB      100             0.0000000000
     51344      1360  PVCL2     H5B           -44.1596802689       38.9725650454      -14.7203583691  MEMB      100             0.0000000000
     51345      1360  PVCL2     CA6           -42.5226176441       37.5237822549      -14.2673354633  MEMB      100             0.0000000000
     51346      1360  PVCL2     H6A           -42.1626827230       38.3104072613      -13.5702063096  MEMB      100             0.0000000000
     51347      1360  PVCL2     H6B           -41.9551804213       37.6465092487      -15.2145809151  MEMB      100             0.0000000000
     51348      1360  PVCL2     CA7           -42.2421258595       36.1029204650      -13.7413506372  MEMB      100             0.0000000000
     51349      1360  PVCL2     H7A           -41.1522723779       36.0616400564      -13.5296049895  MEMB      100             0.0000000000
     51350      1360  PVCL2     H7B           -42.2840374627       35.3130927257      -14.5215666251  MEMB      100             0.0000000000
     51351      1360  PVCL2     CA8           -42.9260149402       35.6559337086      -12.4435066701  MEMB      100             0.0000000000
     51352      1360  PVCL2     H8A           -42.7065396392       34.6180720551      -12.1133626950  MEMB      100             0.0000000000
     51353      1360  PVCL2     H8B           -44.0227940091       35.6684690760      -12.6202530761  MEMB      100             0.0000000000
     51354      1360  PVCL2     CA9           -42.6441108515       36.4044123402      -11.1234797495  MEMB      100             0.0000000000
     51355      1360  PVCL2     H9A           -43.1892982409       37.3613665856      -11.2695287993  MEMB      100             0.0000000000
     51356      1360  PVCL2     H9B           -41.5611812398       36.6307636016      -11.2252136477  MEMB      100             0.0000000000
     51357      1360  PVCL2     CA10          -42.9861017820       35.6597237443       -9.7948590098  MEMB      100             0.0000000000
     51358      1360  PVCL2     H10A          -42.5590558016       34.6462216397       -9.9522320284  MEMB      100             0.0000000000
     51359      1360  PVCL2     H10B          -44.0791071279       35.5016685847       -9.6737038310  MEMB      100             0.0000000000
     51360      1360  PVCL2     CA11          -42.3310823923       36.2253265252       -8.5767205010  MEMB      100             0.0000000000
     51361      1360  PVCL2     H11A          -42.5226473917       37.2749668753       -8.3092176516  MEMB      100             0.0000000000
     51362      1360  PVCL2     CA12          -41.3698560689       35.5598379127       -7.8078564578  MEMB      100             0.0000000000
     51363      1360  PVCL2     H12A          -40.9843112529       36.0807842408       -6.9190536719  MEMB      100             0.0000000000
     51364      1360  PVCL2     CA13          -40.8382395521       34.1561296684       -7.9937053887  MEMB      100             0.0000000000
     51365      1360  PVCL2     H13A          -39.8668929486       34.0426747254       -7.4665101991  MEMB      100             0.0000000000
     51366      1360  PVCL2     H13B          -40.7990029256       34.0279137973       -9.0965844377  MEMB      100             0.0000000000
     51367      1360  PVCL2     CA14          -41.8179750222       33.0650709428       -7.5457605573  MEMB      100             0.0000000000
     51368      1360  PVCL2     H14A          -41.5817118340       32.1056071344       -8.0536281329  MEMB      100             0.0000000000
     51369      1360  PVCL2     H14B          -42.8579764011       33.2847686992       -7.8689499836  MEMB      100             0.0000000000
     51370      1360  PVCL2     CA15          -41.6794893429       32.7473166719       -6.1149132725  MEMB      100             0.0000000000
     51371      1360  PVCL2     H15A          -40.9909412952       31.8786235535       -6.0401105540  MEMB      100             0.0000000000
     51372      1360  PVCL2     H15B          -42.5626437519       32.2789684000       -5.6301351926  MEMB      100             0.0000000000
     51373      1360  PVCL2     CA16          -41.0629742332       33.8143475872       -5.1635907540  MEMB      100             0.0000000000
     51374      1360  PVCL2     H16A          -41.8434392528       34.6047804240       -5.1433127239  MEMB      100             0.0000000000
     51375      1360  PVCL2     H16B          -40.2008121913       34.3336372221       -5.6340537602  MEMB      100             0.0000000000
     51376      1360  PVCL2     CA17          -40.7472096934       33.4998761500       -3.6855897732  MEMB      100             0.0000000000
     51377      1360  PVCL2     H17A          -39.8580450729       32.8436257141       -3.5713860751  MEMB      100             0.0000000000
     51378      1360  PVCL2     H17B          -41.6596602609       32.9126024266       -3.4471271560  MEMB      100             0.0000000000
     51379      1360  PVCL2     CA18          -40.6378530511       34.6621885845       -2.7620104688  MEMB      100             0.0000000000
     51380      1360  PVCL2     H18A          -41.3300496279       35.4994691305       -2.9947034979  MEMB      100             0.0000000000
     51381      1360  PVCL2     H18B          -39.5805799115       34.9898899165       -2.6665851675  MEMB      100             0.0000000000
     51382      1360  PVCL2     H18C          -40.9762479520       34.3461247962       -1.7521026486  MEMB      100             0.0000000000
     51383      1360  PVCL2     CB3           -42.7950344685       32.1177031800      -17.0954692277  MEMB      100             0.0000000000
     51384      1360  PVCL2     H3D           -43.7087682122       31.6595024395      -16.6601949195  MEMB      100             0.0000000000
     51385      1360  PVCL2     H3E           -42.6709723758       33.2069127040      -16.9150467561  MEMB      100             0.0000000000
     51386      1360  PVCL2     CB4           -41.5769291315       31.5212670050      -16.3816953005  MEMB      100             0.0000000000
     51387      1360  PVCL2     H4D           -40.5694314184       31.6939683134      -16.8169464744  MEMB      100             0.0000000000
     51388      1360  PVCL2     H4E           -41.6145833349       30.4109090129      -16.3845720432  MEMB      100             0.0000000000
     51389      1360  PVCL2     CB5           -41.6617728855       31.9222745696      -14.8535890780  MEMB      100             0.0000000000
     51390      1360  PVCL2     H5D           -42.6003332133       31.4789324003      -14.4575171105  MEMB      100             0.0000000000
     51391      1360  PVCL2     H5E           -41.6397897599       33.0286368078      -14.7545900580  MEMB      100             0.0000000000
     51392      1360  PVCL2     CB6           -40.5310198393       31.4412795228      -13.8802738288  MEMB      100             0.0000000000
     51393      1360  PVCL2     H6D           -39.6335295894       31.9559264824      -14.2852065522  MEMB      100             0.0000000000
     51394      1360  PVCL2     H6E           -40.4888460075       30.3484365679      -14.0758159986  MEMB      100             0.0000000000
     51395      1360  PVCL2     CB7           -40.8341876816       31.8232771122      -12.4663585157  MEMB      100             0.0000000000
     51396      1360  PVCL2     H7D           -41.8011507855       31.3867882772      -12.1365383930  MEMB      100             0.0000000000
     51397      1360  PVCL2     H7E           -40.9173816954       32.9253590398      -12.3531564177  MEMB      100             0.0000000000
     51398      1360  PVCL2     CB8           -39.7175005137       31.2846290592      -11.5105346936  MEMB      100             0.0000000000
     51399      1360  PVCL2     H8D           -39.4778281137       30.2571867236      -11.8587306237  MEMB      100             0.0000000000
     51400      1360  PVCL2     H8E           -39.9355153022       31.2558058278      -10.4215168189  MEMB      100             0.0000000000
     51401      1360  PVCL2     CB9           -38.4841816205       32.0947621420      -11.7413895902  MEMB      100             0.0000000000
     51402      1360  PVCL2     H9D           -38.7435108150       33.1739488928      -11.6921387979  MEMB      100             0.0000000000
     51403      1360  PVCL2     H9E           -38.0933988779       31.9410551516      -12.7699730730  MEMB      100             0.0000000000
     51404      1360  PVCL2     CB10          -37.3501332572       31.9481836557      -10.8385379908  MEMB      100             0.0000000000
     51405      1360  PVCL2     H10D          -36.4603309159       32.5381066988      -11.1460489437  MEMB      100             0.0000000000
     51406      1360  PVCL2     H10E          -37.0415584964       30.8811258078      -10.8163912597  MEMB      100             0.0000000000
     51407      1360  PVCL2     CB11          -37.5632498191       32.2489303277       -9.3105679042  MEMB      100             0.0000000000
     51408      1360  PVCL2     H11D          -38.3397026667       31.5273610975       -8.9777308096  MEMB      100             0.0000000000
     51409      1360  PVCL2     H11E          -37.9206332693       33.3008460111       -9.3021357475  MEMB      100             0.0000000000
     51410      1360  PVCL2     CB12          -36.3870781269       32.0266152028       -8.4266114391  MEMB      100             0.0000000000
     51411      1360  PVCL2     H12D          -35.5094030820       32.5608668902       -8.8492014073  MEMB      100             0.0000000000
     51412      1360  PVCL2     H12E          -36.0279534791       30.9759287973       -8.4641500860  MEMB      100             0.0000000000
     51413      1360  PVCL2     CB13          -36.4714917189       32.4968039413       -6.9392139733  MEMB      100             0.0000000000
     51414      1360  PVCL2     H13D          -37.5261915954       32.7327002336       -6.6817609532  MEMB      100             0.0000000000
     51415      1360  PVCL2     H13E          -36.0199690606       33.5106530157       -6.8886305023  MEMB      100             0.0000000000
     51416      1360  PVCL2     CB14          -35.9543142814       31.5279365940       -5.8987681353  MEMB      100             0.0000000000
     51417      1360  PVCL2     H14D          -34.9154473568       31.2127576406       -6.1348590556  MEMB      100             0.0000000000
     51418      1360  PVCL2     H14E          -36.4962834951       30.5779925052       -6.0942071394  MEMB      100             0.0000000000
     51419      1360  PVCL2     CB15          -36.1602137237       32.0383819945       -4.5655357322  MEMB      100             0.0000000000
     51420      1360  PVCL2     H15D          -37.1671108636       32.4942366829       -4.4529518791  MEMB      100             0.0000000000
     51421      1360  PVCL2     H15E          -35.5403005502       32.9521022989       -4.4424767959  MEMB      100             0.0000000000
     51422      1360  PVCL2     CB16          -35.8661817795       31.0348737767       -3.4286398802  MEMB      100             0.0000000000
     51423      1360  PVCL2     H16D          -36.1504093144       29.9753853060       -3.6047651293  MEMB      100             0.0000000000
     51424      1360  PVCL2     H16E          -36.3626775226       31.3260830867       -2.4783709841  MEMB      100             0.0000000000
     51425      1360  PVCL2     H16F          -34.7849774531       31.0672637578       -3.1751263343  MEMB      100             0.0000000000
     51426      1360  PVCL2     CC3           -36.3056537903       35.1514266170      -14.9945306056  MEMB      100             0.0000000000
     51427      1360  PVCL2     H3R           -35.1960711490       35.1905599638      -15.0347284036  MEMB      100             0.0000000000
     51428      1360  PVCL2     H3S           -36.7414147465       34.1314597695      -15.0585710871  MEMB      100             0.0000000000
     51429      1360  PVCL2     CC4           -36.6675177541       35.7574883800      -13.6355362391  MEMB      100             0.0000000000
     51430      1360  PVCL2     H4R           -36.4962595029       36.8528190896      -13.5631328947  MEMB      100             0.0000000000
     51431      1360  PVCL2     H4S           -35.9537381350       35.2498858513      -12.9520309332  MEMB      100             0.0000000000
     51432      1360  PVCL2     CC5           -38.0417768943       35.6008243912      -13.1656405140  MEMB      100             0.0000000000
     51433      1360  PVCL2     H5R           -38.3443808045       34.5643133859      -13.4271684072  MEMB      100             0.0000000000
     51434      1360  PVCL2     H5S           -38.7066682515       36.2459452480      -13.7788775295  MEMB      100             0.0000000000
     51435      1360  PVCL2     CC6           -38.2852654825       35.8642298534      -11.6179336631  MEMB      100             0.0000000000
     51436      1360  PVCL2     H6R           -37.6497671058       35.2426586881      -10.9515160411  MEMB      100             0.0000000000
     51437      1360  PVCL2     H6S           -39.3105329303       35.5720489772      -11.3052388562  MEMB      100             0.0000000000
     51438      1360  PVCL2     CC7           -38.2504387603       37.3513847219      -11.1456575806  MEMB      100             0.0000000000
     51439      1360  PVCL2     H7R           -39.0730640998       37.9883789314      -11.5353321937  MEMB      100             0.0000000000
     51440      1360  PVCL2     H7S           -37.3627673486       37.9072909404      -11.5162365392  MEMB      100             0.0000000000
     51441      1360  PVCL2     CC8           -38.3021942051       37.5516769502       -9.6497432376  MEMB      100             0.0000000000
     51442      1360  PVCL2     H8R           -39.1140429105       36.9227828899       -9.2258148943  MEMB      100             0.0000000000
     51443      1360  PVCL2     H8S           -38.5848519652       38.5990099889       -9.4099114677  MEMB      100             0.0000000000
     51444      1360  PVCL2     CC9           -36.9833741608       37.1983116318       -8.8999871823  MEMB      100             0.0000000000
     51445      1360  PVCL2     H9R           -36.1075532459       37.6616766777       -9.4025327597  MEMB      100             0.0000000000
     51446      1360  PVCL2     H9S           -36.8571285219       36.0946293412       -8.8836038093  MEMB      100             0.0000000000
     51447      1360  PVCL2     CC10          -36.8678262459       37.8777547289       -7.5098659280  MEMB      100             0.0000000000
     51448      1360  PVCL2     H10R          -36.6341272948       38.9290746260       -7.7826883429  MEMB      100             0.0000000000
     51449      1360  PVCL2     H10S          -35.9937886539       37.4336192761       -6.9872537348  MEMB      100             0.0000000000
     51450      1360  PVCL2     CC11          -38.0523372064       37.7353039635       -6.5422009387  MEMB      100             0.0000000000
     51451      1360  PVCL2     H11R          -38.8796996583       38.3914330848       -6.8503665810  MEMB      100             0.0000000000
     51452      1360  PVCL2     CC12          -38.0819130079       36.8789352479       -5.5502950364  MEMB      100             0.0000000000
     51453      1360  PVCL2     H12R          -38.9803540636       36.8880564966       -4.9156920926  MEMB      100             0.0000000000
     51454      1360  PVCL2     CC13          -37.0538631182       35.8690306788       -5.0657979297  MEMB      100             0.0000000000
     51455      1360  PVCL2     H13R          -36.4181750199       35.6130841974       -5.9402771210  MEMB      100             0.0000000000
     51456      1360  PVCL2     H13S          -37.5763797889       34.9539699008       -4.7137170522  MEMB      100             0.0000000000
     51457      1360  PVCL2     CC14          -36.2647665846       36.4306265849       -3.8891265169  MEMB      100             0.0000000000
     51458      1360  PVCL2     H14R          -35.8259332886       35.5871143321       -3.3144673145  MEMB      100             0.0000000000
     51459      1360  PVCL2     H14S          -36.9652845704       36.8985538150       -3.1648065793  MEMB      100             0.0000000000
     51460      1360  PVCL2     CC15          -35.1846408369       37.3930493550       -4.1282940059  MEMB      100             0.0000000000
     51461      1360  PVCL2     H15R          -35.6608686795       38.2161468808       -4.7027831744  MEMB      100             0.0000000000
     51462      1360  PVCL2     H15S          -34.6198891999       36.7437599300       -4.8310029575  MEMB      100             0.0000000000
     51463      1360  PVCL2     CC16          -34.3168641273       37.8700701802       -2.9503866115  MEMB      100             0.0000000000
     51464      1360  PVCL2     H16R          -33.8886783425       36.9849080258       -2.4332157007  MEMB      100             0.0000000000
     51465      1360  PVCL2     H16S          -34.9012342987       38.3762767623       -2.1525229152  MEMB      100             0.0000000000
     51466      1360  PVCL2     CC17          -33.3931597891       39.0366192102       -3.4893833687  MEMB      100             0.0000000000
     51467      1360  PVCL2     H17R          -34.0472541556       39.8789860780       -3.8006703684  MEMB      100             0.0000000000
     51468      1360  PVCL2     H17S          -32.8358945521       38.6527389185       -4.3705261604  MEMB      100             0.0000000000
     51469      1360  PVCL2     CC18          -32.3220030305       39.4955653896       -2.5503500459  MEMB      100             0.0000000000
     51470      1360  PVCL2     H18R          -32.7203342504       39.1109152595       -1.5871795621  MEMB      100             0.0000000000
     51471      1360  PVCL2     H18S          -32.2435058033       40.6037351983       -2.5394735737  MEMB      100             0.0000000000
     51472      1360  PVCL2     H18T          -31.3129650861       39.0564962951       -2.7032595460  MEMB      100             0.0000000000
     51473      1360  PVCL2     CD3           -39.9516265295       41.1917730192      -13.0553190484  MEMB      100             0.0000000000
     51474      1360  PVCL2     H3X           -39.2367552763       41.6539071025      -12.3413776883  MEMB      100             0.0000000000
     51475      1360  PVCL2     H3Y           -39.9870390294       40.1014819894      -12.8447663749  MEMB      100             0.0000000000
     51476      1360  PVCL2     CD4           -41.3810658937       41.7655785658      -12.9030050400  MEMB      100             0.0000000000
     51477      1360  PVCL2     H4X           -42.0545858015       41.3276972106      -13.6704372008  MEMB      100             0.0000000000
     51478      1360  PVCL2     H4Y           -41.4480918517       42.8437489533      -13.1625757372  MEMB      100             0.0000000000
     51479      1360  PVCL2     CD5           -41.9928058933       41.5718873230      -11.4796365083  MEMB      100             0.0000000000
     51480      1360  PVCL2     H5X           -42.9078098666       42.1941760833      -11.5788638492  MEMB      100             0.0000000000
     51481      1360  PVCL2     H5Y           -41.2287666860       41.9399841742      -10.7619531090  MEMB      100             0.0000000000
     51482      1360  PVCL2     CD6           -42.3873793421       40.1999495715      -10.9920342946  MEMB      100             0.0000000000
     51483      1360  PVCL2     H6X           -41.4858668781       39.5562411728      -11.0770968383  MEMB      100             0.0000000000
     51484      1360  PVCL2     H6Y           -43.1535591101       39.7411821339      -11.6529595535  MEMB      100             0.0000000000
     51485      1360  PVCL2     CD7           -42.9880029039       40.1321437287       -9.6331641280  MEMB      100             0.0000000000
     51486      1360  PVCL2     H7X           -43.1265295423       39.0686287198       -9.3432216173  MEMB      100             0.0000000000
     51487      1360  PVCL2     H7Y           -43.9998942311       40.5738376043       -9.7568706941  MEMB      100             0.0000000000
     51488      1360  PVCL2     CD8           -42.2794634812       40.8449122878       -8.4865022639  MEMB      100             0.0000000000
     51489      1360  PVCL2     H8X           -42.8855482331       40.4723101262       -7.6331854291  MEMB      100             0.0000000000
     51490      1360  PVCL2     H8Y           -42.3423674133       41.9478031903       -8.6048077936  MEMB      100             0.0000000000
     51491      1360  PVCL2     CD9           -40.8179356034       40.4023151242       -8.2187785139  MEMB      100             0.0000000000
     51492      1360  PVCL2     H9X           -40.2163656889       40.7126197992       -9.0997702373  MEMB      100             0.0000000000
     51493      1360  PVCL2     H9Y           -40.8101008897       39.3142780439       -7.9942010264  MEMB      100             0.0000000000
     51494      1360  PVCL2     CD10          -40.1798594574       41.0012874849       -6.9874538155  MEMB      100             0.0000000000
     51495      1360  PVCL2     H10X          -40.3118108331       42.1044062334       -6.9812041269  MEMB      100             0.0000000000
     51496      1360  PVCL2     H10Y          -39.0922859465       40.7798500476       -7.0371576330  MEMB      100             0.0000000000
     51497      1360  PVCL2     CD11          -40.6296203053       40.4331477779       -5.6702512177  MEMB      100             0.0000000000
     51498      1360  PVCL2     H11X          -40.6793257000       39.3277282139       -5.5707609438  MEMB      100             0.0000000000
     51499      1360  PVCL2     H11Y          -41.6786516286       40.7904471332       -5.5915665514  MEMB      100             0.0000000000
     51500      1360  PVCL2     CD12          -39.9196282779       41.1617902702       -4.4822313139  MEMB      100             0.0000000000
     51501      1360  PVCL2     H12X          -40.5343469626       42.0438664741       -4.2022607517  MEMB      100             0.0000000000
     51502      1360  PVCL2     H12Y          -38.9860065845       41.6629343911       -4.8161863587  MEMB      100             0.0000000000
     51503      1360  PVCL2     CD13          -39.3699658419       40.2538103581       -3.3689986862  MEMB      100             0.0000000000
     51504      1360  PVCL2     H13X          -38.8366346800       40.9924304084       -2.7331376175  MEMB      100             0.0000000000
     51505      1360  PVCL2     H13Y          -38.6047966418       39.5384338416       -3.7392333380  MEMB      100             0.0000000000
     51506      1360  PVCL2     CD14          -40.4667386951       39.4870706959       -2.5631591194  MEMB      100             0.0000000000
     51507      1360  PVCL2     H14X          -41.1462493169       38.9791354923       -3.2805059071  MEMB      100             0.0000000000
     51508      1360  PVCL2     H14Y          -41.0339369727       40.2315742698       -1.9645585773  MEMB      100             0.0000000000
     51509      1360  PVCL2     CD15          -39.9196993086       38.3155969690       -1.6547935742  MEMB      100             0.0000000000
     51510      1360  PVCL2     H15X          -39.2511130774       38.7345022643       -0.8725977205  MEMB      100             0.0000000000
     51511      1360  PVCL2     H15Y          -39.3184836102       37.6159146180       -2.2739106592  MEMB      100             0.0000000000
     51512      1360  PVCL2     CD16          -40.9760971589       37.5841891176       -0.8440980756  MEMB      100             0.0000000000
     51513      1360  PVCL2     H16X          -41.3958909358       38.1929769111       -0.0149583802  MEMB      100             0.0000000000
     51514      1360  PVCL2     H16Y          -40.5622043916       36.6577814353       -0.3915683914  MEMB      100             0.0000000000
     51515      1360  PVCL2     H16Z          -41.7905318272       37.3222142347       -1.5528894611  MEMB      100             0.0000000000
