PSF EXT CMAP XPLOR

         3 !NTITLE
* GENERATED BY CHARMM-GUI (HTTP://WWW.CHARMM-GUI.ORG) V3.7 ON MAY, 16. 2026. JOB
* GENERATES ION CONFORMATION USING MONTE-CARLO SIMULATION                       
*  DATE:     5/16/26      3:12:22      CREATED BY USER: charmm-gui              

       319 !NATOM
         1 IONS     1        CAL      CAL      CAL       2.00000       40.0800           1
         2 IONS     2        CAL      CAL      CAL       2.00000       40.0800           1
         3 IONS     3        CAL      CAL      CAL       2.00000       40.0800           1
         4 IONS     4        CAL      CAL      CAL       2.00000       40.0800           1
         5 IONS     5        CAL      CAL      CAL       2.00000       40.0800           1
         6 IONS     6        CAL      CAL      CAL       2.00000       40.0800           1
         7 IONS     7        CAL      CAL      CAL       2.00000       40.0800           1
         8 IONS     8        CAL      CAL      CAL       2.00000       40.0800           1
         9 IONS     9        CAL      CAL      CAL       2.00000       40.0800           1
        10 IONS     10       CAL      CAL      CAL       2.00000       40.0800           1
        11 IONS     11       CAL      CAL      CAL       2.00000       40.0800           1
        12 IONS     12       CAL      CAL      CAL       2.00000       40.0800           1
        13 IONS     13       CAL      CAL      CAL       2.00000       40.0800           1
        14 IONS     14       CAL      CAL      CAL       2.00000       40.0800           1
        15 IONS     15       CAL      CAL      CAL       2.00000       40.0800           1
        16 IONS     16       CAL      CAL      CAL       2.00000       40.0800           1
        17 IONS     17       CAL      CAL      CAL       2.00000       40.0800           1
        18 IONS     18       CAL      CAL      CAL       2.00000       40.0800           1
        19 IONS     19       CAL      CAL      CAL       2.00000       40.0800           1
        20 IONS     20       CAL      CAL      CAL       2.00000       40.0800           1
        21 IONS     21       CAL      CAL      CAL       2.00000       40.0800           1
        22 IONS     22       CAL      CAL      CAL       2.00000       40.0800           1
        23 IONS     23       CAL      CAL      CAL       2.00000       40.0800           1
        24 IONS     24       CAL      CAL      CAL       2.00000       40.0800           1
        25 IONS     25       CAL      CAL      CAL       2.00000       40.0800           1
        26 IONS     26       CAL      CAL      CAL       2.00000       40.0800           1
        27 IONS     27       CAL      CAL      CAL       2.00000       40.0800           1
        28 IONS     28       CAL      CAL      CAL       2.00000       40.0800           1
        29 IONS     29       CAL      CAL      CAL       2.00000       40.0800           1
        30 IONS     30       CAL      CAL      CAL       2.00000       40.0800           1
        31 IONS     31       CAL      CAL      CAL       2.00000       40.0800           1
        32 IONS     32       CAL      CAL      CAL       2.00000       40.0800           1
        33 IONS     33       CAL      CAL      CAL       2.00000       40.0800           1
        34 IONS     34       CAL      CAL      CAL       2.00000       40.0800           1
        35 IONS     35       CAL      CAL      CAL       2.00000       40.0800           1
        36 IONS     36       CAL      CAL      CAL       2.00000       40.0800           1
        37 IONS     37       CAL      CAL      CAL       2.00000       40.0800           1
        38 IONS     38       CAL      CAL      CAL       2.00000       40.0800           1
        39 IONS     39       CAL      CAL      CAL       2.00000       40.0800           1
        40 IONS     40       CAL      CAL      CAL       2.00000       40.0800           1
        41 IONS     41       CAL      CAL      CAL       2.00000       40.0800           1
        42 IONS     42       CAL      CAL      CAL       2.00000       40.0800           1
        43 IONS     43       CAL      CAL      CAL       2.00000       40.0800           1
        44 IONS     44       CAL      CAL      CAL       2.00000       40.0800           1
        45 IONS     45       CAL      CAL      CAL       2.00000       40.0800           1
        46 IONS     46       CAL      CAL      CAL       2.00000       40.0800           1
        47 IONS     47       CAL      CAL      CAL       2.00000       40.0800           1
        48 IONS     48       CAL      CAL      CAL       2.00000       40.0800           1
        49 IONS     49       CAL      CAL      CAL       2.00000       40.0800           1
        50 IONS     50       CAL      CAL      CAL       2.00000       40.0800           1
        51 IONS     51       CAL      CAL      CAL       2.00000       40.0800           1
        52 IONS     52       CAL      CAL      CAL       2.00000       40.0800           1
        53 IONS     53       CAL      CAL      CAL       2.00000       40.0800           1
        54 IONS     54       CAL      CAL      CAL       2.00000       40.0800           1
        55 IONS     55       CAL      CAL      CAL       2.00000       40.0800           1
        56 IONS     56       CAL      CAL      CAL       2.00000       40.0800           1
        57 IONS     57       CAL      CAL      CAL       2.00000       40.0800           1
        58 IONS     58       CAL      CAL      CAL       2.00000       40.0800           1
        59 IONS     59       CAL      CAL      CAL       2.00000       40.0800           1
        60 IONS     60       CAL      CAL      CAL       2.00000       40.0800           1
        61 IONS     61       CAL      CAL      CAL       2.00000       40.0800           1
        62 IONS     62       CAL      CAL      CAL       2.00000       40.0800           1
        63 IONS     63       CAL      CAL      CAL       2.00000       40.0800           1
        64 IONS     64       CAL      CAL      CAL       2.00000       40.0800           1
        65 IONS     65       CAL      CAL      CAL       2.00000       40.0800           1
        66 IONS     66       CAL      CAL      CAL       2.00000       40.0800           1
        67 IONS     67       CAL      CAL      CAL       2.00000       40.0800           1
        68 IONS     68       CAL      CAL      CAL       2.00000       40.0800           1
        69 IONS     69       CAL      CAL      CAL       2.00000       40.0800           1
        70 IONS     70       CAL      CAL      CAL       2.00000       40.0800           1
        71 IONS     71       CAL      CAL      CAL       2.00000       40.0800           1
        72 IONS     72       CAL      CAL      CAL       2.00000       40.0800           1
        73 IONS     73       CAL      CAL      CAL       2.00000       40.0800           1
        74 IONS     74       CAL      CAL      CAL       2.00000       40.0800           1
        75 IONS     75       CAL      CAL      CAL       2.00000       40.0800           1
        76 IONS     76       CAL      CAL      CAL       2.00000       40.0800           1
        77 IONS     77       CAL      CAL      CAL       2.00000       40.0800           1
        78 IONS     78       CAL      CAL      CAL       2.00000       40.0800           1
        79 IONS     79       CAL      CAL      CAL       2.00000       40.0800           1
        80 IONS     80       CAL      CAL      CAL       2.00000       40.0800           1
        81 IONS     81       CAL      CAL      CAL       2.00000       40.0800           1
        82 IONS     82       CAL      CAL      CAL       2.00000       40.0800           1
        83 IONS     83       CAL      CAL      CAL       2.00000       40.0800           1
        84 IONS     84       CAL      CAL      CAL       2.00000       40.0800           1
        85 IONS     85       CAL      CAL      CAL       2.00000       40.0800           1
        86 IONS     86       CAL      CAL      CAL       2.00000       40.0800           1
        87 IONS     87       CAL      CAL      CAL       2.00000       40.0800           1
        88 IONS     88       CAL      CAL      CAL       2.00000       40.0800           1
        89 IONS     89       CAL      CAL      CAL       2.00000       40.0800           1
        90 IONS     90       CAL      CAL      CAL       2.00000       40.0800           1
        91 IONS     91       CAL      CAL      CAL       2.00000       40.0800           1
        92 IONS     92       CAL      CAL      CAL       2.00000       40.0800           1
        93 IONS     93       CAL      CAL      CAL       2.00000       40.0800           1
        94 IONS     94       CAL      CAL      CAL       2.00000       40.0800           1
        95 IONS     95       CAL      CAL      CAL       2.00000       40.0800           1
        96 IONS     96       CAL      CAL      CAL       2.00000       40.0800           1
        97 IONS     97       CAL      CAL      CAL       2.00000       40.0800           1
        98 IONS     98       CAL      CAL      CAL       2.00000       40.0800           1
        99 IONS     99       CAL      CAL      CAL       2.00000       40.0800           1
       100 IONS     100      CAL      CAL      CAL       2.00000       40.0800           1
       101 IONS     101      CAL      CAL      CAL       2.00000       40.0800           1
       102 IONS     102      CAL      CAL      CAL       2.00000       40.0800           1
       103 IONS     103      CAL      CAL      CAL       2.00000       40.0800           1
       104 IONS     104      CAL      CAL      CAL       2.00000       40.0800           1
       105 IONS     105      CAL      CAL      CAL       2.00000       40.0800           1
       106 IONS     106      CAL      CAL      CAL       2.00000       40.0800           1
       107 IONS     107      CAL      CAL      CAL       2.00000       40.0800           1
       108 IONS     108      CAL      CAL      CAL       2.00000       40.0800           1
       109 IONS     109      CAL      CAL      CAL       2.00000       40.0800           1
       110 IONS     110      CAL      CAL      CAL       2.00000       40.0800           1
       111 IONS     111      CAL      CAL      CAL       2.00000       40.0800           1
       112 IONS     112      CAL      CAL      CAL       2.00000       40.0800           1
       113 IONS     113      CAL      CAL      CAL       2.00000       40.0800           1
       114 IONS     114      CAL      CAL      CAL       2.00000       40.0800           1
       115 IONS     115      CAL      CAL      CAL       2.00000       40.0800           1
       116 IONS     116      CAL      CAL      CAL       2.00000       40.0800           1
       117 IONS     117      CAL      CAL      CAL       2.00000       40.0800           1
       118 IONS     118      CAL      CAL      CAL       2.00000       40.0800           1
       119 IONS     119      CAL      CAL      CAL       2.00000       40.0800           1
       120 IONS     120      CAL      CAL      CAL       2.00000       40.0800           1
       121 IONS     121      CAL      CAL      CAL       2.00000       40.0800           1
       122 IONS     122      CAL      CAL      CAL       2.00000       40.0800           1
       123 IONS     123      CAL      CAL      CAL       2.00000       40.0800           1
       124 IONS     124      CAL      CAL      CAL       2.00000       40.0800           1
       125 IONS     125      CAL      CAL      CAL       2.00000       40.0800           1
       126 IONS     126      CAL      CAL      CAL       2.00000       40.0800           1
       127 IONS     127      CAL      CAL      CAL       2.00000       40.0800           1
       128 IONS     128      CAL      CAL      CAL       2.00000       40.0800           1
       129 IONS     129      CAL      CAL      CAL       2.00000       40.0800           1
       130 IONS     130      CAL      CAL      CAL       2.00000       40.0800           1
       131 IONS     131      CAL      CAL      CAL       2.00000       40.0800           1
       132 IONS     132      CAL      CAL      CAL       2.00000       40.0800           1
       133 IONS     133      CAL      CAL      CAL       2.00000       40.0800           1
       134 IONS     134      CAL      CAL      CAL       2.00000       40.0800           1
       135 IONS     135      CAL      CAL      CAL       2.00000       40.0800           1
       136 IONS     136      CAL      CAL      CAL       2.00000       40.0800           1
       137 IONS     137      CAL      CAL      CAL       2.00000       40.0800           1
       138 IONS     138      CAL      CAL      CAL       2.00000       40.0800           1
       139 IONS     139      CAL      CAL      CAL       2.00000       40.0800           1
       140 IONS     140      CAL      CAL      CAL       2.00000       40.0800           1
       141 IONS     141      CAL      CAL      CAL       2.00000       40.0800           1
       142 IONS     142      CAL      CAL      CAL       2.00000       40.0800           1
       143 IONS     143      CAL      CAL      CAL       2.00000       40.0800           1
       144 IONS     144      CAL      CAL      CAL       2.00000       40.0800           1
       145 IONS     145      CAL      CAL      CAL       2.00000       40.0800           1
       146 IONS     146      CAL      CAL      CAL       2.00000       40.0800           1
       147 IONS     147      CAL      CAL      CAL       2.00000       40.0800           1
       148 IONS     148      CAL      CAL      CAL       2.00000       40.0800           1
       149 IONS     149      CAL      CAL      CAL       2.00000       40.0800           1
       150 IONS     150      CAL      CAL      CAL       2.00000       40.0800           1
       151 IONS     151      CAL      CAL      CAL       2.00000       40.0800           1
       152 IONS     152      CAL      CAL      CAL       2.00000       40.0800           1
       153 IONS     153      CAL      CAL      CAL       2.00000       40.0800           1
       154 IONS     154      CAL      CAL      CAL       2.00000       40.0800           1
       155 IONS     155      CAL      CAL      CAL       2.00000       40.0800           1
       156 IONS     156      CAL      CAL      CAL       2.00000       40.0800           1
       157 IONS     157      CAL      CAL      CAL       2.00000       40.0800           1
       158 IONS     158      SOD      SOD      SOD       1.00000       22.9898           0
       159 IONS     159      SOD      SOD      SOD       1.00000       22.9898           0
       160 IONS     160      SOD      SOD      SOD       1.00000       22.9898           0
       161 IONS     161      SOD      SOD      SOD       1.00000       22.9898           0
       162 IONS     162      SOD      SOD      SOD       1.00000       22.9898           0
       163 IONS     163      SOD      SOD      SOD       1.00000       22.9898           0
       164 IONS     164      SOD      SOD      SOD       1.00000       22.9898           0
       165 IONS     165      SOD      SOD      SOD       1.00000       22.9898           0
       166 IONS     166      SOD      SOD      SOD       1.00000       22.9898           0
       167 IONS     167      SOD      SOD      SOD       1.00000       22.9898           0
       168 IONS     168      SOD      SOD      SOD       1.00000       22.9898           0
       169 IONS     169      SOD      SOD      SOD       1.00000       22.9898           0
       170 IONS     170      SOD      SOD      SOD       1.00000       22.9898           0
       171 IONS     171      SOD      SOD      SOD       1.00000       22.9898           0
       172 IONS     172      SOD      SOD      SOD       1.00000       22.9898           0
       173 IONS     173      SOD      SOD      SOD       1.00000       22.9898           0
       174 IONS     174      SOD      SOD      SOD       1.00000       22.9898           0
       175 IONS     175      SOD      SOD      SOD       1.00000       22.9898           0
       176 IONS     176      SOD      SOD      SOD       1.00000       22.9898           0
       177 IONS     177      SOD      SOD      SOD       1.00000       22.9898           0
       178 IONS     178      SOD      SOD      SOD       1.00000       22.9898           0
       179 IONS     179      SOD      SOD      SOD       1.00000       22.9898           0
       180 IONS     180      SOD      SOD      SOD       1.00000       22.9898           0
       181 IONS     181      SOD      SOD      SOD       1.00000       22.9898           0
       182 IONS     182      SOD      SOD      SOD       1.00000       22.9898           0
       183 IONS     183      SOD      SOD      SOD       1.00000       22.9898           0
       184 IONS     184      SOD      SOD      SOD       1.00000       22.9898           0
       185 IONS     185      SOD      SOD      SOD       1.00000       22.9898           0
       186 IONS     186      SOD      SOD      SOD       1.00000       22.9898           0
       187 IONS     187      SOD      SOD      SOD       1.00000       22.9898           0
       188 IONS     188      SOD      SOD      SOD       1.00000       22.9898           0
       189 IONS     189      SOD      SOD      SOD       1.00000       22.9898           0
       190 IONS     190      SOD      SOD      SOD       1.00000       22.9898           0
       191 IONS     191      SOD      SOD      SOD       1.00000       22.9898           0
       192 IONS     192      SOD      SOD      SOD       1.00000       22.9898           0
       193 IONS     193      SOD      SOD      SOD       1.00000       22.9898           0
       194 IONS     194      SOD      SOD      SOD       1.00000       22.9898           0
       195 IONS     195      SOD      SOD      SOD       1.00000       22.9898           0
       196 IONS     196      SOD      SOD      SOD       1.00000       22.9898           0
       197 IONS     197      SOD      SOD      SOD       1.00000       22.9898           0
       198 IONS     198      SOD      SOD      SOD       1.00000       22.9898           0
       199 IONS     199      SOD      SOD      SOD       1.00000       22.9898           0
       200 IONS     200      SOD      SOD      SOD       1.00000       22.9898           0
       201 IONS     201      SOD      SOD      SOD       1.00000       22.9898           0
       202 IONS     202      SOD      SOD      SOD       1.00000       22.9898           0
       203 IONS     203      SOD      SOD      SOD       1.00000       22.9898           0
       204 IONS     204      SOD      SOD      SOD       1.00000       22.9898           0
       205 IONS     205      SOD      SOD      SOD       1.00000       22.9898           0
       206 IONS     206      SOD      SOD      SOD       1.00000       22.9898           0
       207 IONS     207      SOD      SOD      SOD       1.00000       22.9898           0
       208 IONS     208      SOD      SOD      SOD       1.00000       22.9898           0
       209 IONS     209      SOD      SOD      SOD       1.00000       22.9898           0
       210 IONS     210      SOD      SOD      SOD       1.00000       22.9898           0
       211 IONS     211      SOD      SOD      SOD       1.00000       22.9898           0
       212 IONS     212      SOD      SOD      SOD       1.00000       22.9898           0
       213 IONS     213      SOD      SOD      SOD       1.00000       22.9898           0
       214 IONS     214      SOD      SOD      SOD       1.00000       22.9898           0
       215 IONS     215      SOD      SOD      SOD       1.00000       22.9898           0
       216 IONS     216      SOD      SOD      SOD       1.00000       22.9898           0
       217 IONS     217      SOD      SOD      SOD       1.00000       22.9898           0
       218 IONS     218      SOD      SOD      SOD       1.00000       22.9898           0
       219 IONS     219      SOD      SOD      SOD       1.00000       22.9898           0
       220 IONS     220      SOD      SOD      SOD       1.00000       22.9898           0
       221 IONS     221      SOD      SOD      SOD       1.00000       22.9898           0
       222 IONS     222      SOD      SOD      SOD       1.00000       22.9898           0
       223 IONS     223      SOD      SOD      SOD       1.00000       22.9898           0
       224 IONS     224      SOD      SOD      SOD       1.00000       22.9898           0
       225 IONS     225      SOD      SOD      SOD       1.00000       22.9898           0
       226 IONS     226      SOD      SOD      SOD       1.00000       22.9898           0
       227 IONS     227      SOD      SOD      SOD       1.00000       22.9898           0
       228 IONS     228      SOD      SOD      SOD       1.00000       22.9898           0
       229 IONS     229      SOD      SOD      SOD       1.00000       22.9898           0
       230 IONS     230      SOD      SOD      SOD       1.00000       22.9898           0
       231 IONS     231      SOD      SOD      SOD       1.00000       22.9898           0
       232 IONS     232      SOD      SOD      SOD       1.00000       22.9898           0
       233 IONS     233      SOD      SOD      SOD       1.00000       22.9898           0
       234 IONS     234      SOD      SOD      SOD       1.00000       22.9898           0
       235 IONS     235      SOD      SOD      SOD       1.00000       22.9898           0
       236 IONS     236      SOD      SOD      SOD       1.00000       22.9898           0
       237 IONS     237      SOD      SOD      SOD       1.00000       22.9898           0
       238 IONS     238      SOD      SOD      SOD       1.00000       22.9898           0
       239 IONS     239      SOD      SOD      SOD       1.00000       22.9898           0
       240 IONS     240      SOD      SOD      SOD       1.00000       22.9898           0
       241 IONS     241      SOD      SOD      SOD       1.00000       22.9898           0
       242 IONS     242      SOD      SOD      SOD       1.00000       22.9898           0
       243 IONS     243      SOD      SOD      SOD       1.00000       22.9898           0
       244 IONS     244      SOD      SOD      SOD       1.00000       22.9898           0
       245 IONS     245      SOD      SOD      SOD       1.00000       22.9898           0
       246 IONS     246      SOD      SOD      SOD       1.00000       22.9898           0
       247 IONS     247      SOD      SOD      SOD       1.00000       22.9898           0
       248 IONS     248      SOD      SOD      SOD       1.00000       22.9898           0
       249 IONS     249      SOD      SOD      SOD       1.00000       22.9898           0
       250 IONS     250      SOD      SOD      SOD       1.00000       22.9898           0
       251 IONS     251      SOD      SOD      SOD       1.00000       22.9898           0
       252 IONS     252      SOD      SOD      SOD       1.00000       22.9898           0
       253 IONS     253      SOD      SOD      SOD       1.00000       22.9898           0
       254 IONS     254      SOD      SOD      SOD       1.00000       22.9898           0
       255 IONS     255      SOD      SOD      SOD       1.00000       22.9898           0
       256 IONS     256      SOD      SOD      SOD       1.00000       22.9898           0
       257 IONS     257      SOD      SOD      SOD       1.00000       22.9898           0
       258 IONS     258      SOD      SOD      SOD       1.00000       22.9898           0
       259 IONS     259      SOD      SOD      SOD       1.00000       22.9898           0
       260 IONS     260      SOD      SOD      SOD       1.00000       22.9898           0
       261 IONS     261      SOD      SOD      SOD       1.00000       22.9898           0
       262 IONS     262      SOD      SOD      SOD       1.00000       22.9898           0
       263 IONS     263      SOD      SOD      SOD       1.00000       22.9898           0
       264 IONS     264      SOD      SOD      SOD       1.00000       22.9898           0
       265 IONS     265      SOD      SOD      SOD       1.00000       22.9898           0
       266 IONS     266      SOD      SOD      SOD       1.00000       22.9898           0
       267 IONS     267      SOD      SOD      SOD       1.00000       22.9898           0
       268 IONS     268      SOD      SOD      SOD       1.00000       22.9898           0
       269 IONS     269      SOD      SOD      SOD       1.00000       22.9898           0
       270 IONS     270      SOD      SOD      SOD       1.00000       22.9898           0
       271 IONS     271      SOD      SOD      SOD       1.00000       22.9898           0
       272 IONS     272      CLA      CLA      CLA      -1.00000       35.4500           0
       273 IONS     273      CLA      CLA      CLA      -1.00000       35.4500           0
       274 IONS     274      CLA      CLA      CLA      -1.00000       35.4500           0
       275 IONS     275      CLA      CLA      CLA      -1.00000       35.4500           0
       276 IONS     276      CLA      CLA      CLA      -1.00000       35.4500           0
       277 IONS     277      CLA      CLA      CLA      -1.00000       35.4500           0
       278 IONS     278      CLA      CLA      CLA      -1.00000       35.4500           0
       279 IONS     279      CLA      CLA      CLA      -1.00000       35.4500           0
       280 IONS     280      CLA      CLA      CLA      -1.00000       35.4500           0
       281 IONS     281      CLA      CLA      CLA      -1.00000       35.4500           0
       282 IONS     282      CLA      CLA      CLA      -1.00000       35.4500           0
       283 IONS     283      CLA      CLA      CLA      -1.00000       35.4500           0
       284 IONS     284      CLA      CLA      CLA      -1.00000       35.4500           0
       285 IONS     285      CLA      CLA      CLA      -1.00000       35.4500           0
       286 IONS     286      CLA      CLA      CLA      -1.00000       35.4500           0
       287 IONS     287      CLA      CLA      CLA      -1.00000       35.4500           0
       288 IONS     288      CLA      CLA      CLA      -1.00000       35.4500           0
       289 IONS     289      CLA      CLA      CLA      -1.00000       35.4500           0
       290 IONS     290      CLA      CLA      CLA      -1.00000       35.4500           0
       291 IONS     291      CLA      CLA      CLA      -1.00000       35.4500           0
       292 IONS     292      CLA      CLA      CLA      -1.00000       35.4500           0
       293 IONS     293      CLA      CLA      CLA      -1.00000       35.4500           0
       294 IONS     294      CLA      CLA      CLA      -1.00000       35.4500           0
       295 IONS     295      CLA      CLA      CLA      -1.00000       35.4500           0
       296 IONS     296      CLA      CLA      CLA      -1.00000       35.4500           0
       297 IONS     297      CLA      CLA      CLA      -1.00000       35.4500           0
       298 IONS     298      CLA      CLA      CLA      -1.00000       35.4500           0
       299 IONS     299      CLA      CLA      CLA      -1.00000       35.4500           0
       300 IONS     300      CLA      CLA      CLA      -1.00000       35.4500           0
       301 IONS     301      CLA      CLA      CLA      -1.00000       35.4500           0
       302 IONS     302      CLA      CLA      CLA      -1.00000       35.4500           0
       303 IONS     303      CLA      CLA      CLA      -1.00000       35.4500           0
       304 IONS     304      CLA      CLA      CLA      -1.00000       35.4500           0
       305 IONS     305      CLA      CLA      CLA      -1.00000       35.4500           0
       306 IONS     306      CLA      CLA      CLA      -1.00000       35.4500           0
       307 IONS     307      CLA      CLA      CLA      -1.00000       35.4500           0
       308 IONS     308      CLA      CLA      CLA      -1.00000       35.4500           0
       309 IONS     309      CLA      CLA      CLA      -1.00000       35.4500           0
       310 IONS     310      CLA      CLA      CLA      -1.00000       35.4500           0
       311 IONS     311      CLA      CLA      CLA      -1.00000       35.4500           0
       312 IONS     312      CLA      CLA      CLA      -1.00000       35.4500           0
       313 IONS     313      CLA      CLA      CLA      -1.00000       35.4500           0
       314 IONS     314      CLA      CLA      CLA      -1.00000       35.4500           0
       315 IONS     315      CLA      CLA      CLA      -1.00000       35.4500           0
       316 IONS     316      CLA      CLA      CLA      -1.00000       35.4500           0
       317 IONS     317      CLA      CLA      CLA      -1.00000       35.4500           0
       318 IONS     318      CLA      CLA      CLA      -1.00000       35.4500           0
       319 IONS     319      CLA      CLA      CLA      -1.00000       35.4500           0

         0 !NBOND: bonds


         0 !NTHETA: angles


         0 !NPHI: dihedrals


         0 !NIMPHI: impropers


         0 !NDON: donors


         0 !NACC: acceptors


         0 !NNB

         0         0         0         0         0         0         0         0
         0         0         0         0         0         0         0         0
         0         0         0         0         0         0         0         0
         0         0         0         0         0         0         0         0
         0         0         0         0         0         0         0         0
         0         0         0         0         0         0         0         0
         0         0         0         0         0         0         0         0
         0         0         0         0         0         0         0         0
         0         0         0         0         0         0         0         0
         0         0         0         0         0         0         0         0
         0         0         0         0         0         0         0         0
         0         0         0         0         0         0         0         0
         0         0         0         0         0         0         0         0
         0         0         0         0         0         0         0         0
         0         0         0         0         0         0         0         0
         0         0         0         0         0         0         0         0
         0         0         0         0         0         0         0         0
         0         0         0         0         0         0         0         0
         0         0         0         0         0         0         0         0
         0         0         0         0         0         0         0         0
         0         0         0         0         0         0         0         0
         0         0         0         0         0         0         0         0
         0         0         0         0         0         0         0         0
         0         0         0         0         0         0         0         0
         0         0         0         0         0         0         0         0
         0         0         0         0         0         0         0         0
         0         0         0         0         0         0         0         0
         0         0         0         0         0         0         0         0
         0         0         0         0         0         0         0         0
         0         0         0         0         0         0         0         0
         0         0         0         0         0         0         0         0
         0         0         0         0         0         0         0         0
         0         0         0         0         0         0         0         0
         0         0         0         0         0         0         0         0
         0         0         0         0         0         0         0         0
         0         0         0         0         0         0         0         0
         0         0         0         0         0         0         0         0
         0         0         0         0         0         0         0         0
         0         0         0         0         0         0         0         0
         0         0         0         0         0         0         0

       319         0 !NGRP NST2
         0         2         1         1         2         1         2         2         1
         3         2         1         4         2         1         5         2         1
         6         2         1         7         2         1         8         2         1
         9         2         1        10         2         1        11         2         1
        12         2         1        13         2         1        14         2         1
        15         2         1        16         2         1        17         2         1
        18         2         1        19         2         1        20         2         1
        21         2         1        22         2         1        23         2         1
        24         2         1        25         2         1        26         2         1
        27         2         1        28         2         1        29         2         1
        30         2         1        31         2         1        32         2         1
        33         2         1        34         2         1        35         2         1
        36         2         1        37         2         1        38         2         1
        39         2         1        40         2         1        41         2         1
        42         2         1        43         2         1        44         2         1
        45         2         1        46         2         1        47         2         1
        48         2         1        49         2         1        50         2         1
        51         2         1        52         2         1        53         2         1
        54         2         1        55         2         1        56         2         1
        57         2         1        58         2         1        59         2         1
        60         2         1        61         2         1        62         2         1
        63         2         1        64         2         1        65         2         1
        66         2         1        67         2         1        68         2         1
        69         2         1        70         2         1        71         2         1
        72         2         1        73         2         1        74         2         1
        75         2         1        76         2         1        77         2         1
        78         2         1        79         2         1        80         2         1
        81         2         1        82         2         1        83         2         1
        84         2         1        85         2         1        86         2         1
        87         2         1        88         2         1        89         2         1
        90         2         1        91         2         1        92         2         1
        93         2         1        94         2         1        95         2         1
        96         2         1        97         2         1        98         2         1
        99         2         1       100         2         1       101         2         1
       102         2         1       103         2         1       104         2         1
       105         2         1       106         2         1       107         2         1
       108         2         1       109         2         1       110         2         1
       111         2         1       112         2         1       113         2         1
       114         2         1       115         2         1       116         2         1
       117         2         1       118         2         1       119         2         1
       120         2         1       121         2         1       122         2         1
       123         2         1       124         2         1       125         2         1
       126         2         1       127         2         1       128         2         1
       129         2         1       130         2         1       131         2         1
       132         2         1       133         2         1       134         2         1
       135         2         1       136         2         1       137         2         1
       138         2         1       139         2         1       140         2         1
       141         2         1       142         2         1       143         2         1
       144         2         1       145         2         1       146         2         1
       147         2         1       148         2         1       149         2         1
       150         2         1       151         2         1       152         2         1
       153         2         1       154         2         1       155         2         1
       156         2         1       157         2         0       158         2         0
       159         2         0       160         2         0       161         2         0
       162         2         0       163         2         0       164         2         0
       165         2         0       166         2         0       167         2         0
       168         2         0       169         2         0       170         2         0
       171         2         0       172         2         0       173         2         0
       174         2         0       175         2         0       176         2         0
       177         2         0       178         2         0       179         2         0
       180         2         0       181         2         0       182         2         0
       183         2         0       184         2         0       185         2         0
       186         2         0       187         2         0       188         2         0
       189         2         0       190         2         0       191         2         0
       192         2         0       193         2         0       194         2         0
       195         2         0       196         2         0       197         2         0
       198         2         0       199         2         0       200         2         0
       201         2         0       202         2         0       203         2         0
       204         2         0       205         2         0       206         2         0
       207         2         0       208         2         0       209         2         0
       210         2         0       211         2         0       212         2         0
       213         2         0       214         2         0       215         2         0
       216         2         0       217         2         0       218         2         0
       219         2         0       220         2         0       221         2         0
       222         2         0       223         2         0       224         2         0
       225         2         0       226         2         0       227         2         0
       228         2         0       229         2         0       230         2         0
       231         2         0       232         2         0       233         2         0
       234         2         0       235         2         0       236         2         0
       237         2         0       238         2         0       239         2         0
       240         2         0       241         2         0       242         2         0
       243         2         0       244         2         0       245         2         0
       246         2         0       247         2         0       248         2         0
       249         2         0       250         2         0       251         2         0
       252         2         0       253         2         0       254         2         0
       255         2         0       256         2         0       257         2         0
       258         2         0       259         2         0       260         2         0
       261         2         0       262         2         0       263         2         0
       264         2         0       265         2         0       266         2         0
       267         2         0       268         2         0       269         2         0
       270         2         0       271         2         0       272         2         0
       273         2         0       274         2         0       275         2         0
       276         2         0       277         2         0       278         2         0
       279         2         0       280         2         0       281         2         0
       282         2         0       283         2         0       284         2         0
       285         2         0       286         2         0       287         2         0
       288         2         0       289         2         0       290         2         0
       291         2         0       292         2         0       293         2         0
       294         2         0       295         2         0       296         2         0
       297         2         0       298         2         0       299         2         0
       300         2         0       301         2         0       302         2         0
       303         2         0       304         2         0       305         2         0
       306         2         0       307         2         0       308         2         0
       309         2         0       310         2         0       311         2         0
       312         2         0       313         2         0       314         2         0
       315         2         0       316         2         0       317         2         0
       318         2         0

         0         0 !NUMLP NUMLPH

         0 !NCRTERM: cross-terms

