* EQUILIBRATED WATER
*  DATE:     5/16/26      3:11:46      CREATED BY USER: charmm-gui
*
     14331  EXT
         1         1  TIP3      OH2           -28.8765384125      -30.5101799386       -4.3829716866  W2        1               0.0000000000
         2         1  TIP3      H1            -28.7874284125      -29.5663599386       -4.5152616866  W2        1               0.0000000000
         3         1  TIP3      H2            -29.5147784125      -30.7855399386       -5.0410316866  W2        1               0.0000000000
         4         2  TIP3      OH2           -29.9434084125      -31.2551099386       -0.9641516866  W2        2               0.0000000000
         5         2  TIP3      H1            -29.9816584125      -31.9014799386       -0.2591916866  W2        2               0.0000000000
         6         2  TIP3      H2            -30.2657584125      -31.7216699386       -1.7352816866  W2        2               0.0000000000
         7         3  TIP3      OH2           -37.5749084125      -31.6408999386        0.6288383134  W2        3               0.0000000000
         8         3  TIP3      H1            -37.5336984125      -32.2665699386        1.3520783134  W2        3               0.0000000000
         9         3  TIP3      H2            -36.8721384125      -31.0170399386        0.8108783134  W2        3               0.0000000000
        10         4  TIP3      OH2           -26.2373884125      -28.3160699386       -2.6626416866  W2        4               0.0000000000
        11         4  TIP3      H1            -26.6781184125      -29.0364699386       -2.2120816866  W2        4               0.0000000000
        12         4  TIP3      H2            -26.2504184125      -27.5953499386       -2.0328716866  W2        4               0.0000000000
        13         5  TIP3      OH2           -36.6515984125      -27.1910099386       -0.8362516866  W2        5               0.0000000000
        14         5  TIP3      H1            -37.0210784125      -27.9929599386       -1.2058216866  W2        5               0.0000000000
        15         5  TIP3      H2            -35.7104884125      -27.3595199386       -0.7899116866  W2        5               0.0000000000
        16         6  TIP3      OH2           -40.0415484125      -33.5307499386       -5.4433716866  W2        6               0.0000000000
        17         6  TIP3      H1            -40.4892084125      -32.6848799386       -5.4617216866  W2        6               0.0000000000
        18         6  TIP3      H2            -40.6024284125      -34.1103299386       -5.9588616866  W2        6               0.0000000000
        19         7  TIP3      OH2           -39.3309384125      -31.3687899386       -3.3175716866  W2        7               0.0000000000
        20         7  TIP3      H1            -39.1175884125      -32.1386299386       -2.7902716866  W2        7               0.0000000000
        21         7  TIP3      H2            -38.5931784125      -31.2791199386       -3.9208116866  W2        7               0.0000000000
        22         8  TIP3      OH2           -29.1258384125      -23.2118999386       -2.4506016866  W2        8               0.0000000000
        23         8  TIP3      H1            -28.5061984125      -23.8884299386       -2.7236816866  W2        8               0.0000000000
        24         8  TIP3      H2            -29.3340984125      -23.4298199386       -1.5421116866  W2        8               0.0000000000
        25         9  TIP3      OH2           -31.5539684125      -28.8229699386       -0.5580516866  W2        9               0.0000000000
        26         9  TIP3      H1            -31.2501784125      -29.5088299386       -1.1526416866  W2        9               0.0000000000
        27         9  TIP3      H2            -30.8325684125      -28.7040999386        0.0597483134  W2        9               0.0000000000
        28        10  TIP3      OH2           -22.8909884125      -37.2214399386        0.3025683134  W2        10              0.0000000000
        29        10  TIP3      H1            -22.8417684125      -36.6113199386        1.0384783134  W2        10              0.0000000000
        30        10  TIP3      H2            -22.4654784125      -36.7603499386       -0.4203216866  W2        10              0.0000000000
        31        11  TIP3      OH2           -28.4132684125      -34.4287299386       -0.2305716866  W2        11              0.0000000000
        32        11  TIP3      H1            -28.2706784125      -35.3750299386       -0.2104116866  W2        11              0.0000000000
        33        11  TIP3      H2            -28.5193684125      -34.2217499386       -1.1590816866  W2        11              0.0000000000
        34        12  TIP3      OH2           -35.2584384125      -36.3270899386       -2.9580916866  W2        12              0.0000000000
        35        12  TIP3      H1            -35.2153284125      -35.4672399386       -3.3764616866  W2        12              0.0000000000
        36        12  TIP3      H2            -35.7160284125      -36.8796199386       -3.5917716866  W2        12              0.0000000000
        37        13  TIP3      OH2           -27.5361684125      -36.1965299386       -4.5572616866  W2        13              0.0000000000
        38        13  TIP3      H1            -26.8897384125      -36.5252099386       -3.9325016866  W2        13              0.0000000000
        39        13  TIP3      H2            -27.0262284125      -35.6786299386       -5.1801216866  W2        13              0.0000000000
        40        14  TIP3      OH2           -38.6382884125      -33.9305099386       -2.1959516866  W2        14              0.0000000000
        41        14  TIP3      H1            -37.9846284125      -34.4803399386       -1.7639416866  W2        14              0.0000000000
        42        14  TIP3      H2            -38.6143584125      -34.2046099386       -3.1127516866  W2        14              0.0000000000
        43        15  TIP3      OH2           -33.4818384125      -32.3803799386       -2.9808016866  W2        15              0.0000000000
        44        15  TIP3      H1            -32.8657384125      -32.9068399386       -2.4714016866  W2        15              0.0000000000
        45        15  TIP3      H2            -34.0679584125      -33.0205099386       -3.3844416866  W2        15              0.0000000000
        46        16  TIP3      OH2           -22.4995284125      -35.7435199386        2.5385483134  W2        16              0.0000000000
        47        16  TIP3      H1            -23.1880684125      -35.0854499386        2.4432083134  W2        16              0.0000000000
        48        16  TIP3      H2            -22.4840684125      -35.9407299386        3.4750883134  W2        16              0.0000000000
        49        17  TIP3      OH2           -36.4482484125      -37.4092499386        1.1159883134  W2        17              0.0000000000
        50        17  TIP3      H1            -36.6670784125      -36.8791899386        0.3495883134  W2        17              0.0000000000
        51        17  TIP3      H2            -37.1161584125      -37.1826999386        1.7631283134  W2        17              0.0000000000
        52        18  TIP3      OH2           -29.0792684125      -27.9091399386       -5.3401016866  W2        18              0.0000000000
        53        18  TIP3      H1            -29.3747584125      -28.2319099386       -6.1914116866  W2        18              0.0000000000
        54        18  TIP3      H2            -29.4034884125      -27.0094699386       -5.2988416866  W2        18              0.0000000000
        55        19  TIP3      OH2           -33.8791084125      -29.7336799386        1.4033583134  W2        19              0.0000000000
        56        19  TIP3      H1            -34.6191984125      -29.1355299386        1.5068783134  W2        19              0.0000000000
        57        19  TIP3      H2            -33.1651584125      -29.1797199386        1.0877183134  W2        19              0.0000000000
        58        20  TIP3      OH2           -25.7723284125      -36.9055999386       -2.5766716866  W2        20              0.0000000000
        59        20  TIP3      H1            -25.9875284125      -37.6712599386       -2.0440716866  W2        20              0.0000000000
        60        20  TIP3      H2            -25.1165884125      -36.4331399386       -2.0638216866  W2        20              0.0000000000
        61        21  TIP3      OH2           -36.8545184125      -35.5170699386       -0.9317916866  W2        21              0.0000000000
        62        21  TIP3      H1            -36.2408884125      -34.8843099386       -0.5585516866  W2        21              0.0000000000
        63        21  TIP3      H2            -36.3424484125      -35.9895699386       -1.5881016866  W2        21              0.0000000000
        64        22  TIP3      OH2           -35.4716784125      -27.7693799386        2.1905083134  W2        22              0.0000000000
        65        22  TIP3      H1            -35.4769184125      -26.8900299386        1.8124383134  W2        22              0.0000000000
        66        22  TIP3      H2            -36.3252684125      -27.8529699386        2.6154983134  W2        22              0.0000000000
        67        23  TIP3      OH2           -39.3505884125      -28.0985899386       -7.0275616866  W2        23              0.0000000000
        68        23  TIP3      H1            -39.6224984125      -27.8694899386       -7.9162716866  W2        23              0.0000000000
        69        23  TIP3      H2            -39.3050184125      -27.2607099386       -6.5670316866  W2        23              0.0000000000
        70        24  TIP3      OH2           -25.7256184125      -26.4769999386       -0.3147116866  W2        24              0.0000000000
        71        24  TIP3      H1            -26.6672484125      -26.4186099386       -0.1530216866  W2        24              0.0000000000
        72        24  TIP3      H2            -25.4490084125      -25.5709499386       -0.4517416866  W2        24              0.0000000000
        73        25  TIP3      OH2           -25.4249184125      -38.1904699386        1.1026783134  W2        25              0.0000000000
        74        25  TIP3      H1            -26.1609984125      -37.5797599386        1.0648083134  W2        25              0.0000000000
        75        25  TIP3      H2            -24.7415184125      -37.7755699386        0.5763183134  W2        25              0.0000000000
        76        26  TIP3      OH2           -32.4217784125      -40.1037399386       -1.4315216866  W2        26              0.0000000000
        77        26  TIP3      H1            -32.5393584125      -41.0521399386       -1.4856916866  W2        26              0.0000000000
        78        26  TIP3      H2            -33.2767684125      -39.7711299386       -1.1584116866  W2        26              0.0000000000
        79        27  TIP3      OH2           -27.4734984125      -24.6956499386       -3.6895516866  W2        27              0.0000000000
        80        27  TIP3      H1            -27.0482684125      -25.4028599386       -4.1745916866  W2        27              0.0000000000
        81        27  TIP3      H2            -27.1564984125      -23.8943799386       -4.1063316866  W2        27              0.0000000000
        82        28  TIP3      OH2           -26.3138484125      -26.7947999386       -5.1808916866  W2        28              0.0000000000
        83        28  TIP3      H1            -26.5713684125      -27.4847899386       -5.7923016866  W2        28              0.0000000000
        84        28  TIP3      H2            -26.2427684125      -27.2376799386       -4.3353016866  W2        28              0.0000000000
        85        29  TIP3      OH2           -24.6278284125      -28.2281299386        3.2964583134  W2        29              0.0000000000
        86        29  TIP3      H1            -24.4881984125      -28.8198799386        2.5571583134  W2        29              0.0000000000
        87        29  TIP3      H2            -24.4605484125      -27.3555399386        2.9403383134  W2        29              0.0000000000
        88        30  TIP3      OH2           -30.1552884125      -31.2661799386       -6.9309416866  W2        30              0.0000000000
        89        30  TIP3      H1            -30.8667384125      -30.7312099386       -7.2828916866  W2        30              0.0000000000
        90        30  TIP3      H2            -29.4643284125      -31.2109699386       -7.5910516866  W2        30              0.0000000000
        91        31  TIP3      OH2           -30.1013684125      -32.8087499386       -9.8924416866  W2        31              0.0000000000
        92        31  TIP3      H1            -29.4003784125      -32.7860599386       -9.2410416866  W2        31              0.0000000000
        93        31  TIP3      H2            -29.7990784125      -33.4367799386      -10.5485116866  W2        31              0.0000000000
        94        32  TIP3      OH2           -22.7858984125      -31.8883299386        1.3624983134  W2        32              0.0000000000
        95        32  TIP3      H1            -23.4384884125      -31.1937699386        1.4515883134  W2        32              0.0000000000
        96        32  TIP3      H2            -22.3208684125      -31.6782399386        0.5526583134  W2        32              0.0000000000
        97        33  TIP3      OH2           -26.7495184125      -31.0568499386       -5.9793516866  W2        33              0.0000000000
        98        33  TIP3      H1            -27.4814184125      -30.8284799386       -5.4062916866  W2        33              0.0000000000
        99        33  TIP3      H2            -26.3022984125      -31.7705799386       -5.5246016866  W2        33              0.0000000000
       100        34  TIP3      OH2           -26.8521684125      -32.8825899386        3.0883483134  W2        34              0.0000000000
       101        34  TIP3      H1            -26.7722584125      -32.1191499386        3.6601983134  W2        34              0.0000000000
       102        34  TIP3      H2            -27.4533984125      -32.6033499386        2.3978583134  W2        34              0.0000000000
       103        35  TIP3      OH2           -35.1041484125      -30.4262299386       -4.0968516866  W2        35              0.0000000000
       104        35  TIP3      H1            -35.4346284125      -30.7968899386       -4.9151516866  W2        35              0.0000000000
       105        35  TIP3      H2            -34.5157384125      -31.0968299386       -3.7500216866  W2        35              0.0000000000
       106        36  TIP3      OH2           -33.7373984125      -26.9981699386       -1.4156316866  W2        36              0.0000000000
       107        36  TIP3      H1            -33.8322684125      -27.5768599386       -2.1721716866  W2        36              0.0000000000
       108        36  TIP3      H2            -33.0080384125      -27.3695999386       -0.9193516866  W2        36              0.0000000000
       109        37  TIP3      OH2           -34.7375984125      -31.6576699386       -0.4633516866  W2        37              0.0000000000
       110        37  TIP3      H1            -34.1723484125      -31.5362499386       -1.2262316866  W2        37              0.0000000000
       111        37  TIP3      H2            -34.4187084125      -31.0201699386        0.1754983134  W2        37              0.0000000000
       112        38  TIP3      OH2           -28.4283784125      -26.1544799386        0.2706983134  W2        38              0.0000000000
       113        38  TIP3      H1            -28.6687184125      -25.4921699386        0.9186183134  W2        38              0.0000000000
       114        38  TIP3      H2            -28.6265584125      -26.9889599386        0.6956583134  W2        38              0.0000000000
       115        39  TIP3      OH2           -33.8575284125      -27.2583999386        4.2538383134  W2        39              0.0000000000
       116        39  TIP3      H1            -34.1687784125      -26.4760799386        4.7091583134  W2        39              0.0000000000
       117        39  TIP3      H2            -34.5075084125      -27.4114899386        3.5680383134  W2        39              0.0000000000
       118        40  TIP3      OH2           -27.8785684125      -31.8945599386       -8.2942316866  W2        40              0.0000000000
       119        40  TIP3      H1            -27.2990184125      -31.7445299386       -7.5473416866  W2        40              0.0000000000
       120        40  TIP3      H2            -27.4645684125      -31.4238199386       -9.0175916866  W2        40              0.0000000000
       121        41  TIP3      OH2           -36.9375384125      -31.0602899386        3.4824083134  W2        41              0.0000000000
       122        41  TIP3      H1            -36.8672184125      -30.4096099386        4.1809083134  W2        41              0.0000000000
       123        41  TIP3      H2            -37.8283184125      -30.9575399386        3.1474983134  W2        41              0.0000000000
       124        42  TIP3      OH2           -30.1520784125      -25.1577099386       -4.8589216866  W2        42              0.0000000000
       125        42  TIP3      H1            -29.6783184125      -24.8620799386       -4.0815016866  W2        42              0.0000000000
       126        42  TIP3      H2            -30.7151484125      -24.4195499386       -5.0919616866  W2        42              0.0000000000
       127        43  TIP3      OH2           -35.6179384125      -25.1868999386        5.0172183134  W2        43              0.0000000000
       128        43  TIP3      H1            -35.6104084125      -25.3229299386        4.0697683134  W2        43              0.0000000000
       129        43  TIP3      H2            -36.5338984125      -25.3040899386        5.2692183134  W2        43              0.0000000000
       130        44  TIP3      OH2           -24.1797284125      -40.1445199386       -8.4812616866  W2        44              0.0000000000
       131        44  TIP3      H1            -25.0796584125      -40.0056199386       -8.1862016866  W2        44              0.0000000000
       132        44  TIP3      H2            -23.9278884125      -39.3130599386       -8.8830916866  W2        44              0.0000000000
       133        45  TIP3      OH2           -36.1138784125      -31.3567999386       -6.5075716866  W2        45              0.0000000000
       134        45  TIP3      H1            -36.4057484125      -30.5886299386       -6.9984416866  W2        45              0.0000000000
       135        45  TIP3      H2            -36.7883584125      -32.0161799386       -6.6704316866  W2        45              0.0000000000
       136        46  TIP3      OH2           -22.9905884125      -25.7782799386      -10.1048716866  W2        46              0.0000000000
       137        46  TIP3      H1            -22.9172384125      -24.8392599386       -9.9343416866  W2        46              0.0000000000
       138        46  TIP3      H2            -22.0850784125      -26.0834199386      -10.1611416866  W2        46              0.0000000000
       139        47  TIP3      OH2           -40.0208684125      -28.9938799386        2.3074083134  W2        47              0.0000000000
       140        47  TIP3      H1            -40.5220284125      -29.0219399386        1.4923783134  W2        47              0.0000000000
       141        47  TIP3      H2            -40.0154984125      -29.8995599386        2.6171383134  W2        47              0.0000000000
       142        48  TIP3      OH2           -40.2705984125      -26.2134999386       -0.8085716866  W2        48              0.0000000000
       143        48  TIP3      H1            -39.3245384125      -26.3577999386       -0.8276216866  W2        48              0.0000000000
       144        48  TIP3      H2            -40.3829684125      -25.4292199386       -0.2714516866  W2        48              0.0000000000
       145        49  TIP3      OH2           -22.0727484125      -25.5475299386        4.8737983134  W2        49              0.0000000000
       146        49  TIP3      H1            -22.1220684125      -26.5027199386        4.8365583134  W2        49              0.0000000000
       147        49  TIP3      H2            -22.8995184125      -25.2799999386        5.2751783134  W2        49              0.0000000000
       148        50  TIP3      OH2           -31.0943484125      -25.9736099386        3.7499383134  W2        50              0.0000000000
       149        50  TIP3      H1            -31.0068884125      -25.1471499386        4.2248483134  W2        50              0.0000000000
       150        50  TIP3      H2            -31.9578384125      -26.3032299386        3.9988683134  W2        50              0.0000000000
       151        51  TIP3      OH2           -30.6797684125      -22.2012399386       -6.4440016866  W2        51              0.0000000000
       152        51  TIP3      H1            -30.7551684125      -22.3225199386       -7.3904816866  W2        51              0.0000000000
       153        51  TIP3      H2            -30.6468984125      -21.2519699386       -6.3255416866  W2        51              0.0000000000
       154        52  TIP3      OH2           -37.0263884125      -23.4125399386       -4.6631016866  W2        52              0.0000000000
       155        52  TIP3      H1            -36.8743484125      -23.7604999386       -3.7844516866  W2        52              0.0000000000
       156        52  TIP3      H2            -37.8773484125      -23.7688099386       -4.9183816866  W2        52              0.0000000000
       157        53  TIP3      OH2           -27.5781684125      -23.0472199386       -9.4417616866  W2        53              0.0000000000
       158        53  TIP3      H1            -27.2033284125      -23.7916099386       -9.9125016866  W2        53              0.0000000000
       159        53  TIP3      H2            -27.5737984125      -23.3171599386       -8.5234316866  W2        53              0.0000000000
       160        54  TIP3      OH2           -27.9093584125      -23.1215099386       -6.6925416866  W2        54              0.0000000000
       161        54  TIP3      H1            -28.8443784125      -23.0213199386       -6.5138416866  W2        54              0.0000000000
       162        54  TIP3      H2            -27.6291684125      -23.8309099386       -6.1142216866  W2        54              0.0000000000
       163        55  TIP3      OH2           -24.9207684125      -34.0542799386        5.3540183134  W2        55              0.0000000000
       164        55  TIP3      H1            -25.3280884125      -33.5737199386        4.6333483134  W2        55              0.0000000000
       165        55  TIP3      H2            -24.8801984125      -34.9596799386        5.0460983134  W2        55              0.0000000000
       166        56  TIP3      OH2           -37.7718184125      -27.6703399386        3.3506883134  W2        56              0.0000000000
       167        56  TIP3      H1            -37.5556884125      -28.0317799386        4.2102683134  W2        56              0.0000000000
       168        56  TIP3      H2            -38.6273484125      -28.0449599386        3.1410383134  W2        56              0.0000000000
       169        57  TIP3      OH2           -35.1530184125      -39.2002899386       -0.6538916866  W2        57              0.0000000000
       170        57  TIP3      H1            -36.0146484125      -39.2874699386       -1.0616016866  W2        57              0.0000000000
       171        57  TIP3      H2            -35.1754484125      -38.3442799386       -0.2261316866  W2        57              0.0000000000
       172        58  TIP3      OH2           -30.4902384125      -39.4782499386        2.7208083134  W2        58              0.0000000000
       173        58  TIP3      H1            -30.0699284125      -39.8935399386        3.4738683134  W2        58              0.0000000000
       174        58  TIP3      H2            -31.4232784125      -39.6569199386        2.8380083134  W2        58              0.0000000000
       175        59  TIP3      OH2           -27.1637484125      -35.7227299386        3.5742583134  W2        59              0.0000000000
       176        59  TIP3      H1            -27.6777984125      -35.8485099386        4.3718583134  W2        59              0.0000000000
       177        59  TIP3      H2            -27.3192784125      -34.8104199386        3.3298783134  W2        59              0.0000000000
       178        60  TIP3      OH2           -26.4012584125      -30.8617299386      -10.6644416866  W2        60              0.0000000000
       179        60  TIP3      H1            -26.3591784125      -31.0843399386      -11.5944416866  W2        60              0.0000000000
       180        60  TIP3      H2            -25.5520484125      -30.4630199386      -10.4744516866  W2        60              0.0000000000
       181        61  TIP3      OH2           -30.8285084125      -36.9859099386       -9.9941116866  W2        61              0.0000000000
       182        61  TIP3      H1            -31.0820284125      -36.9667499386       -9.0713016866  W2        61              0.0000000000
       183        61  TIP3      H2            -31.0852984125      -37.8573699386      -10.2954916866  W2        61              0.0000000000
       184        62  TIP3      OH2           -35.0620084125      -34.2348399386        0.4411283134  W2        62              0.0000000000
       185        62  TIP3      H1            -35.7037984125      -34.2751099386        1.1501383134  W2        62              0.0000000000
       186        62  TIP3      H2            -35.0248084125      -33.3083699386        0.2034283134  W2        62              0.0000000000
       187        63  TIP3      OH2           -35.0650984125      -34.0138299386       -4.6468716866  W2        63              0.0000000000
       188        63  TIP3      H1            -35.9578084125      -34.3542199386       -4.7054916866  W2        63              0.0000000000
       189        63  TIP3      H2            -34.6144384125      -34.3907399386       -5.4025516866  W2        63              0.0000000000
       190        64  TIP3      OH2           -29.5295484125      -33.5977999386       -5.8297916866  W2        64              0.0000000000
       191        64  TIP3      H1            -29.9385184125      -32.7829399386       -6.1213116866  W2        64              0.0000000000
       192        64  TIP3      H2            -28.8089284125      -33.7377899386       -6.4440816866  W2        64              0.0000000000
       193        65  TIP3      OH2           -30.4273884125      -33.4221599386        5.6582783134  W2        65              0.0000000000
       194        65  TIP3      H1            -30.9900084125      -34.1269999386        5.9790583134  W2        65              0.0000000000
       195        65  TIP3      H2            -29.6010484125      -33.5429699386        6.1260383134  W2        65              0.0000000000
       196        66  TIP3      OH2           -28.5247784125      -34.1517599386       -3.0158216866  W2        66              0.0000000000
       197        66  TIP3      H1            -28.7203284125      -33.5460799386       -3.7307616866  W2        66              0.0000000000
       198        66  TIP3      H2            -28.3435184125      -34.9852399386       -3.4501916866  W2        66              0.0000000000
       199        67  TIP3      OH2           -37.3119584125      -33.9144899386        2.3083283134  W2        67              0.0000000000
       200        67  TIP3      H1            -37.3500184125      -33.5143299386        3.1770383134  W2        67              0.0000000000
       201        67  TIP3      H2            -37.8028484125      -34.7312499386        2.3986183134  W2        67              0.0000000000
       202        68  TIP3      OH2           -33.9462184125      -36.5402599386      -10.8930716866  W2        68              0.0000000000
       203        68  TIP3      H1            -34.3771484125      -36.9852499386      -10.1633316866  W2        68              0.0000000000
       204        68  TIP3      H2            -34.6643484125      -36.1686299386      -11.4053216866  W2        68              0.0000000000
       205        69  TIP3      OH2           -40.7038784125      -36.7983099386       -3.8412016866  W2        69              0.0000000000
       206        69  TIP3      H1            -40.0731084125      -36.8270999386       -3.1218116866  W2        69              0.0000000000
       207        69  TIP3      H2            -40.2544484125      -37.2234399386       -4.5716116866  W2        69              0.0000000000
       208        70  TIP3      OH2           -39.4296684125      -36.0521099386       -8.4171616866  W2        70              0.0000000000
       209        70  TIP3      H1            -38.9554984125      -35.4611199386       -9.0020716866  W2        70              0.0000000000
       210        70  TIP3      H2            -40.1470284125      -35.5218199386       -8.0701516866  W2        70              0.0000000000
       211        71  TIP3      OH2           -29.2608584125      -32.5136299386        1.6554183134  W2        71              0.0000000000
       212        71  TIP3      H1            -28.9373784125      -33.1446599386        1.0124683134  W2        71              0.0000000000
       213        71  TIP3      H2            -29.7009284125      -33.0484099386        2.3161583134  W2        71              0.0000000000
       214        72  TIP3      OH2           -32.4835684125      -36.5860799386       -3.5604616866  W2        72              0.0000000000
       215        72  TIP3      H1            -33.3944584125      -36.5293999386       -3.2718616866  W2        72              0.0000000000
       216        72  TIP3      H2            -31.9782784125      -36.6465299386       -2.7497416866  W2        72              0.0000000000
       217        73  TIP3      OH2           -37.6552284125      -34.9574499386       -4.7337016866  W2        73              0.0000000000
       218        73  TIP3      H1            -38.5444284125      -34.8578999386       -5.0737416866  W2        73              0.0000000000
       219        73  TIP3      H2            -37.3587384125      -35.7991499386       -5.0799116866  W2        73              0.0000000000
       220        74  TIP3      OH2           -34.0020484125      -34.9571899386       -7.0772416866  W2        74              0.0000000000
       221        74  TIP3      H1            -33.0704984125      -34.8281899386       -6.8989316866  W2        74              0.0000000000
       222        74  TIP3      H2            -34.2170184125      -34.2877599386       -7.7267716866  W2        74              0.0000000000
       223        75  TIP3      OH2           -28.0783784125      -37.3514499386       -0.2962816866  W2        75              0.0000000000
       224        75  TIP3      H1            -28.7552184125      -37.2201399386        0.3676883134  W2        75              0.0000000000
       225        75  TIP3      H2            -28.5638884125      -37.5064999386       -1.1065116866  W2        75              0.0000000000
       226        76  TIP3      OH2           -35.3280284125      -33.7629699386       -9.5106316866  W2        76              0.0000000000
       227        76  TIP3      H1            -35.8705184125      -34.1425899386      -10.2018716866  W2        76              0.0000000000
       228        76  TIP3      H2            -34.4945384125      -33.5684999386       -9.9392216866  W2        76              0.0000000000
       229        77  TIP3      OH2           -24.7908684125      -21.6799099386        5.9804783134  W2        77              0.0000000000
       230        77  TIP3      H1            -24.5909984125      -21.2557199386        5.1460083134  W2        77              0.0000000000
       231        77  TIP3      H2            -24.1354984125      -21.3360899386        6.5875183134  W2        77              0.0000000000
       232        78  TIP3      OH2           -37.1928884125      -29.2057799386        5.5885283134  W2        78              0.0000000000
       233        78  TIP3      H1            -36.4606484125      -28.9511899386        6.1499783134  W2        78              0.0000000000
       234        78  TIP3      H2            -37.9730184125      -29.0012399386        6.1040683134  W2        78              0.0000000000
       235        79  TIP3      OH2           -31.1635984125      -33.7987799386       -1.6735016866  W2        79              0.0000000000
       236        79  TIP3      H1            -30.5992584125      -34.3451199386       -2.2205416866  W2        79              0.0000000000
       237        79  TIP3      H2            -31.3112584125      -34.3205899386       -0.8847416866  W2        79              0.0000000000
       238        80  TIP3      OH2           -36.1616284125      -37.6621699386       -5.2550216866  W2        80              0.0000000000
       239        80  TIP3      H1            -36.4786784125      -38.5646399386       -5.2904816866  W2        80              0.0000000000
       240        80  TIP3      H2            -35.3802184125      -37.6604299386       -5.8078616866  W2        80              0.0000000000
       241        81  TIP3      OH2           -32.5370084125      -35.4101699386        0.7405383134  W2        81              0.0000000000
       242        81  TIP3      H1            -33.3724784125      -34.9562199386        0.8507783134  W2        81              0.0000000000
       243        81  TIP3      H2            -32.0129484125      -35.1343199386        1.4925283134  W2        81              0.0000000000
       244        82  TIP3      OH2           -31.9927484125      -29.1973999386       -7.5748216866  W2        82              0.0000000000
       245        82  TIP3      H1            -32.7376484125      -29.7048699386       -7.8970316866  W2        82              0.0000000000
       246        82  TIP3      H2            -32.1270284125      -29.1485999386       -6.6283416866  W2        82              0.0000000000
       247        83  TIP3      OH2           -24.8428584125      -30.0645799386        1.2119383134  W2        83              0.0000000000
       248        83  TIP3      H1            -24.2009784125      -29.6079499386        0.6681583134  W2        83              0.0000000000
       249        83  TIP3      H2            -25.6731684125      -29.9513399386        0.7493483134  W2        83              0.0000000000
       250        84  TIP3      OH2           -28.0950684125      -36.3834099386       -9.3755616866  W2        84              0.0000000000
       251        84  TIP3      H1            -29.0336484125      -36.2718499386       -9.5266816866  W2        84              0.0000000000
       252        84  TIP3      H2            -27.7978584125      -35.5267199386       -9.0689916866  W2        84              0.0000000000
       253        85  TIP3      OH2           -30.4735384125      -29.0130699386        3.6620883134  W2        85              0.0000000000
       254        85  TIP3      H1            -30.8189284125      -29.3948299386        4.4690483134  W2        85              0.0000000000
       255        85  TIP3      H2            -30.6735284125      -28.0797099386        3.7333783134  W2        85              0.0000000000
       256        86  TIP3      OH2           -27.3767184125      -34.5161399386       -7.7148216866  W2        86              0.0000000000
       257        86  TIP3      H1            -26.4848184125      -34.6536399386       -7.3957016866  W2        86              0.0000000000
       258        86  TIP3      H2            -27.3203584125      -33.7255299386       -8.2514716866  W2        86              0.0000000000
       259        87  TIP3      OH2           -36.8679184125      -29.9023999386       -1.8050316866  W2        87              0.0000000000
       260        87  TIP3      H1            -36.1231984125      -29.9048299386       -2.4063816866  W2        87              0.0000000000
       261        87  TIP3      H2            -36.7902584125      -30.7260199386       -1.3235216866  W2        87              0.0000000000
       262        88  TIP3      OH2           -29.8673384125      -27.7389699386       -8.5493616866  W2        88              0.0000000000
       263        88  TIP3      H1            -30.1624984125      -26.9121799386       -8.1678816866  W2        88              0.0000000000
       264        88  TIP3      H2            -30.5703384125      -28.3582799386       -8.3532216866  W2        88              0.0000000000
       265        89  TIP3      OH2           -39.8599484125      -31.4417099386        3.5098183134  W2        89              0.0000000000
       266        89  TIP3      H1            -39.6370884125      -31.8597499386        4.3415683134  W2        89              0.0000000000
       267        89  TIP3      H2            -40.4619384125      -32.0542099386        3.0870983134  W2        89              0.0000000000
       268        90  TIP3      OH2           -32.8434584125      -31.9247199386        5.7227883134  W2        90              0.0000000000
       269        90  TIP3      H1            -33.1393784125      -32.0904199386        4.8276983134  W2        90              0.0000000000
       270        90  TIP3      H2            -31.9119384125      -32.1446899386        5.7121783134  W2        90              0.0000000000
       271        91  TIP3      OH2           -28.2231784125      -26.5515199386        3.6125883134  W2        91              0.0000000000
       272        91  TIP3      H1            -29.1237484125      -26.3682599386        3.3449783134  W2        91              0.0000000000
       273        91  TIP3      H2            -28.1890684125      -26.2925899386        4.5334683134  W2        91              0.0000000000
       274        92  TIP3      OH2           -22.4918484125      -34.3067299386       -8.0201516866  W2        92              0.0000000000
       275        92  TIP3      H1            -23.0462184125      -34.7029299386       -8.6924016866  W2        92              0.0000000000
       276        92  TIP3      H2            -22.3914884125      -33.3962099386       -8.2978216866  W2        92              0.0000000000
       277        93  TIP3      OH2           -22.5286484125      -28.5065599386        4.8169983134  W2        93              0.0000000000
       278        93  TIP3      H1            -23.3797984125      -28.2681799386        4.4496383134  W2        93              0.0000000000
       279        93  TIP3      H2            -21.9383084125      -28.5232399386        4.0637083134  W2        93              0.0000000000
       280        94  TIP3      OH2           -24.1966784125      -25.5206899386       -7.5549416866  W2        94              0.0000000000
       281        94  TIP3      H1            -24.5695684125      -26.3463099386       -7.2458816866  W2        94              0.0000000000
       282        94  TIP3      H2            -23.9193284125      -25.7037499386       -8.4526016866  W2        94              0.0000000000
       283        95  TIP3      OH2           -27.0362884125      -30.7127399386       -0.5337516866  W2        95              0.0000000000
       284        95  TIP3      H1            -27.9645984125      -30.9445499386       -0.5608216866  W2        95              0.0000000000
       285        95  TIP3      H2            -26.5851784125      -31.4897599386       -0.8638716866  W2        95              0.0000000000
       286        96  TIP3      OH2           -34.4929784125      -26.3845799386       -4.4008816866  W2        96              0.0000000000
       287        96  TIP3      H1            -33.9657584125      -25.6111399386       -4.6010016866  W2        96              0.0000000000
       288        96  TIP3      H2            -35.3731284125      -26.1596599386       -4.7024816866  W2        96              0.0000000000
       289        97  TIP3      OH2           -38.7382084125      -31.5221699386       -9.8136416866  W2        97              0.0000000000
       290        97  TIP3      H1            -38.1222184125      -30.8954499386       -9.4341616866  W2        97              0.0000000000
       291        97  TIP3      H2            -39.5999484125      -31.2061899386       -9.5419916866  W2        97              0.0000000000
       292        98  TIP3      OH2           -33.0657484125      -28.7215899386       -4.8244516866  W2        98              0.0000000000
       293        98  TIP3      H1            -33.3067484125      -27.7961499386       -4.7829216866  W2        98              0.0000000000
       294        98  TIP3      H2            -33.8063884125      -29.1804599386       -4.4280616866  W2        98              0.0000000000
       295        99  TIP3      OH2           -32.5510884125      -24.5722299386        1.4906583134  W2        99              0.0000000000
       296        99  TIP3      H1            -32.1886184125      -23.7176699386        1.2570983134  W2        99              0.0000000000
       297        99  TIP3      H2            -32.0195684125      -24.8640699386        2.2312883134  W2        99              0.0000000000
       298       100  TIP3      OH2           -34.3826684125      -23.6998299386       -5.2792316866  W2        100             0.0000000000
       299       100  TIP3      H1            -35.3326184125      -23.5940899386       -5.2279016866  W2        100             0.0000000000
       300       100  TIP3      H2            -34.0308584125      -22.8790899386       -4.9344816866  W2        100             0.0000000000
       301       101  TIP3      OH2           -29.0070084125      -28.4731599386        1.1912183134  W2        101             0.0000000000
       302       101  TIP3      H1            -29.4328784125      -28.7009899386        2.0176183134  W2        101             0.0000000000
       303       101  TIP3      H2            -28.4264284125      -29.2119799386        1.0087483134  W2        101             0.0000000000
       304       102  TIP3      OH2           -26.8041184125      -27.5441099386       -9.7348816866  W2        102             0.0000000000
       305       102  TIP3      H1            -26.4508084125      -27.9241299386       -8.9305316866  W2        102             0.0000000000
       306       102  TIP3      H2            -27.7527684125      -27.6376299386       -9.6479516866  W2        102             0.0000000000
       307       103  TIP3      OH2           -26.3485884125      -23.9212099386        3.6606983134  W2        103             0.0000000000
       308       103  TIP3      H1            -26.9502684125      -24.4769199386        3.1653283134  W2        103             0.0000000000
       309       103  TIP3      H2            -26.0672184125      -23.2542299386        3.0344383134  W2        103             0.0000000000
       310       104  TIP3      OH2           -22.3006784125      -23.0648599386       -9.5338616866  W2        104             0.0000000000
       311       104  TIP3      H1            -21.5568884125      -22.4788099386       -9.6737016866  W2        104             0.0000000000
       312       104  TIP3      H2            -22.9948684125      -22.4962799386       -9.2006216866  W2        104             0.0000000000
       313       105  TIP3      OH2           -38.2259984125      -36.6884399386        3.0679583134  W2        105             0.0000000000
       314       105  TIP3      H1            -39.1187684125      -36.3498999386        3.0003583134  W2        105             0.0000000000
       315       105  TIP3      H2            -38.3247184125      -37.5438299386        3.4860383134  W2        105             0.0000000000
       316       106  TIP3      OH2           -25.9381884125      -28.8719099386       -7.5080916866  W2        106             0.0000000000
       317       106  TIP3      H1            -26.2154284125      -29.5999799386       -6.9519816866  W2        106             0.0000000000
       318       106  TIP3      H2            -25.0108884125      -28.7527099386       -7.3028316866  W2        106             0.0000000000
       319       107  TIP3      OH2           -38.5747984125      -24.8839999386        1.5028983134  W2        107             0.0000000000
       320       107  TIP3      H1            -38.3577684125      -25.8157599386        1.4718683134  W2        107             0.0000000000
       321       107  TIP3      H2            -38.3284484125      -24.6094999386        2.3861783134  W2        107             0.0000000000
       322       108  TIP3      OH2           -32.7133384125      -26.4324999386      -11.2878816866  W2        108             0.0000000000
       323       108  TIP3      H1            -32.4743584125      -27.1806899386      -11.8349916866  W2        108             0.0000000000
       324       108  TIP3      H2            -32.9822084125      -26.8203299386      -10.4551016866  W2        108             0.0000000000
       325       109  TIP3      OH2           -33.7762784125      -26.8621199386       -8.8316216866  W2        109             0.0000000000
       326       109  TIP3      H1            -33.6294784125      -27.3821399386       -8.0415316866  W2        109             0.0000000000
       327       109  TIP3      H2            -33.7791084125      -25.9553599386       -8.5250316866  W2        109             0.0000000000
       328       110  TIP3      OH2           -37.3231684125      -29.6097899386       -8.3210816866  W2        110             0.0000000000
       329       110  TIP3      H1            -38.0092384125      -29.2575399386       -7.7541116866  W2        110             0.0000000000
       330       110  TIP3      H2            -36.8003784125      -28.8468299386       -8.5676516866  W2        110             0.0000000000
       331       111  TIP3      OH2           -29.4916584125      -36.9474099386        1.9578183134  W2        111             0.0000000000
       332       111  TIP3      H1            -28.7928684125      -36.8735399386        2.6077883134  W2        111             0.0000000000
       333       111  TIP3      H2            -29.8725184125      -37.8119099386        2.1121083134  W2        111             0.0000000000
       334       112  TIP3      OH2           -28.7071684125      -37.2952399386       -6.9449516866  W2        112             0.0000000000
       335       112  TIP3      H1            -28.4873384125      -36.8236999386       -7.7484116866  W2        112             0.0000000000
       336       112  TIP3      H2            -28.1487684125      -36.9009799386       -6.2748916866  W2        112             0.0000000000
       337       113  TIP3      OH2           -31.0385584125      -25.1647599386       -8.0822016866  W2        113             0.0000000000
       338       113  TIP3      H1            -31.8549484125      -24.6677899386       -8.0297716866  W2        113             0.0000000000
       339       113  TIP3      H2            -30.5089284125      -24.6894099386       -8.7223216866  W2        113             0.0000000000
       340       114  TIP3      OH2           -31.5071784125      -35.5673599386       -6.1101116866  W2        114             0.0000000000
       341       114  TIP3      H1            -30.6949184125      -35.0630399386       -6.0639416866  W2        114             0.0000000000
       342       114  TIP3      H2            -31.7518784125      -35.7123899386       -5.1961516866  W2        114             0.0000000000
       343       115  TIP3      OH2           -30.9715384125      -34.5810899386        3.0745483134  W2        115             0.0000000000
       344       115  TIP3      H1            -30.8525084125      -34.0075499386        3.8315883134  W2        115             0.0000000000
       345       115  TIP3      H2            -30.3160784125      -35.2691499386        3.1893283134  W2        115             0.0000000000
       346       116  TIP3      OH2           -30.6235084125      -38.4860599386       -5.1720016866  W2        116             0.0000000000
       347       116  TIP3      H1            -30.9701584125      -37.8689999386       -4.5275716866  W2        116             0.0000000000
       348       116  TIP3      H2            -29.9648184125      -37.9854899386       -5.6534516866  W2        116             0.0000000000
       349       117  TIP3      OH2           -33.7002484125      -24.1210399386       -8.1005116866  W2        117             0.0000000000
       350       117  TIP3      H1            -33.5393784125      -23.3212899386       -8.6012516866  W2        117             0.0000000000
       351       117  TIP3      H2            -33.8974684125      -23.8144399386       -7.2154516866  W2        117             0.0000000000
       352       118  TIP3      OH2           -34.9658084125      -37.4231199386       -8.4847516866  W2        118             0.0000000000
       353       118  TIP3      H1            -35.0493284125      -36.5348099386       -8.1381116866  W2        118             0.0000000000
       354       118  TIP3      H2            -34.0757784125      -37.6884499386       -8.2530716866  W2        118             0.0000000000
       355       119  TIP3      OH2           -24.7669584125      -36.6740599386        3.9095183134  W2        119             0.0000000000
       356       119  TIP3      H1            -25.6833784125      -36.4118899386        3.8218883134  W2        119             0.0000000000
       357       119  TIP3      H2            -24.4314584125      -36.6771599386        3.0130483134  W2        119             0.0000000000
       358       120  TIP3      OH2           -26.1648584125      -32.9239599386       -1.9947516866  W2        120             0.0000000000
       359       120  TIP3      H1            -26.9624184125      -33.3389399386       -2.3232516866  W2        120             0.0000000000
       360       120  TIP3      H2            -25.7197484125      -33.6145899386       -1.5037016866  W2        120             0.0000000000
       361       121  TIP3      OH2           -36.7072784125      -26.9958999386       -9.4243016866  W2        121             0.0000000000
       362       121  TIP3      H1            -36.1151284125      -26.2964199386       -9.1480616866  W2        121             0.0000000000
       363       121  TIP3      H2            -36.2479784125      -27.4289499386      -10.1438416866  W2        121             0.0000000000
       364       122  TIP3      OH2           -38.3913584125      -34.3315999386      -10.3083616866  W2        122             0.0000000000
       365       122  TIP3      H1            -38.4360984125      -33.3922899386      -10.1296616866  W2        122             0.0000000000
       366       122  TIP3      H2            -39.2790384125      -34.5671099386      -10.5781516866  W2        122             0.0000000000
       367       123  TIP3      OH2           -25.0783984125      -23.6677099386       -0.3724016866  W2        123             0.0000000000
       368       123  TIP3      H1            -25.2339684125      -22.9892699386       -1.0294716866  W2        123             0.0000000000
       369       123  TIP3      H2            -24.1457584125      -23.5957799386       -0.1693416866  W2        123             0.0000000000
       370       124  TIP3      OH2           -37.5831584125      -39.5499399386       -1.6352616866  W2        124             0.0000000000
       371       124  TIP3      H1            -37.8121784125      -39.4906899386       -2.5627616866  W2        124             0.0000000000
       372       124  TIP3      H2            -38.0258184125      -40.3413899386       -1.3288516866  W2        124             0.0000000000
       373       125  TIP3      OH2           -38.6528284125      -25.6092299386       -5.4746816866  W2        125             0.0000000000
       374       125  TIP3      H1            -39.4849684125      -25.1369599386       -5.4475416866  W2        125             0.0000000000
       375       125  TIP3      H2            -38.1069984125      -25.0994699386       -6.0733716866  W2        125             0.0000000000
       376       126  TIP3      OH2           -39.3644584125      -22.9968599386        5.8551183134  W2        126             0.0000000000
       377       126  TIP3      H1            -38.8242384125      -23.2134599386        6.6150383134  W2        126             0.0000000000
       378       126  TIP3      H2            -39.8456584125      -23.8022599386        5.6653683134  W2        126             0.0000000000
       379       127  TIP3      OH2           -34.7671184125      -24.0774199386        7.4755383134  W2        127             0.0000000000
       380       127  TIP3      H1            -33.9993984125      -24.5363399386        7.8164583134  W2        127             0.0000000000
       381       127  TIP3      H2            -34.7884984125      -24.3034399386        6.5456583134  W2        127             0.0000000000
       382       128  TIP3      OH2           -30.6751584125      -24.5693599386      -11.1492816866  W2        128             0.0000000000
       383       128  TIP3      H1            -31.3190584125      -25.2004999386      -10.8279116866  W2        128             0.0000000000
       384       128  TIP3      H2            -29.9133284125      -25.1005599386      -11.3809316866  W2        128             0.0000000000
       385       129  TIP3      OH2           -28.1902484125      -25.6973099386        6.2046883134  W2        129             0.0000000000
       386       129  TIP3      H1            -28.5412984125      -26.5540099386        6.4477283134  W2        129             0.0000000000
       387       129  TIP3      H2            -27.4639284125      -25.5546399386        6.8115883134  W2        129             0.0000000000
       388       130  TIP3      OH2           -26.0708684125      -24.7523699386      -10.9154816866  W2        130             0.0000000000
       389       130  TIP3      H1            -25.7878284125      -25.5468499386      -10.4627916866  W2        130             0.0000000000
       390       130  TIP3      H2            -25.3310784125      -24.5192699386      -11.4763716866  W2        130             0.0000000000
       391       131  TIP3      OH2           -39.4575084125      -29.1864499386        6.8095483134  W2        131             0.0000000000
       392       131  TIP3      H1            -39.3134584125      -30.0883799386        6.5232183134  W2        131             0.0000000000
       393       131  TIP3      H2            -40.2297684125      -28.9002399386        6.3217783134  W2        131             0.0000000000
       394       132  TIP3      OH2           -35.1161384125      -28.8428799386      -11.0579916866  W2        132             0.0000000000
       395       132  TIP3      H1            -35.0517284125      -29.6369199386      -10.5273516866  W2        132             0.0000000000
       396       132  TIP3      H2            -34.4632184125      -28.9615999386      -11.7477916866  W2        132             0.0000000000
       397       133  TIP3      OH2           -32.8018984125      -29.2166399386        6.2421883134  W2        133             0.0000000000
       398       133  TIP3      H1            -33.1305184125      -28.9458299386        5.3849283134  W2        133             0.0000000000
       399       133  TIP3      H2            -32.6500784125      -30.1576599386        6.1546883134  W2        133             0.0000000000
       400       134  TIP3      OH2           -29.7637984125      -27.7957099386      -11.3221916866  W2        134             0.0000000000
       401       134  TIP3      H1            -30.0323884125      -27.6154999386      -10.4213016866  W2        134             0.0000000000
       402       134  TIP3      H2            -29.9702384125      -28.7210899386      -11.4536116866  W2        134             0.0000000000
       403       135  TIP3      OH2           -27.0673784125      -29.3009099386        3.6254183134  W2        135             0.0000000000
       404       135  TIP3      H1            -26.3218984125      -28.7125399386        3.5058183134  W2        135             0.0000000000
       405       135  TIP3      H2            -27.8246984125      -28.7189399386        3.6887283134  W2        135             0.0000000000
       406       136  TIP3      OH2           -38.6248584125      -31.9861199386        6.2294783134  W2        136             0.0000000000
       407       136  TIP3      H1            -38.2167384125      -32.8434599386        6.1085383134  W2        136             0.0000000000
       408       136  TIP3      H2            -38.8850984125      -31.9719899386        7.1505083134  W2        136             0.0000000000
       409       137  TIP3      OH2           -33.9667584125      -30.8702599386       -8.7521916866  W2        137             0.0000000000
       410       137  TIP3      H1            -34.4265584125      -31.3544299386       -8.0663416866  W2        137             0.0000000000
       411       137  TIP3      H2            -33.7118884125      -31.5387199386       -9.3881416866  W2        137             0.0000000000
       412       138  TIP3      OH2           -34.6778284125      -32.9775499386        3.6037683134  W2        138             0.0000000000
       413       138  TIP3      H1            -35.2962184125      -32.3028899386        3.8842383134  W2        138             0.0000000000
       414       138  TIP3      H2            -34.3337084125      -32.6561599386        2.7703883134  W2        138             0.0000000000
       415       139  TIP3      OH2           -32.8957184125      -32.6270799386      -10.4898716866  W2        139             0.0000000000
       416       139  TIP3      H1            -33.0762184125      -32.7819599386      -11.4170416866  W2        139             0.0000000000
       417       139  TIP3      H2            -31.9456684125      -32.5192099386      -10.4450816866  W2        139             0.0000000000
       418       140  TIP3      OH2           -29.6580084125      -30.5060199386        6.8812483134  W2        140             0.0000000000
       419       140  TIP3      H1            -28.7048884125      -30.4221099386        6.8538483134  W2        140             0.0000000000
       420       140  TIP3      H2            -29.8185484125      -31.2178399386        7.5007383134  W2        140             0.0000000000
       421       141  TIP3      OH2           -23.5058884125      -30.2726599386      -11.0440616866  W2        141             0.0000000000
       422       141  TIP3      H1            -23.7794084125      -30.6971099386      -11.8572316866  W2        141             0.0000000000
       423       141  TIP3      H2            -23.4664784125      -29.3412099386      -11.2610216866  W2        141             0.0000000000
       424       142  TIP3      OH2           -34.3384584125      -35.6224699386        4.6860783134  W2        142             0.0000000000
       425       142  TIP3      H1            -34.1883684125      -36.3513399386        4.0840483134  W2        142             0.0000000000
       426       142  TIP3      H2            -34.3362184125      -34.8452999386        4.1272983134  W2        142             0.0000000000
       427       143  TIP3      OH2           -33.9258884125      -37.2528899386        2.1788183134  W2        143             0.0000000000
       428       143  TIP3      H1            -33.3901384125      -36.8012199386        1.5267483134  W2        143             0.0000000000
       429       143  TIP3      H2            -34.7779284125      -37.3609099386        1.7562283134  W2        143             0.0000000000
       430       144  TIP3      OH2           -32.3440484125      -31.8132699386        2.4183383134  W2        144             0.0000000000
       431       144  TIP3      H1            -31.5935684125      -31.9695199386        1.8451183134  W2        144             0.0000000000
       432       144  TIP3      H2            -32.6832184125      -30.9616099386        2.1428883134  W2        144             0.0000000000
       433       145  TIP3      OH2           -27.9284284125      -33.9980899386        7.4468683134  W2        145             0.0000000000
       434       145  TIP3      H1            -27.7362984125      -34.9291499386        7.3353183134  W2        145             0.0000000000
       435       145  TIP3      H2            -27.0707984125      -33.5731399386        7.4364083134  W2        145             0.0000000000
       436       146  TIP3      OH2           -26.6117084125      -31.2095699386        5.5241383134  W2        146             0.0000000000
       437       146  TIP3      H1            -26.8932084125      -30.5001099386        4.9465183134  W2        146             0.0000000000
       438       146  TIP3      H2            -25.6692784125      -31.2822699386        5.3732583134  W2        146             0.0000000000
       439       147  TIP3      OH2           -35.8598284125      -34.4241199386        6.5976383134  W2        147             0.0000000000
       440       147  TIP3      H1            -36.6269284125      -34.9566399386        6.3873983134  W2        147             0.0000000000
       441       147  TIP3      H2            -35.1809284125      -34.7340799386        5.9982683134  W2        147             0.0000000000
       442       148  TIP3      OH2           -33.1203384125      -39.7963199386        2.6101783134  W2        148             0.0000000000
       443       148  TIP3      H1            -33.2183784125      -38.8499999386        2.5047983134  W2        148             0.0000000000
       444       148  TIP3      H2            -33.8627184125      -40.1689399386        2.1345283134  W2        148             0.0000000000
       445       149  TIP3      OH2           -31.8562884125      -35.4747799386        6.1740183134  W2        149             0.0000000000
       446       149  TIP3      H1            -32.0917484125      -35.6941099386        7.0755083134  W2        149             0.0000000000
       447       149  TIP3      H2            -32.6395984125      -35.6816599386        5.6642683134  W2        149             0.0000000000
       448       150  TIP3      OH2           -29.1406284125      -36.3474299386        5.2493683134  W2        150             0.0000000000
       449       150  TIP3      H1            -30.0880884125      -36.3154599386        5.3816983134  W2        150             0.0000000000
       450       150  TIP3      H2            -28.8279584125      -36.9727199386        5.9031883134  W2        150             0.0000000000
       451       151  TIP3      OH2           -27.5064784125      -37.7133199386        7.2545583134  W2        151             0.0000000000
       452       151  TIP3      H1            -27.6032984125      -38.6655899386        7.2487483134  W2        151             0.0000000000
       453       151  TIP3      H2            -27.8281684125      -37.4446399386        8.1151083134  W2        151             0.0000000000
       454       152  TIP3      OH2           -37.6795484125      -36.5037399386        6.3021083134  W2        152             0.0000000000
       455       152  TIP3      H1            -37.4678084125      -37.2101299386        5.6918583134  W2        152             0.0000000000
       456       152  TIP3      H2            -37.7907984125      -36.9411399386        7.1462283134  W2        152             0.0000000000
       457       153  TIP3      OH2           -32.8985284125      -40.5025799386        5.2814583134  W2        153             0.0000000000
       458       153  TIP3      H1            -32.1866884125      -41.1423599386        5.2673683134  W2        153             0.0000000000
       459       153  TIP3      H2            -32.9994884125      -40.2357499386        4.3677683134  W2        153             0.0000000000
       460       154  TIP3      OH2           -32.5447784125      -38.8197399386        7.3350883134  W2        154             0.0000000000
       461       154  TIP3      H1            -32.6765584125      -39.2953599386        6.5149383134  W2        154             0.0000000000
       462       154  TIP3      H2            -33.1440384125      -38.0753799386        7.2797983134  W2        154             0.0000000000
       463       155  TIP3      OH2           -32.9985484125      -21.9367099386       -9.4885116866  W2        155             0.0000000000
       464       155  TIP3      H1            -32.0654784125      -21.7788399386       -9.3446716866  W2        155             0.0000000000
       465       155  TIP3      H2            -33.2626684125      -21.2614099386      -10.1133616866  W2        155             0.0000000000
       466       156  TIP3      OH2           -39.4300584125      -27.3003299386      -10.0057016866  W2        156             0.0000000000
       467       156  TIP3      H1            -38.5161384125      -27.2214399386       -9.7323116866  W2        156             0.0000000000
       468       156  TIP3      H2            -39.4227484125      -27.9873699386      -10.6721416866  W2        156             0.0000000000
       469       157  TIP3      OH2           -40.7809984125      -21.9074799386       -4.9283116866  W2        157             0.0000000000
       470       157  TIP3      H1            -41.4282884125      -22.3693099386       -5.4611916866  W2        157             0.0000000000
       471       157  TIP3      H2            -40.4265384125      -22.5791499386       -4.3456916866  W2        157             0.0000000000
       472       158  TIP3      OH2           -39.9110784125      -23.8267799386       -3.1236916866  W2        158             0.0000000000
       473       158  TIP3      H1            -40.2453984125      -24.7070499386       -2.9516716866  W2        158             0.0000000000
       474       158  TIP3      H2            -39.6888384125      -23.4812799386       -2.2591316866  W2        158             0.0000000000
       475       159  TIP3      OH2           -22.3625984125      -23.0171399386       -0.1432116866  W2        159             0.0000000000
       476       159  TIP3      H1            -22.3839284125      -22.8322999386        0.7957283134  W2        159             0.0000000000
       477       159  TIP3      H2            -21.6719784125      -22.4487399386       -0.4840716866  W2        159             0.0000000000
       478       160  TIP3      OH2           -22.7993084125      -23.4500299386        2.7786983134  W2        160             0.0000000000
       479       160  TIP3      H1            -23.2864384125      -24.1856199386        2.4074383134  W2        160             0.0000000000
       480       160  TIP3      H2            -22.2500384125      -23.8436399386        3.4566383134  W2        160             0.0000000000
       481       161  TIP3      OH2           -24.3485784125      -27.6602199386        7.4167283134  W2        161             0.0000000000
       482       161  TIP3      H1            -25.2144684125      -27.7652499386        7.8109583134  W2        161             0.0000000000
       483       161  TIP3      H2            -23.9719884125      -26.9018899386        7.8631983134  W2        161             0.0000000000
       484       162  TIP3      OH2           -23.0476084125      -29.4038499386       -7.0690216866  W2        162             0.0000000000
       485       162  TIP3      H1            -22.1974684125      -28.9827599386       -6.9418616866  W2        162             0.0000000000
       486       162  TIP3      H2            -23.0420984125      -30.1438399386       -6.4618816866  W2        162             0.0000000000
       487       163  TIP3      OH2           -22.6530484125      -31.3501099386       -5.2454516866  W2        163             0.0000000000
       488       163  TIP3      H1            -23.3795884125      -31.8298499386       -4.8476916866  W2        163             0.0000000000
       489       163  TIP3      H2            -22.0717184125      -31.1446399386       -4.5132916866  W2        163             0.0000000000
       490       164  TIP3      OH2           -22.8939284125      -28.5653599386       -0.2976916866  W2        164             0.0000000000
       491       164  TIP3      H1            -22.0605084125      -28.9433599386       -0.5783316866  W2        164             0.0000000000
       492       164  TIP3      H2            -22.7818984125      -27.6222399386       -0.4167816866  W2        164             0.0000000000
       493       165  TIP3      OH2           -24.4076984125      -25.6876099386        2.0091483134  W2        165             0.0000000000
       494       165  TIP3      H1            -25.0551684125      -25.3624599386        2.6346683134  W2        165             0.0000000000
       495       165  TIP3      H2            -24.9252984125      -26.1278399386        1.3349783134  W2        165             0.0000000000
       496       166  TIP3      OH2           -22.3847384125      -31.4492599386       -8.8543216866  W2        166             0.0000000000
       497       166  TIP3      H1            -22.9066284125      -31.0928499386       -9.5732316866  W2        166             0.0000000000
       498       166  TIP3      H2            -22.4178184125      -30.7744799386       -8.1762316866  W2        166             0.0000000000
       499       167  TIP3      OH2           -24.0358384125      -34.2096999386      -10.3036116866  W2        167             0.0000000000
       500       167  TIP3      H1            -23.9393984125      -33.5429999386      -10.9836416866  W2        167             0.0000000000
       501       167  TIP3      H2            -24.1758784125      -35.0250699386      -10.7850616866  W2        167             0.0000000000
       502       168  TIP3      OH2           -24.8663684125      -32.8294599386       -4.6825816866  W2        168             0.0000000000
       503       168  TIP3      H1            -25.0164884125      -33.7745999386       -4.7028016866  W2        168             0.0000000000
       504       168  TIP3      H2            -25.2199184125      -32.5483199386       -3.8386716866  W2        168             0.0000000000
       505       169  TIP3      OH2           -39.8311284125      -30.7512399386       -0.6722016866  W2        169             0.0000000000
       506       169  TIP3      H1            -39.6468384125      -30.8330699386       -1.6079116866  W2        169             0.0000000000
       507       169  TIP3      H2            -38.9818384125      -30.8755399386       -0.2485616866  W2        169             0.0000000000
       508       170  TIP3      OH2           -24.0100784125      -30.8591299386        4.9562483134  W2        170             0.0000000000
       509       170  TIP3      H1            -23.4273484125      -31.5938999386        5.1479683134  W2        170             0.0000000000
       510       170  TIP3      H2            -23.4461484125      -30.0870999386        5.0028283134  W2        170             0.0000000000
       511       171  TIP3      OH2           -22.5133684125      -32.9565499386        5.6407883134  W2        171             0.0000000000
       512       171  TIP3      H1            -23.3766984125      -33.3353399386        5.4752583134  W2        171             0.0000000000
       513       171  TIP3      H2            -21.9089984125      -33.6950699386        5.5663683134  W2        171             0.0000000000
       514       172  TIP3      OH2           -24.7884584125      -36.8017199386      -11.1860616866  W2        172             0.0000000000
       515       172  TIP3      H1            -24.1778784125      -37.1730399386      -10.5492416866  W2        172             0.0000000000
       516       172  TIP3      H2            -25.6253084125      -37.2230299386      -10.9900616866  W2        172             0.0000000000
       517       173  TIP3      OH2           -25.1558884125      -35.2468799386       -6.2200716866  W2        173             0.0000000000
       518       173  TIP3      H1            -24.8761784125      -36.1538399386       -6.0959016866  W2        173             0.0000000000
       519       173  TIP3      H2            -24.3967184125      -34.8127299386       -6.6091516866  W2        173             0.0000000000
       520       174  TIP3      OH2           -24.5440584125      -34.6651399386       -0.7841816866  W2        174             0.0000000000
       521       174  TIP3      H1            -23.6112584125      -34.4531499386       -0.8185816866  W2        174             0.0000000000
       522       174  TIP3      H2            -24.7793084125      -34.5639299386        0.1381183134  W2        174             0.0000000000
       523       175  TIP3      OH2           -24.5148684125      -33.9286099386        1.9917583134  W2        175             0.0000000000
       524       175  TIP3      H1            -25.3577384125      -33.6605699386        2.3577383134  W2        175             0.0000000000
       525       175  TIP3      H2            -24.0724384125      -33.1064199386        1.7808683134  W2        175             0.0000000000
       526       176  TIP3      OH2           -40.2336484125      -35.4807399386        5.4686783134  W2        176             0.0000000000
       527       176  TIP3      H1            -39.3141584125      -35.6029099386        5.7049883134  W2        176             0.0000000000
       528       176  TIP3      H2            -40.6831984125      -36.2307699386        5.8580283134  W2        176             0.0000000000
       529       177  TIP3      OH2           -22.2317084125      -39.9485899386        7.3452583134  W2        177             0.0000000000
       530       177  TIP3      H1            -21.8820084125      -40.6022399386        6.7397283134  W2        177             0.0000000000
       531       177  TIP3      H2            -22.0847584125      -39.1111799386        6.9055183134  W2        177             0.0000000000
       532       178  TIP3      OH2           -24.5424084125      -37.9839499386       -6.1718716866  W2        178             0.0000000000
       533       178  TIP3      H1            -24.3599084125      -38.4327999386       -5.3463716866  W2        178             0.0000000000
       534       178  TIP3      H2            -25.1421184125      -38.5685099386       -6.6354116866  W2        178             0.0000000000
       535       179  TIP3      OH2           -39.0123984125      -37.1685799386       -1.6400316866  W2        179             0.0000000000
       536       179  TIP3      H1            -38.5672384125      -37.9603299386       -1.3380616866  W2        179             0.0000000000
       537       179  TIP3      H2            -38.5460984125      -36.4520599386       -1.2094716866  W2        179             0.0000000000
       538       180  TIP3      OH2           -40.7083684125      -34.1692799386       -0.5710116866  W2        180             0.0000000000
       539       180  TIP3      H1            -40.2163884125      -34.3902299386       -1.3618116866  W2        180             0.0000000000
       540       180  TIP3      H2            -40.3462784125      -33.3289399386       -0.2900616866  W2        180             0.0000000000
       541       181  TIP3      OH2           -22.7119884125      -37.8391299386        5.6943883134  W2        181             0.0000000000
       542       181  TIP3      H1            -23.6294184125      -37.5684199386        5.6587383134  W2        181             0.0000000000
       543       181  TIP3      H2            -22.5890484125      -38.3742899386        4.9103583134  W2        181             0.0000000000
       544       182  TIP3      OH2           -22.6757884125      -37.9161399386       -9.6438416866  W2        182             0.0000000000
       545       182  TIP3      H1            -22.2635284125      -38.6375699386      -10.1190416866  W2        182             0.0000000000
       546       182  TIP3      H2            -21.9941384125      -37.2466799386       -9.5854116866  W2        182             0.0000000000
       547       183  TIP3      OH2           -40.3947184125      -37.9113699386       -6.5167716866  W2        183             0.0000000000
       548       183  TIP3      H1            -41.3198784125      -37.7027099386       -6.6462216866  W2        183             0.0000000000
       549       183  TIP3      H2            -39.9407284125      -37.4272899386       -7.2065416866  W2        183             0.0000000000
       550       184  TIP3      OH2           -25.6239984125      -22.9271999386       -4.5710316866  W2        184             0.0000000000
       551       184  TIP3      H1            -24.9717084125      -23.2749899386       -5.1791216866  W2        184             0.0000000000
       552       184  TIP3      H2            -25.1136184125      -22.4388799386       -3.9250616866  W2        184             0.0000000000
       553       185  TIP3      OH2           -40.4311784125      -39.1734699386        1.8274783134  W2        185             0.0000000000
       554       185  TIP3      H1            -41.0961284125      -39.4194399386        2.4705683134  W2        185             0.0000000000
       555       185  TIP3      H2            -40.8740484125      -38.5514299386        1.2502783134  W2        185             0.0000000000
       556       186  TIP3      OH2           -38.2392484125      -25.9980599386        5.9720583134  W2        186             0.0000000000
       557       186  TIP3      H1            -39.0599984125      -25.8234099386        5.5115283134  W2        186             0.0000000000
       558       186  TIP3      H2            -38.4914684125      -26.0715899386        6.8924983134  W2        186             0.0000000000
       559       187  TIP3      OH2           -35.2849584125      -25.0239399386        2.2304583134  W2        187             0.0000000000
       560       187  TIP3      H1            -35.7098484125      -24.2140899386        1.9479183134  W2        187             0.0000000000
       561       187  TIP3      H2            -34.3806784125      -24.9385299386        1.9284383134  W2        187             0.0000000000
       562       188  TIP3      OH2           -30.9738184125      -23.6249399386        5.1898283134  W2        188             0.0000000000
       563       188  TIP3      H1            -30.7890684125      -23.9583299386        6.0678583134  W2        188             0.0000000000
       564       188  TIP3      H2            -30.1273684125      -23.3150799386        4.8677483134  W2        188             0.0000000000
       565       189  TIP3      OH2           -28.6287784125      -22.3390499386        4.4339683134  W2        189             0.0000000000
       566       189  TIP3      H1            -27.9518884125      -22.9718199386        4.1938883134  W2        189             0.0000000000
       567       189  TIP3      H2            -28.3068984125      -21.9379999386        5.2412983134  W2        189             0.0000000000
       568       190  TIP3      OH2           -23.7113984125      -39.7494999386        3.5134683134  W2        190             0.0000000000
       569       190  TIP3      H1            -24.5240484125      -39.4244699386        3.1259383134  W2        190             0.0000000000
       570       190  TIP3      H2            -23.4785484125      -40.5096499386        2.9803783134  W2        190             0.0000000000
       571       191  TIP3      OH2           -37.8832884125      -21.7675499386        2.2779883134  W2        191             0.0000000000
       572       191  TIP3      H1            -38.6036484125      -21.3274499386        1.8267583134  W2        191             0.0000000000
       573       191  TIP3      H2            -38.2488884125      -22.0180799386        3.1263883134  W2        191             0.0000000000
       574       192  TIP3      OH2           -35.4160284125      -22.1671599386        1.3077083134  W2        192             0.0000000000
       575       192  TIP3      H1            -36.2808084125      -22.0953099386        1.7117183134  W2        192             0.0000000000
       576       192  TIP3      H2            -35.4711284125      -21.6204299386        0.5239583134  W2        192             0.0000000000
       577       193  TIP3      OH2           -30.7054684125      -22.2792699386        0.4833083134  W2        193             0.0000000000
       578       193  TIP3      H1            -31.1620684125      -21.7502999386       -0.1708516866  W2        193             0.0000000000
       579       193  TIP3      H2            -30.5426684125      -21.6761299386        1.2085383134  W2        193             0.0000000000
       580       194  TIP3      OH2           -28.3778384125      -23.4013099386        1.4283383134  W2        194             0.0000000000
       581       194  TIP3      H1            -29.2824684125      -23.2362899386        1.1625483134  W2        194             0.0000000000
       582       194  TIP3      H2            -27.9489784125      -22.5480899386        1.3626783134  W2        194             0.0000000000
       583       195  TIP3      OH2           -25.7736484125      -21.8313999386        1.7231183134  W2        195             0.0000000000
       584       195  TIP3      H1            -25.9554484125      -20.9155099386        1.5126083134  W2        195             0.0000000000
       585       195  TIP3      H2            -25.5968684125      -22.2416899386        0.8765783134  W2        195             0.0000000000
       586       196  TIP3      OH2           -38.4684784125      -23.1442999386       -0.8118316866  W2        196             0.0000000000
       587       196  TIP3      H1            -38.4868784125      -23.5697899386        0.0453983134  W2        196             0.0000000000
       588       196  TIP3      H2            -37.6636884125      -23.4627999386       -1.2206116866  W2        196             0.0000000000
       589       197  TIP3      OH2           -36.3271684125      -24.4344299386       -2.1568416866  W2        197             0.0000000000
       590       197  TIP3      H1            -36.5460984125      -25.3506899386       -1.9872416866  W2        197             0.0000000000
       591       197  TIP3      H2            -35.5029484125      -24.2943899386       -1.6907016866  W2        197             0.0000000000
       592       198  TIP3      OH2           -33.7899184125      -23.9644999386       -1.3080416866  W2        198             0.0000000000
       593       198  TIP3      H1            -33.5773484125      -24.8525999386       -1.5949516866  W2        198             0.0000000000
       594       198  TIP3      H2            -33.7254084125      -23.9987299386       -0.3536416866  W2        198             0.0000000000
       595       199  TIP3      OH2           -30.2815484125      -38.3004399386       -2.1637116866  W2        199             0.0000000000
       596       199  TIP3      H1            -30.9558684125      -38.9298799386       -1.9081316866  W2        199             0.0000000000
       597       199  TIP3      H2            -29.7176284125      -38.7845499386       -2.7669216866  W2        199             0.0000000000
       598       200  TIP3      OH2           -25.1388284125      -40.1930399386       -2.0510016866  W2        200             0.0000000000
       599       200  TIP3      H1            -24.5350684125      -39.6454999386       -2.5529016866  W2        200             0.0000000000
       600       200  TIP3      H2            -26.0086284125      -39.8739999386       -2.2915916866  W2        200             0.0000000000
       601       201  TIP3      OH2           -23.4117884125      -39.0541699386       -3.7179116866  W2        201             0.0000000000
       602       201  TIP3      H1            -22.8000384125      -39.5685999386       -4.2445516866  W2        201             0.0000000000
       603       201  TIP3      H2            -23.0294484125      -38.1769599386       -3.6944716866  W2        201             0.0000000000
       604       202  TIP3      OH2           -37.9547984125      -39.6664099386       -4.3417216866  W2        202             0.0000000000
       605       202  TIP3      H1            -38.7318184125      -39.9009199386       -4.8491316866  W2        202             0.0000000000
       606       202  TIP3      H2            -37.4244384125      -40.4631999386       -4.3329216866  W2        202             0.0000000000
       607       203  TIP3      OH2           -39.1184584125      -39.8685999386       -8.5381116866  W2        203             0.0000000000
       608       203  TIP3      H1            -38.6793884125      -39.2575499386       -9.1297616866  W2        203             0.0000000000
       609       203  TIP3      H2            -39.7522184125      -39.3301899386       -8.0641116866  W2        203             0.0000000000
       610       204  TIP3      OH2           -33.3755384125      -39.7396999386       -4.5284116866  W2        204             0.0000000000
       611       204  TIP3      H1            -32.5011984125      -39.3512699386       -4.5579816866  W2        204             0.0000000000
       612       204  TIP3      H2            -33.5114584125      -39.9549199386       -3.6056916866  W2        204             0.0000000000
       613       205  TIP3      OH2           -27.8186984125      -39.7097199386       -2.8792416866  W2        205             0.0000000000
       614       205  TIP3      H1            -27.7425384125      -39.6145599386       -3.8286416866  W2        205             0.0000000000
       615       205  TIP3      H2            -28.0937784125      -40.6174299386       -2.7503316866  W2        205             0.0000000000
       616       206  TIP3      OH2           -26.4654384125      -39.6839399386       -7.1867416866  W2        206             0.0000000000
       617       206  TIP3      H1            -27.1683284125      -39.0690199386       -7.3966016866  W2        206             0.0000000000
       618       206  TIP3      H2            -26.9102984125      -40.5212699386       -7.0556516866  W2        206             0.0000000000
       619       207  TIP3      OH2           -39.2175084125      -23.9203799386       -7.6406016866  W2        207             0.0000000000
       620       207  TIP3      H1            -39.9025184125      -23.9584899386       -8.3080916866  W2        207             0.0000000000
       621       207  TIP3      H2            -39.2137884125      -23.0076199386       -7.3523916866  W2        207             0.0000000000
       622       208  TIP3      OH2           -37.2575484125      -37.9524499386      -10.0957016866  W2        208             0.0000000000
       623       208  TIP3      H1            -36.7662084125      -38.5822099386      -10.6231516866  W2        208             0.0000000000
       624       208  TIP3      H2            -36.6339184125      -37.6565099386       -9.4325816866  W2        208             0.0000000000
       625       209  TIP3      OH2           -32.2315384125      -37.6592999386       -7.6386516866  W2        209             0.0000000000
       626       209  TIP3      H1            -32.0534084125      -38.3059799386       -6.9557916866  W2        209             0.0000000000
       627       209  TIP3      H2            -32.2849184125      -36.8255299386       -7.1715416866  W2        209             0.0000000000
       628       210  TIP3      OH2           -30.3531584125      -22.7108899386       -9.2429816866  W2        210             0.0000000000
       629       210  TIP3      H1            -29.4871384125      -22.3441499386       -9.4211616866  W2        210             0.0000000000
       630       210  TIP3      H2            -30.5998784125      -23.1500899386      -10.0569016866  W2        210             0.0000000000
       631       211  TIP3      OH2           -23.6441984125      -23.1478599386       -6.5638716866  W2        211             0.0000000000
       632       211  TIP3      H1            -23.8384884125      -23.8956499386       -7.1289116866  W2        211             0.0000000000
       633       211  TIP3      H2            -23.6831884125      -22.3898499386       -7.1470816866  W2        211             0.0000000000
       634       212  TIP3      OH2           -37.9969984125      -39.1522199386        5.1758983134  W2        212             0.0000000000
       635       212  TIP3      H1            -38.3631784125      -39.9179599386        5.6183683134  W2        212             0.0000000000
       636       212  TIP3      H2            -37.0841484125      -39.1231999386        5.4624083134  W2        212             0.0000000000
       637       213  TIP3      OH2           -36.0239184125      -39.8017799386        6.7116083134  W2        213             0.0000000000
       638       213  TIP3      H1            -35.1255584125      -40.0757599386        6.5269483134  W2        213             0.0000000000
       639       213  TIP3      H2            -36.4106084125      -40.5441799386        7.1758683134  W2        213             0.0000000000
       640       214  TIP3      OH2           -37.3993884125      -23.0002999386      -10.6153916866  W2        214             0.0000000000
       641       214  TIP3      H1            -37.6669284125      -22.7140099386       -9.7420816866  W2        214             0.0000000000
       642       214  TIP3      H2            -36.6281284125      -23.5463799386      -10.4631416866  W2        214             0.0000000000
       643       215  TIP3      OH2           -27.6026884125      -40.4692499386        6.8938883134  W2        215             0.0000000000
       644       215  TIP3      H1            -27.5259684125      -40.8951799386        7.7476583134  W2        215             0.0000000000
       645       215  TIP3      H2            -26.7090284125      -40.4557799386        6.5512383134  W2        215             0.0000000000
       646       216  TIP3      OH2           -24.4265784125      -24.3966199386        5.5863083134  W2        216             0.0000000000
       647       216  TIP3      H1            -25.2083884125      -24.5828199386        5.0663683134  W2        216             0.0000000000
       648       216  TIP3      H2            -24.4985884125      -23.4671899386        5.8035583134  W2        216             0.0000000000
       649       217  TIP3      OH2           -10.0205384125      -30.5101799386       -4.3829716866  W2        217             0.0000000000
       650       217  TIP3      H1             -9.9314284125      -29.5663599386       -4.5152616866  W2        217             0.0000000000
       651       217  TIP3      H2            -10.6587784125      -30.7855399386       -5.0410316866  W2        217             0.0000000000
       652       218  TIP3      OH2           -11.0874084125      -31.2551099386       -0.9641516866  W2        218             0.0000000000
       653       218  TIP3      H1            -11.1256584125      -31.9014799386       -0.2591916866  W2        218             0.0000000000
       654       218  TIP3      H2            -11.4097584125      -31.7216699386       -1.7352816866  W2        218             0.0000000000
       655       219  TIP3      OH2           -18.7189084125      -31.6408999386        0.6288383134  W2        219             0.0000000000
       656       219  TIP3      H1            -18.6776984125      -32.2665699386        1.3520783134  W2        219             0.0000000000
       657       219  TIP3      H2            -18.0161384125      -31.0170399386        0.8108783134  W2        219             0.0000000000
       658       220  TIP3      OH2            -7.3813884125      -28.3160699386       -2.6626416866  W2        220             0.0000000000
       659       220  TIP3      H1             -7.8221184125      -29.0364699386       -2.2120816866  W2        220             0.0000000000
       660       220  TIP3      H2             -7.3944184125      -27.5953499386       -2.0328716866  W2        220             0.0000000000
       661       221  TIP3      OH2           -17.7955984125      -27.1910099386       -0.8362516866  W2        221             0.0000000000
       662       221  TIP3      H1            -18.1650784125      -27.9929599386       -1.2058216866  W2        221             0.0000000000
       663       221  TIP3      H2            -16.8544884125      -27.3595199386       -0.7899116866  W2        221             0.0000000000
       664       222  TIP3      OH2           -21.1855484125      -33.5307499386       -5.4433716866  W2        222             0.0000000000
       665       222  TIP3      H1            -21.6332084125      -32.6848799386       -5.4617216866  W2        222             0.0000000000
       666       222  TIP3      H2            -21.7464284125      -34.1103299386       -5.9588616866  W2        222             0.0000000000
       667       223  TIP3      OH2           -20.4749384125      -31.3687899386       -3.3175716866  W2        223             0.0000000000
       668       223  TIP3      H1            -20.2615884125      -32.1386299386       -2.7902716866  W2        223             0.0000000000
       669       223  TIP3      H2            -19.7371784125      -31.2791199386       -3.9208116866  W2        223             0.0000000000
       670       224  TIP3      OH2           -10.2698384125      -23.2118999386       -2.4506016866  W2        224             0.0000000000
       671       224  TIP3      H1             -9.6501984125      -23.8884299386       -2.7236816866  W2        224             0.0000000000
       672       224  TIP3      H2            -10.4780984125      -23.4298199386       -1.5421116866  W2        224             0.0000000000
       673       225  TIP3      OH2           -12.6979684125      -28.8229699386       -0.5580516866  W2        225             0.0000000000
       674       225  TIP3      H1            -12.3941784125      -29.5088299386       -1.1526416866  W2        225             0.0000000000
       675       225  TIP3      H2            -11.9765684125      -28.7040999386        0.0597483134  W2        225             0.0000000000
       676       226  TIP3      OH2            -4.0349884125      -37.2214399386        0.3025683134  W2        226             0.0000000000
       677       226  TIP3      H1             -3.9857684125      -36.6113199386        1.0384783134  W2        226             0.0000000000
       678       226  TIP3      H2             -3.6094784125      -36.7603499386       -0.4203216866  W2        226             0.0000000000
       679       227  TIP3      OH2            -9.5572684125      -34.4287299386       -0.2305716866  W2        227             0.0000000000
       680       227  TIP3      H1             -9.4146784125      -35.3750299386       -0.2104116866  W2        227             0.0000000000
       681       227  TIP3      H2             -9.6633684125      -34.2217499386       -1.1590816866  W2        227             0.0000000000
       682       228  TIP3      OH2           -16.4024384125      -36.3270899386       -2.9580916866  W2        228             0.0000000000
       683       228  TIP3      H1            -16.3593284125      -35.4672399386       -3.3764616866  W2        228             0.0000000000
       684       228  TIP3      H2            -16.8600284125      -36.8796199386       -3.5917716866  W2        228             0.0000000000
       685       229  TIP3      OH2            -8.6801684125      -36.1965299386       -4.5572616866  W2        229             0.0000000000
       686       229  TIP3      H1             -8.0337384125      -36.5252099386       -3.9325016866  W2        229             0.0000000000
       687       229  TIP3      H2             -8.1702284125      -35.6786299386       -5.1801216866  W2        229             0.0000000000
       688       230  TIP3      OH2           -19.7822884125      -33.9305099386       -2.1959516866  W2        230             0.0000000000
       689       230  TIP3      H1            -19.1286284125      -34.4803399386       -1.7639416866  W2        230             0.0000000000
       690       230  TIP3      H2            -19.7583584125      -34.2046099386       -3.1127516866  W2        230             0.0000000000
       691       231  TIP3      OH2           -14.6258384125      -32.3803799386       -2.9808016866  W2        231             0.0000000000
       692       231  TIP3      H1            -14.0097384125      -32.9068399386       -2.4714016866  W2        231             0.0000000000
       693       231  TIP3      H2            -15.2119584125      -33.0205099386       -3.3844416866  W2        231             0.0000000000
       694       232  TIP3      OH2            -3.6435284125      -35.7435199386        2.5385483134  W2        232             0.0000000000
       695       232  TIP3      H1             -4.3320684125      -35.0854499386        2.4432083134  W2        232             0.0000000000
       696       232  TIP3      H2             -3.6280684125      -35.9407299386        3.4750883134  W2        232             0.0000000000
       697       233  TIP3      OH2           -17.5922484125      -37.4092499386        1.1159883134  W2        233             0.0000000000
       698       233  TIP3      H1            -17.8110784125      -36.8791899386        0.3495883134  W2        233             0.0000000000
       699       233  TIP3      H2            -18.2601584125      -37.1826999386        1.7631283134  W2        233             0.0000000000
       700       234  TIP3      OH2           -10.2232684125      -27.9091399386       -5.3401016866  W2        234             0.0000000000
       701       234  TIP3      H1            -10.5187584125      -28.2319099386       -6.1914116866  W2        234             0.0000000000
       702       234  TIP3      H2            -10.5474884125      -27.0094699386       -5.2988416866  W2        234             0.0000000000
       703       235  TIP3      OH2           -15.0231084125      -29.7336799386        1.4033583134  W2        235             0.0000000000
       704       235  TIP3      H1            -15.7631984125      -29.1355299386        1.5068783134  W2        235             0.0000000000
       705       235  TIP3      H2            -14.3091584125      -29.1797199386        1.0877183134  W2        235             0.0000000000
       706       236  TIP3      OH2            -6.9163284125      -36.9055999386       -2.5766716866  W2        236             0.0000000000
       707       236  TIP3      H1             -7.1315284125      -37.6712599386       -2.0440716866  W2        236             0.0000000000
       708       236  TIP3      H2             -6.2605884125      -36.4331399386       -2.0638216866  W2        236             0.0000000000
       709       237  TIP3      OH2           -17.9985184125      -35.5170699386       -0.9317916866  W2        237             0.0000000000
       710       237  TIP3      H1            -17.3848884125      -34.8843099386       -0.5585516866  W2        237             0.0000000000
       711       237  TIP3      H2            -17.4864484125      -35.9895699386       -1.5881016866  W2        237             0.0000000000
       712       238  TIP3      OH2           -16.6156784125      -27.7693799386        2.1905083134  W2        238             0.0000000000
       713       238  TIP3      H1            -16.6209184125      -26.8900299386        1.8124383134  W2        238             0.0000000000
       714       238  TIP3      H2            -17.4692684125      -27.8529699386        2.6154983134  W2        238             0.0000000000
       715       239  TIP3      OH2           -20.4945884125      -28.0985899386       -7.0275616866  W2        239             0.0000000000
       716       239  TIP3      H1            -20.7664984125      -27.8694899386       -7.9162716866  W2        239             0.0000000000
       717       239  TIP3      H2            -20.4490184125      -27.2607099386       -6.5670316866  W2        239             0.0000000000
       718       240  TIP3      OH2            -6.8696184125      -26.4769999386       -0.3147116866  W2        240             0.0000000000
       719       240  TIP3      H1             -7.8112484125      -26.4186099386       -0.1530216866  W2        240             0.0000000000
       720       240  TIP3      H2             -6.5930084125      -25.5709499386       -0.4517416866  W2        240             0.0000000000
       721       241  TIP3      OH2            -6.5689184125      -38.1904699386        1.1026783134  W2        241             0.0000000000
       722       241  TIP3      H1             -7.3049984125      -37.5797599386        1.0648083134  W2        241             0.0000000000
       723       241  TIP3      H2             -5.8855184125      -37.7755699386        0.5763183134  W2        241             0.0000000000
       724       242  TIP3      OH2           -13.5657784125      -40.1037399386       -1.4315216866  W2        242             0.0000000000
       725       242  TIP3      H1            -13.6833584125      -41.0521399386       -1.4856916866  W2        242             0.0000000000
       726       242  TIP3      H2            -14.4207684125      -39.7711299386       -1.1584116866  W2        242             0.0000000000
       727       243  TIP3      OH2            -8.6174984125      -24.6956499386       -3.6895516866  W2        243             0.0000000000
       728       243  TIP3      H1             -8.1922684125      -25.4028599386       -4.1745916866  W2        243             0.0000000000
       729       243  TIP3      H2             -8.3004984125      -23.8943799386       -4.1063316866  W2        243             0.0000000000
       730       244  TIP3      OH2            -7.4578484125      -26.7947999386       -5.1808916866  W2        244             0.0000000000
       731       244  TIP3      H1             -7.7153684125      -27.4847899386       -5.7923016866  W2        244             0.0000000000
       732       244  TIP3      H2             -7.3867684125      -27.2376799386       -4.3353016866  W2        244             0.0000000000
       733       245  TIP3      OH2            -5.7718284125      -28.2281299386        3.2964583134  W2        245             0.0000000000
       734       245  TIP3      H1             -5.6321984125      -28.8198799386        2.5571583134  W2        245             0.0000000000
       735       245  TIP3      H2             -5.6045484125      -27.3555399386        2.9403383134  W2        245             0.0000000000
       736       246  TIP3      OH2           -11.2992884125      -31.2661799386       -6.9309416866  W2        246             0.0000000000
       737       246  TIP3      H1            -12.0107384125      -30.7312099386       -7.2828916866  W2        246             0.0000000000
       738       246  TIP3      H2            -10.6083284125      -31.2109699386       -7.5910516866  W2        246             0.0000000000
       739       247  TIP3      OH2           -11.2453684125      -32.8087499386       -9.8924416866  W2        247             0.0000000000
       740       247  TIP3      H1            -10.5443784125      -32.7860599386       -9.2410416866  W2        247             0.0000000000
       741       247  TIP3      H2            -10.9430784125      -33.4367799386      -10.5485116866  W2        247             0.0000000000
       742       248  TIP3      OH2            -3.9298984125      -31.8883299386        1.3624983134  W2        248             0.0000000000
       743       248  TIP3      H1             -4.5824884125      -31.1937699386        1.4515883134  W2        248             0.0000000000
       744       248  TIP3      H2             -3.4648684125      -31.6782399386        0.5526583134  W2        248             0.0000000000
       745       249  TIP3      OH2            -7.8935184125      -31.0568499386       -5.9793516866  W2        249             0.0000000000
       746       249  TIP3      H1             -8.6254184125      -30.8284799386       -5.4062916866  W2        249             0.0000000000
       747       249  TIP3      H2             -7.4462984125      -31.7705799386       -5.5246016866  W2        249             0.0000000000
       748       250  TIP3      OH2            -7.9961684125      -32.8825899386        3.0883483134  W2        250             0.0000000000
       749       250  TIP3      H1             -7.9162584125      -32.1191499386        3.6601983134  W2        250             0.0000000000
       750       250  TIP3      H2             -8.5973984125      -32.6033499386        2.3978583134  W2        250             0.0000000000
       751       251  TIP3      OH2           -16.2481484125      -30.4262299386       -4.0968516866  W2        251             0.0000000000
       752       251  TIP3      H1            -16.5786284125      -30.7968899386       -4.9151516866  W2        251             0.0000000000
       753       251  TIP3      H2            -15.6597384125      -31.0968299386       -3.7500216866  W2        251             0.0000000000
       754       252  TIP3      OH2           -14.8813984125      -26.9981699386       -1.4156316866  W2        252             0.0000000000
       755       252  TIP3      H1            -14.9762684125      -27.5768599386       -2.1721716866  W2        252             0.0000000000
       756       252  TIP3      H2            -14.1520384125      -27.3695999386       -0.9193516866  W2        252             0.0000000000
       757       253  TIP3      OH2           -15.8815984125      -31.6576699386       -0.4633516866  W2        253             0.0000000000
       758       253  TIP3      H1            -15.3163484125      -31.5362499386       -1.2262316866  W2        253             0.0000000000
       759       253  TIP3      H2            -15.5627084125      -31.0201699386        0.1754983134  W2        253             0.0000000000
       760       254  TIP3      OH2            -9.5723784125      -26.1544799386        0.2706983134  W2        254             0.0000000000
       761       254  TIP3      H1             -9.8127184125      -25.4921699386        0.9186183134  W2        254             0.0000000000
       762       254  TIP3      H2             -9.7705584125      -26.9889599386        0.6956583134  W2        254             0.0000000000
       763       255  TIP3      OH2           -15.0015284125      -27.2583999386        4.2538383134  W2        255             0.0000000000
       764       255  TIP3      H1            -15.3127784125      -26.4760799386        4.7091583134  W2        255             0.0000000000
       765       255  TIP3      H2            -15.6515084125      -27.4114899386        3.5680383134  W2        255             0.0000000000
       766       256  TIP3      OH2            -9.0225684125      -31.8945599386       -8.2942316866  W2        256             0.0000000000
       767       256  TIP3      H1             -8.4430184125      -31.7445299386       -7.5473416866  W2        256             0.0000000000
       768       256  TIP3      H2             -8.6085684125      -31.4238199386       -9.0175916866  W2        256             0.0000000000
       769       257  TIP3      OH2           -18.0815384125      -31.0602899386        3.4824083134  W2        257             0.0000000000
       770       257  TIP3      H1            -18.0112184125      -30.4096099386        4.1809083134  W2        257             0.0000000000
       771       257  TIP3      H2            -18.9723184125      -30.9575399386        3.1474983134  W2        257             0.0000000000
       772       258  TIP3      OH2           -11.2960784125      -25.1577099386       -4.8589216866  W2        258             0.0000000000
       773       258  TIP3      H1            -10.8223184125      -24.8620799386       -4.0815016866  W2        258             0.0000000000
       774       258  TIP3      H2            -11.8591484125      -24.4195499386       -5.0919616866  W2        258             0.0000000000
       775       259  TIP3      OH2           -16.7619384125      -25.1868999386        5.0172183134  W2        259             0.0000000000
       776       259  TIP3      H1            -16.7544084125      -25.3229299386        4.0697683134  W2        259             0.0000000000
       777       259  TIP3      H2            -17.6778984125      -25.3040899386        5.2692183134  W2        259             0.0000000000
       778       260  TIP3      OH2            -5.3237284125      -40.1445199386       -8.4812616866  W2        260             0.0000000000
       779       260  TIP3      H1             -6.2236584125      -40.0056199386       -8.1862016866  W2        260             0.0000000000
       780       260  TIP3      H2             -5.0718884125      -39.3130599386       -8.8830916866  W2        260             0.0000000000
       781       261  TIP3      OH2           -17.2578784125      -31.3567999386       -6.5075716866  W2        261             0.0000000000
       782       261  TIP3      H1            -17.5497484125      -30.5886299386       -6.9984416866  W2        261             0.0000000000
       783       261  TIP3      H2            -17.9323584125      -32.0161799386       -6.6704316866  W2        261             0.0000000000
       784       262  TIP3      OH2            -4.1345884125      -25.7782799386      -10.1048716866  W2        262             0.0000000000
       785       262  TIP3      H1             -4.0612384125      -24.8392599386       -9.9343416866  W2        262             0.0000000000
       786       262  TIP3      H2             -3.2290784125      -26.0834199386      -10.1611416866  W2        262             0.0000000000
       787       263  TIP3      OH2           -21.1648684125      -28.9938799386        2.3074083134  W2        263             0.0000000000
       788       263  TIP3      H1            -21.6660284125      -29.0219399386        1.4923783134  W2        263             0.0000000000
       789       263  TIP3      H2            -21.1594984125      -29.8995599386        2.6171383134  W2        263             0.0000000000
       790       264  TIP3      OH2           -21.4145984125      -26.2134999386       -0.8085716866  W2        264             0.0000000000
       791       264  TIP3      H1            -20.4685384125      -26.3577999386       -0.8276216866  W2        264             0.0000000000
       792       264  TIP3      H2            -21.5269684125      -25.4292199386       -0.2714516866  W2        264             0.0000000000
       793       265  TIP3      OH2            -3.2167484125      -25.5475299386        4.8737983134  W2        265             0.0000000000
       794       265  TIP3      H1             -3.2660684125      -26.5027199386        4.8365583134  W2        265             0.0000000000
       795       265  TIP3      H2             -4.0435184125      -25.2799999386        5.2751783134  W2        265             0.0000000000
       796       266  TIP3      OH2           -12.2383484125      -25.9736099386        3.7499383134  W2        266             0.0000000000
       797       266  TIP3      H1            -12.1508884125      -25.1471499386        4.2248483134  W2        266             0.0000000000
       798       266  TIP3      H2            -13.1018384125      -26.3032299386        3.9988683134  W2        266             0.0000000000
       799       267  TIP3      OH2           -11.8237684125      -22.2012399386       -6.4440016866  W2        267             0.0000000000
       800       267  TIP3      H1            -11.8991684125      -22.3225199386       -7.3904816866  W2        267             0.0000000000
       801       267  TIP3      H2            -11.7908984125      -21.2519699386       -6.3255416866  W2        267             0.0000000000
       802       268  TIP3      OH2           -18.1703884125      -23.4125399386       -4.6631016866  W2        268             0.0000000000
       803       268  TIP3      H1            -18.0183484125      -23.7604999386       -3.7844516866  W2        268             0.0000000000
       804       268  TIP3      H2            -19.0213484125      -23.7688099386       -4.9183816866  W2        268             0.0000000000
       805       269  TIP3      OH2            -8.7221684125      -23.0472199386       -9.4417616866  W2        269             0.0000000000
       806       269  TIP3      H1             -8.3473284125      -23.7916099386       -9.9125016866  W2        269             0.0000000000
       807       269  TIP3      H2             -8.7177984125      -23.3171599386       -8.5234316866  W2        269             0.0000000000
       808       270  TIP3      OH2            -9.0533584125      -23.1215099386       -6.6925416866  W2        270             0.0000000000
       809       270  TIP3      H1             -9.9883784125      -23.0213199386       -6.5138416866  W2        270             0.0000000000
       810       270  TIP3      H2             -8.7731684125      -23.8309099386       -6.1142216866  W2        270             0.0000000000
       811       271  TIP3      OH2            -6.0647684125      -34.0542799386        5.3540183134  W2        271             0.0000000000
       812       271  TIP3      H1             -6.4720884125      -33.5737199386        4.6333483134  W2        271             0.0000000000
       813       271  TIP3      H2             -6.0241984125      -34.9596799386        5.0460983134  W2        271             0.0000000000
       814       272  TIP3      OH2           -18.9158184125      -27.6703399386        3.3506883134  W2        272             0.0000000000
       815       272  TIP3      H1            -18.6996884125      -28.0317799386        4.2102683134  W2        272             0.0000000000
       816       272  TIP3      H2            -19.7713484125      -28.0449599386        3.1410383134  W2        272             0.0000000000
       817       273  TIP3      OH2           -16.2970184125      -39.2002899386       -0.6538916866  W2        273             0.0000000000
       818       273  TIP3      H1            -17.1586484125      -39.2874699386       -1.0616016866  W2        273             0.0000000000
       819       273  TIP3      H2            -16.3194484125      -38.3442799386       -0.2261316866  W2        273             0.0000000000
       820       274  TIP3      OH2           -11.6342384125      -39.4782499386        2.7208083134  W2        274             0.0000000000
       821       274  TIP3      H1            -11.2139284125      -39.8935399386        3.4738683134  W2        274             0.0000000000
       822       274  TIP3      H2            -12.5672784125      -39.6569199386        2.8380083134  W2        274             0.0000000000
       823       275  TIP3      OH2            -8.3077484125      -35.7227299386        3.5742583134  W2        275             0.0000000000
       824       275  TIP3      H1             -8.8217984125      -35.8485099386        4.3718583134  W2        275             0.0000000000
       825       275  TIP3      H2             -8.4632784125      -34.8104199386        3.3298783134  W2        275             0.0000000000
       826       276  TIP3      OH2            -7.5452584125      -30.8617299386      -10.6644416866  W2        276             0.0000000000
       827       276  TIP3      H1             -7.5031784125      -31.0843399386      -11.5944416866  W2        276             0.0000000000
       828       276  TIP3      H2             -6.6960484125      -30.4630199386      -10.4744516866  W2        276             0.0000000000
       829       277  TIP3      OH2           -11.9725084125      -36.9859099386       -9.9941116866  W2        277             0.0000000000
       830       277  TIP3      H1            -12.2260284125      -36.9667499386       -9.0713016866  W2        277             0.0000000000
       831       277  TIP3      H2            -12.2292984125      -37.8573699386      -10.2954916866  W2        277             0.0000000000
       832       278  TIP3      OH2           -16.2060084125      -34.2348399386        0.4411283134  W2        278             0.0000000000
       833       278  TIP3      H1            -16.8477984125      -34.2751099386        1.1501383134  W2        278             0.0000000000
       834       278  TIP3      H2            -16.1688084125      -33.3083699386        0.2034283134  W2        278             0.0000000000
       835       279  TIP3      OH2           -16.2090984125      -34.0138299386       -4.6468716866  W2        279             0.0000000000
       836       279  TIP3      H1            -17.1018084125      -34.3542199386       -4.7054916866  W2        279             0.0000000000
       837       279  TIP3      H2            -15.7584384125      -34.3907399386       -5.4025516866  W2        279             0.0000000000
       838       280  TIP3      OH2           -10.6735484125      -33.5977999386       -5.8297916866  W2        280             0.0000000000
       839       280  TIP3      H1            -11.0825184125      -32.7829399386       -6.1213116866  W2        280             0.0000000000
       840       280  TIP3      H2             -9.9529284125      -33.7377899386       -6.4440816866  W2        280             0.0000000000
       841       281  TIP3      OH2           -11.5713884125      -33.4221599386        5.6582783134  W2        281             0.0000000000
       842       281  TIP3      H1            -12.1340084125      -34.1269999386        5.9790583134  W2        281             0.0000000000
       843       281  TIP3      H2            -10.7450484125      -33.5429699386        6.1260383134  W2        281             0.0000000000
       844       282  TIP3      OH2            -9.6687784125      -34.1517599386       -3.0158216866  W2        282             0.0000000000
       845       282  TIP3      H1             -9.8643284125      -33.5460799386       -3.7307616866  W2        282             0.0000000000
       846       282  TIP3      H2             -9.4875184125      -34.9852399386       -3.4501916866  W2        282             0.0000000000
       847       283  TIP3      OH2           -18.4559584125      -33.9144899386        2.3083283134  W2        283             0.0000000000
       848       283  TIP3      H1            -18.4940184125      -33.5143299386        3.1770383134  W2        283             0.0000000000
       849       283  TIP3      H2            -18.9468484125      -34.7312499386        2.3986183134  W2        283             0.0000000000
       850       284  TIP3      OH2           -15.0902184125      -36.5402599386      -10.8930716866  W2        284             0.0000000000
       851       284  TIP3      H1            -15.5211484125      -36.9852499386      -10.1633316866  W2        284             0.0000000000
       852       284  TIP3      H2            -15.8083484125      -36.1686299386      -11.4053216866  W2        284             0.0000000000
       853       285  TIP3      OH2           -21.8478784125      -36.7983099386       -3.8412016866  W2        285             0.0000000000
       854       285  TIP3      H1            -21.2171084125      -36.8270999386       -3.1218116866  W2        285             0.0000000000
       855       285  TIP3      H2            -21.3984484125      -37.2234399386       -4.5716116866  W2        285             0.0000000000
       856       286  TIP3      OH2           -20.5736684125      -36.0521099386       -8.4171616866  W2        286             0.0000000000
       857       286  TIP3      H1            -20.0994984125      -35.4611199386       -9.0020716866  W2        286             0.0000000000
       858       286  TIP3      H2            -21.2910284125      -35.5218199386       -8.0701516866  W2        286             0.0000000000
       859       287  TIP3      OH2           -10.4048584125      -32.5136299386        1.6554183134  W2        287             0.0000000000
       860       287  TIP3      H1            -10.0813784125      -33.1446599386        1.0124683134  W2        287             0.0000000000
       861       287  TIP3      H2            -10.8449284125      -33.0484099386        2.3161583134  W2        287             0.0000000000
       862       288  TIP3      OH2           -13.6275684125      -36.5860799386       -3.5604616866  W2        288             0.0000000000
       863       288  TIP3      H1            -14.5384584125      -36.5293999386       -3.2718616866  W2        288             0.0000000000
       864       288  TIP3      H2            -13.1222784125      -36.6465299386       -2.7497416866  W2        288             0.0000000000
       865       289  TIP3      OH2           -18.7992284125      -34.9574499386       -4.7337016866  W2        289             0.0000000000
       866       289  TIP3      H1            -19.6884284125      -34.8578999386       -5.0737416866  W2        289             0.0000000000
       867       289  TIP3      H2            -18.5027384125      -35.7991499386       -5.0799116866  W2        289             0.0000000000
       868       290  TIP3      OH2           -15.1460484125      -34.9571899386       -7.0772416866  W2        290             0.0000000000
       869       290  TIP3      H1            -14.2144984125      -34.8281899386       -6.8989316866  W2        290             0.0000000000
       870       290  TIP3      H2            -15.3610184125      -34.2877599386       -7.7267716866  W2        290             0.0000000000
       871       291  TIP3      OH2            -9.2223784125      -37.3514499386       -0.2962816866  W2        291             0.0000000000
       872       291  TIP3      H1             -9.8992184125      -37.2201399386        0.3676883134  W2        291             0.0000000000
       873       291  TIP3      H2             -9.7078884125      -37.5064999386       -1.1065116866  W2        291             0.0000000000
       874       292  TIP3      OH2           -16.4720284125      -33.7629699386       -9.5106316866  W2        292             0.0000000000
       875       292  TIP3      H1            -17.0145184125      -34.1425899386      -10.2018716866  W2        292             0.0000000000
       876       292  TIP3      H2            -15.6385384125      -33.5684999386       -9.9392216866  W2        292             0.0000000000
       877       293  TIP3      OH2            -5.9348684125      -21.6799099386        5.9804783134  W2        293             0.0000000000
       878       293  TIP3      H1             -5.7349984125      -21.2557199386        5.1460083134  W2        293             0.0000000000
       879       293  TIP3      H2             -5.2794984125      -21.3360899386        6.5875183134  W2        293             0.0000000000
       880       294  TIP3      OH2           -18.3368884125      -29.2057799386        5.5885283134  W2        294             0.0000000000
       881       294  TIP3      H1            -17.6046484125      -28.9511899386        6.1499783134  W2        294             0.0000000000
       882       294  TIP3      H2            -19.1170184125      -29.0012399386        6.1040683134  W2        294             0.0000000000
       883       295  TIP3      OH2           -12.3075984125      -33.7987799386       -1.6735016866  W2        295             0.0000000000
       884       295  TIP3      H1            -11.7432584125      -34.3451199386       -2.2205416866  W2        295             0.0000000000
       885       295  TIP3      H2            -12.4552584125      -34.3205899386       -0.8847416866  W2        295             0.0000000000
       886       296  TIP3      OH2           -17.3056284125      -37.6621699386       -5.2550216866  W2        296             0.0000000000
       887       296  TIP3      H1            -17.6226784125      -38.5646399386       -5.2904816866  W2        296             0.0000000000
       888       296  TIP3      H2            -16.5242184125      -37.6604299386       -5.8078616866  W2        296             0.0000000000
       889       297  TIP3      OH2           -13.6810084125      -35.4101699386        0.7405383134  W2        297             0.0000000000
       890       297  TIP3      H1            -14.5164784125      -34.9562199386        0.8507783134  W2        297             0.0000000000
       891       297  TIP3      H2            -13.1569484125      -35.1343199386        1.4925283134  W2        297             0.0000000000
       892       298  TIP3      OH2           -13.1367484125      -29.1973999386       -7.5748216866  W2        298             0.0000000000
       893       298  TIP3      H1            -13.8816484125      -29.7048699386       -7.8970316866  W2        298             0.0000000000
       894       298  TIP3      H2            -13.2710284125      -29.1485999386       -6.6283416866  W2        298             0.0000000000
       895       299  TIP3      OH2            -5.9868584125      -30.0645799386        1.2119383134  W2        299             0.0000000000
       896       299  TIP3      H1             -5.3449784125      -29.6079499386        0.6681583134  W2        299             0.0000000000
       897       299  TIP3      H2             -6.8171684125      -29.9513399386        0.7493483134  W2        299             0.0000000000
       898       300  TIP3      OH2            -9.2390684125      -36.3834099386       -9.3755616866  W2        300             0.0000000000
       899       300  TIP3      H1            -10.1776484125      -36.2718499386       -9.5266816866  W2        300             0.0000000000
       900       300  TIP3      H2             -8.9418584125      -35.5267199386       -9.0689916866  W2        300             0.0000000000
       901       301  TIP3      OH2           -11.6175384125      -29.0130699386        3.6620883134  W2        301             0.0000000000
       902       301  TIP3      H1            -11.9629284125      -29.3948299386        4.4690483134  W2        301             0.0000000000
       903       301  TIP3      H2            -11.8175284125      -28.0797099386        3.7333783134  W2        301             0.0000000000
       904       302  TIP3      OH2            -8.5207184125      -34.5161399386       -7.7148216866  W2        302             0.0000000000
       905       302  TIP3      H1             -7.6288184125      -34.6536399386       -7.3957016866  W2        302             0.0000000000
       906       302  TIP3      H2             -8.4643584125      -33.7255299386       -8.2514716866  W2        302             0.0000000000
       907       303  TIP3      OH2           -18.0119184125      -29.9023999386       -1.8050316866  W2        303             0.0000000000
       908       303  TIP3      H1            -17.2671984125      -29.9048299386       -2.4063816866  W2        303             0.0000000000
       909       303  TIP3      H2            -17.9342584125      -30.7260199386       -1.3235216866  W2        303             0.0000000000
       910       304  TIP3      OH2           -11.0113384125      -27.7389699386       -8.5493616866  W2        304             0.0000000000
       911       304  TIP3      H1            -11.3064984125      -26.9121799386       -8.1678816866  W2        304             0.0000000000
       912       304  TIP3      H2            -11.7143384125      -28.3582799386       -8.3532216866  W2        304             0.0000000000
       913       305  TIP3      OH2           -21.0039484125      -31.4417099386        3.5098183134  W2        305             0.0000000000
       914       305  TIP3      H1            -20.7810884125      -31.8597499386        4.3415683134  W2        305             0.0000000000
       915       305  TIP3      H2            -21.6059384125      -32.0542099386        3.0870983134  W2        305             0.0000000000
       916       306  TIP3      OH2           -13.9874584125      -31.9247199386        5.7227883134  W2        306             0.0000000000
       917       306  TIP3      H1            -14.2833784125      -32.0904199386        4.8276983134  W2        306             0.0000000000
       918       306  TIP3      H2            -13.0559384125      -32.1446899386        5.7121783134  W2        306             0.0000000000
       919       307  TIP3      OH2            -9.3671784125      -26.5515199386        3.6125883134  W2        307             0.0000000000
       920       307  TIP3      H1            -10.2677484125      -26.3682599386        3.3449783134  W2        307             0.0000000000
       921       307  TIP3      H2             -9.3330684125      -26.2925899386        4.5334683134  W2        307             0.0000000000
       922       308  TIP3      OH2            -3.6358484125      -34.3067299386       -8.0201516866  W2        308             0.0000000000
       923       308  TIP3      H1             -4.1902184125      -34.7029299386       -8.6924016866  W2        308             0.0000000000
       924       308  TIP3      H2             -3.5354884125      -33.3962099386       -8.2978216866  W2        308             0.0000000000
       925       309  TIP3      OH2            -3.6726484125      -28.5065599386        4.8169983134  W2        309             0.0000000000
       926       309  TIP3      H1             -4.5237984125      -28.2681799386        4.4496383134  W2        309             0.0000000000
       927       309  TIP3      H2             -3.0823084125      -28.5232399386        4.0637083134  W2        309             0.0000000000
       928       310  TIP3      OH2            -5.3406784125      -25.5206899386       -7.5549416866  W2        310             0.0000000000
       929       310  TIP3      H1             -5.7135684125      -26.3463099386       -7.2458816866  W2        310             0.0000000000
       930       310  TIP3      H2             -5.0633284125      -25.7037499386       -8.4526016866  W2        310             0.0000000000
       931       311  TIP3      OH2            -8.1802884125      -30.7127399386       -0.5337516866  W2        311             0.0000000000
       932       311  TIP3      H1             -9.1085984125      -30.9445499386       -0.5608216866  W2        311             0.0000000000
       933       311  TIP3      H2             -7.7291784125      -31.4897599386       -0.8638716866  W2        311             0.0000000000
       934       312  TIP3      OH2           -15.6369784125      -26.3845799386       -4.4008816866  W2        312             0.0000000000
       935       312  TIP3      H1            -15.1097584125      -25.6111399386       -4.6010016866  W2        312             0.0000000000
       936       312  TIP3      H2            -16.5171284125      -26.1596599386       -4.7024816866  W2        312             0.0000000000
       937       313  TIP3      OH2           -19.8822084125      -31.5221699386       -9.8136416866  W2        313             0.0000000000
       938       313  TIP3      H1            -19.2662184125      -30.8954499386       -9.4341616866  W2        313             0.0000000000
       939       313  TIP3      H2            -20.7439484125      -31.2061899386       -9.5419916866  W2        313             0.0000000000
       940       314  TIP3      OH2           -14.2097484125      -28.7215899386       -4.8244516866  W2        314             0.0000000000
       941       314  TIP3      H1            -14.4507484125      -27.7961499386       -4.7829216866  W2        314             0.0000000000
       942       314  TIP3      H2            -14.9503884125      -29.1804599386       -4.4280616866  W2        314             0.0000000000
       943       315  TIP3      OH2           -13.6950884125      -24.5722299386        1.4906583134  W2        315             0.0000000000
       944       315  TIP3      H1            -13.3326184125      -23.7176699386        1.2570983134  W2        315             0.0000000000
       945       315  TIP3      H2            -13.1635684125      -24.8640699386        2.2312883134  W2        315             0.0000000000
       946       316  TIP3      OH2           -15.5266684125      -23.6998299386       -5.2792316866  W2        316             0.0000000000
       947       316  TIP3      H1            -16.4766184125      -23.5940899386       -5.2279016866  W2        316             0.0000000000
       948       316  TIP3      H2            -15.1748584125      -22.8790899386       -4.9344816866  W2        316             0.0000000000
       949       317  TIP3      OH2           -10.1510084125      -28.4731599386        1.1912183134  W2        317             0.0000000000
       950       317  TIP3      H1            -10.5768784125      -28.7009899386        2.0176183134  W2        317             0.0000000000
       951       317  TIP3      H2             -9.5704284125      -29.2119799386        1.0087483134  W2        317             0.0000000000
       952       318  TIP3      OH2            -7.9481184125      -27.5441099386       -9.7348816866  W2        318             0.0000000000
       953       318  TIP3      H1             -7.5948084125      -27.9241299386       -8.9305316866  W2        318             0.0000000000
       954       318  TIP3      H2             -8.8967684125      -27.6376299386       -9.6479516866  W2        318             0.0000000000
       955       319  TIP3      OH2            -7.4925884125      -23.9212099386        3.6606983134  W2        319             0.0000000000
       956       319  TIP3      H1             -8.0942684125      -24.4769199386        3.1653283134  W2        319             0.0000000000
       957       319  TIP3      H2             -7.2112184125      -23.2542299386        3.0344383134  W2        319             0.0000000000
       958       320  TIP3      OH2            -3.4446784125      -23.0648599386       -9.5338616866  W2        320             0.0000000000
       959       320  TIP3      H1             -2.7008884125      -22.4788099386       -9.6737016866  W2        320             0.0000000000
       960       320  TIP3      H2             -4.1388684125      -22.4962799386       -9.2006216866  W2        320             0.0000000000
       961       321  TIP3      OH2           -19.3699984125      -36.6884399386        3.0679583134  W2        321             0.0000000000
       962       321  TIP3      H1            -20.2627684125      -36.3498999386        3.0003583134  W2        321             0.0000000000
       963       321  TIP3      H2            -19.4687184125      -37.5438299386        3.4860383134  W2        321             0.0000000000
       964       322  TIP3      OH2            -7.0821884125      -28.8719099386       -7.5080916866  W2        322             0.0000000000
       965       322  TIP3      H1             -7.3594284125      -29.5999799386       -6.9519816866  W2        322             0.0000000000
       966       322  TIP3      H2             -6.1548884125      -28.7527099386       -7.3028316866  W2        322             0.0000000000
       967       323  TIP3      OH2           -19.7187984125      -24.8839999386        1.5028983134  W2        323             0.0000000000
       968       323  TIP3      H1            -19.5017684125      -25.8157599386        1.4718683134  W2        323             0.0000000000
       969       323  TIP3      H2            -19.4724484125      -24.6094999386        2.3861783134  W2        323             0.0000000000
       970       324  TIP3      OH2           -13.8573384125      -26.4324999386      -11.2878816866  W2        324             0.0000000000
       971       324  TIP3      H1            -13.6183584125      -27.1806899386      -11.8349916866  W2        324             0.0000000000
       972       324  TIP3      H2            -14.1262084125      -26.8203299386      -10.4551016866  W2        324             0.0000000000
       973       325  TIP3      OH2           -14.9202784125      -26.8621199386       -8.8316216866  W2        325             0.0000000000
       974       325  TIP3      H1            -14.7734784125      -27.3821399386       -8.0415316866  W2        325             0.0000000000
       975       325  TIP3      H2            -14.9231084125      -25.9553599386       -8.5250316866  W2        325             0.0000000000
       976       326  TIP3      OH2           -18.4671684125      -29.6097899386       -8.3210816866  W2        326             0.0000000000
       977       326  TIP3      H1            -19.1532384125      -29.2575399386       -7.7541116866  W2        326             0.0000000000
       978       326  TIP3      H2            -17.9443784125      -28.8468299386       -8.5676516866  W2        326             0.0000000000
       979       327  TIP3      OH2           -10.6356584125      -36.9474099386        1.9578183134  W2        327             0.0000000000
       980       327  TIP3      H1             -9.9368684125      -36.8735399386        2.6077883134  W2        327             0.0000000000
       981       327  TIP3      H2            -11.0165184125      -37.8119099386        2.1121083134  W2        327             0.0000000000
       982       328  TIP3      OH2            -9.8511684125      -37.2952399386       -6.9449516866  W2        328             0.0000000000
       983       328  TIP3      H1             -9.6313384125      -36.8236999386       -7.7484116866  W2        328             0.0000000000
       984       328  TIP3      H2             -9.2927684125      -36.9009799386       -6.2748916866  W2        328             0.0000000000
       985       329  TIP3      OH2           -12.1825584125      -25.1647599386       -8.0822016866  W2        329             0.0000000000
       986       329  TIP3      H1            -12.9989484125      -24.6677899386       -8.0297716866  W2        329             0.0000000000
       987       329  TIP3      H2            -11.6529284125      -24.6894099386       -8.7223216866  W2        329             0.0000000000
       988       330  TIP3      OH2           -12.6511784125      -35.5673599386       -6.1101116866  W2        330             0.0000000000
       989       330  TIP3      H1            -11.8389184125      -35.0630399386       -6.0639416866  W2        330             0.0000000000
       990       330  TIP3      H2            -12.8958784125      -35.7123899386       -5.1961516866  W2        330             0.0000000000
       991       331  TIP3      OH2           -12.1155384125      -34.5810899386        3.0745483134  W2        331             0.0000000000
       992       331  TIP3      H1            -11.9965084125      -34.0075499386        3.8315883134  W2        331             0.0000000000
       993       331  TIP3      H2            -11.4600784125      -35.2691499386        3.1893283134  W2        331             0.0000000000
       994       332  TIP3      OH2           -11.7675084125      -38.4860599386       -5.1720016866  W2        332             0.0000000000
       995       332  TIP3      H1            -12.1141584125      -37.8689999386       -4.5275716866  W2        332             0.0000000000
       996       332  TIP3      H2            -11.1088184125      -37.9854899386       -5.6534516866  W2        332             0.0000000000
       997       333  TIP3      OH2           -14.8442484125      -24.1210399386       -8.1005116866  W2        333             0.0000000000
       998       333  TIP3      H1            -14.6833784125      -23.3212899386       -8.6012516866  W2        333             0.0000000000
       999       333  TIP3      H2            -15.0414684125      -23.8144399386       -7.2154516866  W2        333             0.0000000000
      1000       334  TIP3      OH2           -16.1098084125      -37.4231199386       -8.4847516866  W2        334             0.0000000000
      1001       334  TIP3      H1            -16.1933284125      -36.5348099386       -8.1381116866  W2        334             0.0000000000
      1002       334  TIP3      H2            -15.2197784125      -37.6884499386       -8.2530716866  W2        334             0.0000000000
      1003       335  TIP3      OH2            -5.9109584125      -36.6740599386        3.9095183134  W2        335             0.0000000000
      1004       335  TIP3      H1             -6.8273784125      -36.4118899386        3.8218883134  W2        335             0.0000000000
      1005       335  TIP3      H2             -5.5754584125      -36.6771599386        3.0130483134  W2        335             0.0000000000
      1006       336  TIP3      OH2            -7.3088584125      -32.9239599386       -1.9947516866  W2        336             0.0000000000
      1007       336  TIP3      H1             -8.1064184125      -33.3389399386       -2.3232516866  W2        336             0.0000000000
      1008       336  TIP3      H2             -6.8637484125      -33.6145899386       -1.5037016866  W2        336             0.0000000000
      1009       337  TIP3      OH2           -17.8512784125      -26.9958999386       -9.4243016866  W2        337             0.0000000000
      1010       337  TIP3      H1            -17.2591284125      -26.2964199386       -9.1480616866  W2        337             0.0000000000
      1011       337  TIP3      H2            -17.3919784125      -27.4289499386      -10.1438416866  W2        337             0.0000000000
      1012       338  TIP3      OH2           -19.5353584125      -34.3315999386      -10.3083616866  W2        338             0.0000000000
      1013       338  TIP3      H1            -19.5800984125      -33.3922899386      -10.1296616866  W2        338             0.0000000000
      1014       338  TIP3      H2            -20.4230384125      -34.5671099386      -10.5781516866  W2        338             0.0000000000
      1015       339  TIP3      OH2            -6.2223984125      -23.6677099386       -0.3724016866  W2        339             0.0000000000
      1016       339  TIP3      H1             -6.3779684125      -22.9892699386       -1.0294716866  W2        339             0.0000000000
      1017       339  TIP3      H2             -5.2897584125      -23.5957799386       -0.1693416866  W2        339             0.0000000000
      1018       340  TIP3      OH2           -18.7271584125      -39.5499399386       -1.6352616866  W2        340             0.0000000000
      1019       340  TIP3      H1            -18.9561784125      -39.4906899386       -2.5627616866  W2        340             0.0000000000
      1020       340  TIP3      H2            -19.1698184125      -40.3413899386       -1.3288516866  W2        340             0.0000000000
      1021       341  TIP3      OH2           -19.7968284125      -25.6092299386       -5.4746816866  W2        341             0.0000000000
      1022       341  TIP3      H1            -20.6289684125      -25.1369599386       -5.4475416866  W2        341             0.0000000000
      1023       341  TIP3      H2            -19.2509984125      -25.0994699386       -6.0733716866  W2        341             0.0000000000
      1024       342  TIP3      OH2           -20.5084584125      -22.9968599386        5.8551183134  W2        342             0.0000000000
      1025       342  TIP3      H1            -19.9682384125      -23.2134599386        6.6150383134  W2        342             0.0000000000
      1026       342  TIP3      H2            -20.9896584125      -23.8022599386        5.6653683134  W2        342             0.0000000000
      1027       343  TIP3      OH2           -15.9111184125      -24.0774199386        7.4755383134  W2        343             0.0000000000
      1028       343  TIP3      H1            -15.1433984125      -24.5363399386        7.8164583134  W2        343             0.0000000000
      1029       343  TIP3      H2            -15.9324984125      -24.3034399386        6.5456583134  W2        343             0.0000000000
      1030       344  TIP3      OH2           -11.8191584125      -24.5693599386      -11.1492816866  W2        344             0.0000000000
      1031       344  TIP3      H1            -12.4630584125      -25.2004999386      -10.8279116866  W2        344             0.0000000000
      1032       344  TIP3      H2            -11.0573284125      -25.1005599386      -11.3809316866  W2        344             0.0000000000
      1033       345  TIP3      OH2            -9.3342484125      -25.6973099386        6.2046883134  W2        345             0.0000000000
      1034       345  TIP3      H1             -9.6852984125      -26.5540099386        6.4477283134  W2        345             0.0000000000
      1035       345  TIP3      H2             -8.6079284125      -25.5546399386        6.8115883134  W2        345             0.0000000000
      1036       346  TIP3      OH2            -7.2148684125      -24.7523699386      -10.9154816866  W2        346             0.0000000000
      1037       346  TIP3      H1             -6.9318284125      -25.5468499386      -10.4627916866  W2        346             0.0000000000
      1038       346  TIP3      H2             -6.4750784125      -24.5192699386      -11.4763716866  W2        346             0.0000000000
      1039       347  TIP3      OH2           -20.6015084125      -29.1864499386        6.8095483134  W2        347             0.0000000000
      1040       347  TIP3      H1            -20.4574584125      -30.0883799386        6.5232183134  W2        347             0.0000000000
      1041       347  TIP3      H2            -21.3737684125      -28.9002399386        6.3217783134  W2        347             0.0000000000
      1042       348  TIP3      OH2           -16.2601384125      -28.8428799386      -11.0579916866  W2        348             0.0000000000
      1043       348  TIP3      H1            -16.1957284125      -29.6369199386      -10.5273516866  W2        348             0.0000000000
      1044       348  TIP3      H2            -15.6072184125      -28.9615999386      -11.7477916866  W2        348             0.0000000000
      1045       349  TIP3      OH2           -13.9458984125      -29.2166399386        6.2421883134  W2        349             0.0000000000
      1046       349  TIP3      H1            -14.2745184125      -28.9458299386        5.3849283134  W2        349             0.0000000000
      1047       349  TIP3      H2            -13.7940784125      -30.1576599386        6.1546883134  W2        349             0.0000000000
      1048       350  TIP3      OH2           -10.9077984125      -27.7957099386      -11.3221916866  W2        350             0.0000000000
      1049       350  TIP3      H1            -11.1763884125      -27.6154999386      -10.4213016866  W2        350             0.0000000000
      1050       350  TIP3      H2            -11.1142384125      -28.7210899386      -11.4536116866  W2        350             0.0000000000
      1051       351  TIP3      OH2            -8.2113784125      -29.3009099386        3.6254183134  W2        351             0.0000000000
      1052       351  TIP3      H1             -7.4658984125      -28.7125399386        3.5058183134  W2        351             0.0000000000
      1053       351  TIP3      H2             -8.9686984125      -28.7189399386        3.6887283134  W2        351             0.0000000000
      1054       352  TIP3      OH2           -19.7688584125      -31.9861199386        6.2294783134  W2        352             0.0000000000
      1055       352  TIP3      H1            -19.3607384125      -32.8434599386        6.1085383134  W2        352             0.0000000000
      1056       352  TIP3      H2            -20.0290984125      -31.9719899386        7.1505083134  W2        352             0.0000000000
      1057       353  TIP3      OH2           -15.1107584125      -30.8702599386       -8.7521916866  W2        353             0.0000000000
      1058       353  TIP3      H1            -15.5705584125      -31.3544299386       -8.0663416866  W2        353             0.0000000000
      1059       353  TIP3      H2            -14.8558884125      -31.5387199386       -9.3881416866  W2        353             0.0000000000
      1060       354  TIP3      OH2           -15.8218284125      -32.9775499386        3.6037683134  W2        354             0.0000000000
      1061       354  TIP3      H1            -16.4402184125      -32.3028899386        3.8842383134  W2        354             0.0000000000
      1062       354  TIP3      H2            -15.4777084125      -32.6561599386        2.7703883134  W2        354             0.0000000000
      1063       355  TIP3      OH2           -14.0397184125      -32.6270799386      -10.4898716866  W2        355             0.0000000000
      1064       355  TIP3      H1            -14.2202184125      -32.7819599386      -11.4170416866  W2        355             0.0000000000
      1065       355  TIP3      H2            -13.0896684125      -32.5192099386      -10.4450816866  W2        355             0.0000000000
      1066       356  TIP3      OH2           -10.8020084125      -30.5060199386        6.8812483134  W2        356             0.0000000000
      1067       356  TIP3      H1             -9.8488884125      -30.4221099386        6.8538483134  W2        356             0.0000000000
      1068       356  TIP3      H2            -10.9625484125      -31.2178399386        7.5007383134  W2        356             0.0000000000
      1069       357  TIP3      OH2            -4.6498884125      -30.2726599386      -11.0440616866  W2        357             0.0000000000
      1070       357  TIP3      H1             -4.9234084125      -30.6971099386      -11.8572316866  W2        357             0.0000000000
      1071       357  TIP3      H2             -4.6104784125      -29.3412099386      -11.2610216866  W2        357             0.0000000000
      1072       358  TIP3      OH2           -15.4824584125      -35.6224699386        4.6860783134  W2        358             0.0000000000
      1073       358  TIP3      H1            -15.3323684125      -36.3513399386        4.0840483134  W2        358             0.0000000000
      1074       358  TIP3      H2            -15.4802184125      -34.8452999386        4.1272983134  W2        358             0.0000000000
      1075       359  TIP3      OH2           -15.0698884125      -37.2528899386        2.1788183134  W2        359             0.0000000000
      1076       359  TIP3      H1            -14.5341384125      -36.8012199386        1.5267483134  W2        359             0.0000000000
      1077       359  TIP3      H2            -15.9219284125      -37.3609099386        1.7562283134  W2        359             0.0000000000
      1078       360  TIP3      OH2           -13.4880484125      -31.8132699386        2.4183383134  W2        360             0.0000000000
      1079       360  TIP3      H1            -12.7375684125      -31.9695199386        1.8451183134  W2        360             0.0000000000
      1080       360  TIP3      H2            -13.8272184125      -30.9616099386        2.1428883134  W2        360             0.0000000000
      1081       361  TIP3      OH2            -9.0724284125      -33.9980899386        7.4468683134  W2        361             0.0000000000
      1082       361  TIP3      H1             -8.8802984125      -34.9291499386        7.3353183134  W2        361             0.0000000000
      1083       361  TIP3      H2             -8.2147984125      -33.5731399386        7.4364083134  W2        361             0.0000000000
      1084       362  TIP3      OH2            -7.7557084125      -31.2095699386        5.5241383134  W2        362             0.0000000000
      1085       362  TIP3      H1             -8.0372084125      -30.5001099386        4.9465183134  W2        362             0.0000000000
      1086       362  TIP3      H2             -6.8132784125      -31.2822699386        5.3732583134  W2        362             0.0000000000
      1087       363  TIP3      OH2           -17.0038284125      -34.4241199386        6.5976383134  W2        363             0.0000000000
      1088       363  TIP3      H1            -17.7709284125      -34.9566399386        6.3873983134  W2        363             0.0000000000
      1089       363  TIP3      H2            -16.3249284125      -34.7340799386        5.9982683134  W2        363             0.0000000000
      1090       364  TIP3      OH2           -14.2643384125      -39.7963199386        2.6101783134  W2        364             0.0000000000
      1091       364  TIP3      H1            -14.3623784125      -38.8499999386        2.5047983134  W2        364             0.0000000000
      1092       364  TIP3      H2            -15.0067184125      -40.1689399386        2.1345283134  W2        364             0.0000000000
      1093       365  TIP3      OH2           -13.0002884125      -35.4747799386        6.1740183134  W2        365             0.0000000000
      1094       365  TIP3      H1            -13.2357484125      -35.6941099386        7.0755083134  W2        365             0.0000000000
      1095       365  TIP3      H2            -13.7835984125      -35.6816599386        5.6642683134  W2        365             0.0000000000
      1096       366  TIP3      OH2           -10.2846284125      -36.3474299386        5.2493683134  W2        366             0.0000000000
      1097       366  TIP3      H1            -11.2320884125      -36.3154599386        5.3816983134  W2        366             0.0000000000
      1098       366  TIP3      H2             -9.9719584125      -36.9727199386        5.9031883134  W2        366             0.0000000000
      1099       367  TIP3      OH2            -8.6504784125      -37.7133199386        7.2545583134  W2        367             0.0000000000
      1100       367  TIP3      H1             -8.7472984125      -38.6655899386        7.2487483134  W2        367             0.0000000000
      1101       367  TIP3      H2             -8.9721684125      -37.4446399386        8.1151083134  W2        367             0.0000000000
      1102       368  TIP3      OH2           -18.8235484125      -36.5037399386        6.3021083134  W2        368             0.0000000000
      1103       368  TIP3      H1            -18.6118084125      -37.2101299386        5.6918583134  W2        368             0.0000000000
      1104       368  TIP3      H2            -18.9347984125      -36.9411399386        7.1462283134  W2        368             0.0000000000
      1105       369  TIP3      OH2           -14.0425284125      -40.5025799386        5.2814583134  W2        369             0.0000000000
      1106       369  TIP3      H1            -13.3306884125      -41.1423599386        5.2673683134  W2        369             0.0000000000
      1107       369  TIP3      H2            -14.1434884125      -40.2357499386        4.3677683134  W2        369             0.0000000000
      1108       370  TIP3      OH2           -13.6887784125      -38.8197399386        7.3350883134  W2        370             0.0000000000
      1109       370  TIP3      H1            -13.8205584125      -39.2953599386        6.5149383134  W2        370             0.0000000000
      1110       370  TIP3      H2            -14.2880384125      -38.0753799386        7.2797983134  W2        370             0.0000000000
      1111       371  TIP3      OH2           -14.1425484125      -21.9367099386       -9.4885116866  W2        371             0.0000000000
      1112       371  TIP3      H1            -13.2094784125      -21.7788399386       -9.3446716866  W2        371             0.0000000000
      1113       371  TIP3      H2            -14.4066684125      -21.2614099386      -10.1133616866  W2        371             0.0000000000
      1114       372  TIP3      OH2           -20.5740584125      -27.3003299386      -10.0057016866  W2        372             0.0000000000
      1115       372  TIP3      H1            -19.6601384125      -27.2214399386       -9.7323116866  W2        372             0.0000000000
      1116       372  TIP3      H2            -20.5667484125      -27.9873699386      -10.6721416866  W2        372             0.0000000000
      1117       373  TIP3      OH2           -21.9249984125      -21.9074799386       -4.9283116866  W2        373             0.0000000000
      1118       373  TIP3      H1            -22.5722884125      -22.3693099386       -5.4611916866  W2        373             0.0000000000
      1119       373  TIP3      H2            -21.5705384125      -22.5791499386       -4.3456916866  W2        373             0.0000000000
      1120       374  TIP3      OH2           -21.0550784125      -23.8267799386       -3.1236916866  W2        374             0.0000000000
      1121       374  TIP3      H1            -21.3893984125      -24.7070499386       -2.9516716866  W2        374             0.0000000000
      1122       374  TIP3      H2            -20.8328384125      -23.4812799386       -2.2591316866  W2        374             0.0000000000
      1123       375  TIP3      OH2            -3.5065984125      -23.0171399386       -0.1432116866  W2        375             0.0000000000
      1124       375  TIP3      H1             -3.5279284125      -22.8322999386        0.7957283134  W2        375             0.0000000000
      1125       375  TIP3      H2             -2.8159784125      -22.4487399386       -0.4840716866  W2        375             0.0000000000
      1126       376  TIP3      OH2            -3.9433084125      -23.4500299386        2.7786983134  W2        376             0.0000000000
      1127       376  TIP3      H1             -4.4304384125      -24.1856199386        2.4074383134  W2        376             0.0000000000
      1128       376  TIP3      H2             -3.3940384125      -23.8436399386        3.4566383134  W2        376             0.0000000000
      1129       377  TIP3      OH2            -5.4925784125      -27.6602199386        7.4167283134  W2        377             0.0000000000
      1130       377  TIP3      H1             -6.3584684125      -27.7652499386        7.8109583134  W2        377             0.0000000000
      1131       377  TIP3      H2             -5.1159884125      -26.9018899386        7.8631983134  W2        377             0.0000000000
      1132       378  TIP3      OH2            -4.1916084125      -29.4038499386       -7.0690216866  W2        378             0.0000000000
      1133       378  TIP3      H1             -3.3414684125      -28.9827599386       -6.9418616866  W2        378             0.0000000000
      1134       378  TIP3      H2             -4.1860984125      -30.1438399386       -6.4618816866  W2        378             0.0000000000
      1135       379  TIP3      OH2            -3.7970484125      -31.3501099386       -5.2454516866  W2        379             0.0000000000
      1136       379  TIP3      H1             -4.5235884125      -31.8298499386       -4.8476916866  W2        379             0.0000000000
      1137       379  TIP3      H2             -3.2157184125      -31.1446399386       -4.5132916866  W2        379             0.0000000000
      1138       380  TIP3      OH2            -4.0379284125      -28.5653599386       -0.2976916866  W2        380             0.0000000000
      1139       380  TIP3      H1             -3.2045084125      -28.9433599386       -0.5783316866  W2        380             0.0000000000
      1140       380  TIP3      H2             -3.9258984125      -27.6222399386       -0.4167816866  W2        380             0.0000000000
      1141       381  TIP3      OH2            -5.5516984125      -25.6876099386        2.0091483134  W2        381             0.0000000000
      1142       381  TIP3      H1             -6.1991684125      -25.3624599386        2.6346683134  W2        381             0.0000000000
      1143       381  TIP3      H2             -6.0692984125      -26.1278399386        1.3349783134  W2        381             0.0000000000
      1144       382  TIP3      OH2            -3.5287384125      -31.4492599386       -8.8543216866  W2        382             0.0000000000
      1145       382  TIP3      H1             -4.0506284125      -31.0928499386       -9.5732316866  W2        382             0.0000000000
      1146       382  TIP3      H2             -3.5618184125      -30.7744799386       -8.1762316866  W2        382             0.0000000000
      1147       383  TIP3      OH2            -5.1798384125      -34.2096999386      -10.3036116866  W2        383             0.0000000000
      1148       383  TIP3      H1             -5.0833984125      -33.5429999386      -10.9836416866  W2        383             0.0000000000
      1149       383  TIP3      H2             -5.3198784125      -35.0250699386      -10.7850616866  W2        383             0.0000000000
      1150       384  TIP3      OH2            -6.0103684125      -32.8294599386       -4.6825816866  W2        384             0.0000000000
      1151       384  TIP3      H1             -6.1604884125      -33.7745999386       -4.7028016866  W2        384             0.0000000000
      1152       384  TIP3      H2             -6.3639184125      -32.5483199386       -3.8386716866  W2        384             0.0000000000
      1153       385  TIP3      OH2           -20.9751284125      -30.7512399386       -0.6722016866  W2        385             0.0000000000
      1154       385  TIP3      H1            -20.7908384125      -30.8330699386       -1.6079116866  W2        385             0.0000000000
      1155       385  TIP3      H2            -20.1258384125      -30.8755399386       -0.2485616866  W2        385             0.0000000000
      1156       386  TIP3      OH2            -5.1540784125      -30.8591299386        4.9562483134  W2        386             0.0000000000
      1157       386  TIP3      H1             -4.5713484125      -31.5938999386        5.1479683134  W2        386             0.0000000000
      1158       386  TIP3      H2             -4.5901484125      -30.0870999386        5.0028283134  W2        386             0.0000000000
      1159       387  TIP3      OH2            -3.6573684125      -32.9565499386        5.6407883134  W2        387             0.0000000000
      1160       387  TIP3      H1             -4.5206984125      -33.3353399386        5.4752583134  W2        387             0.0000000000
      1161       387  TIP3      H2             -3.0529984125      -33.6950699386        5.5663683134  W2        387             0.0000000000
      1162       388  TIP3      OH2            -5.9324584125      -36.8017199386      -11.1860616866  W2        388             0.0000000000
      1163       388  TIP3      H1             -5.3218784125      -37.1730399386      -10.5492416866  W2        388             0.0000000000
      1164       388  TIP3      H2             -6.7693084125      -37.2230299386      -10.9900616866  W2        388             0.0000000000
      1165       389  TIP3      OH2            -6.2998884125      -35.2468799386       -6.2200716866  W2        389             0.0000000000
      1166       389  TIP3      H1             -6.0201784125      -36.1538399386       -6.0959016866  W2        389             0.0000000000
      1167       389  TIP3      H2             -5.5407184125      -34.8127299386       -6.6091516866  W2        389             0.0000000000
      1168       390  TIP3      OH2            -5.6880584125      -34.6651399386       -0.7841816866  W2        390             0.0000000000
      1169       390  TIP3      H1             -4.7552584125      -34.4531499386       -0.8185816866  W2        390             0.0000000000
      1170       390  TIP3      H2             -5.9233084125      -34.5639299386        0.1381183134  W2        390             0.0000000000
      1171       391  TIP3      OH2            -5.6588684125      -33.9286099386        1.9917583134  W2        391             0.0000000000
      1172       391  TIP3      H1             -6.5017384125      -33.6605699386        2.3577383134  W2        391             0.0000000000
      1173       391  TIP3      H2             -5.2164384125      -33.1064199386        1.7808683134  W2        391             0.0000000000
      1174       392  TIP3      OH2           -21.3776484125      -35.4807399386        5.4686783134  W2        392             0.0000000000
      1175       392  TIP3      H1            -20.4581584125      -35.6029099386        5.7049883134  W2        392             0.0000000000
      1176       392  TIP3      H2            -21.8271984125      -36.2307699386        5.8580283134  W2        392             0.0000000000
      1177       393  TIP3      OH2            -3.3757084125      -39.9485899386        7.3452583134  W2        393             0.0000000000
      1178       393  TIP3      H1             -3.0260084125      -40.6022399386        6.7397283134  W2        393             0.0000000000
      1179       393  TIP3      H2             -3.2287584125      -39.1111799386        6.9055183134  W2        393             0.0000000000
      1180       394  TIP3      OH2            -5.6864084125      -37.9839499386       -6.1718716866  W2        394             0.0000000000
      1181       394  TIP3      H1             -5.5039084125      -38.4327999386       -5.3463716866  W2        394             0.0000000000
      1182       394  TIP3      H2             -6.2861184125      -38.5685099386       -6.6354116866  W2        394             0.0000000000
      1183       395  TIP3      OH2           -20.1563984125      -37.1685799386       -1.6400316866  W2        395             0.0000000000
      1184       395  TIP3      H1            -19.7112384125      -37.9603299386       -1.3380616866  W2        395             0.0000000000
      1185       395  TIP3      H2            -19.6900984125      -36.4520599386       -1.2094716866  W2        395             0.0000000000
      1186       396  TIP3      OH2           -21.8523684125      -34.1692799386       -0.5710116866  W2        396             0.0000000000
      1187       396  TIP3      H1            -21.3603884125      -34.3902299386       -1.3618116866  W2        396             0.0000000000
      1188       396  TIP3      H2            -21.4902784125      -33.3289399386       -0.2900616866  W2        396             0.0000000000
      1189       397  TIP3      OH2            -3.8559884125      -37.8391299386        5.6943883134  W2        397             0.0000000000
      1190       397  TIP3      H1             -4.7734184125      -37.5684199386        5.6587383134  W2        397             0.0000000000
      1191       397  TIP3      H2             -3.7330484125      -38.3742899386        4.9103583134  W2        397             0.0000000000
      1192       398  TIP3      OH2            -3.8197884125      -37.9161399386       -9.6438416866  W2        398             0.0000000000
      1193       398  TIP3      H1             -3.4075284125      -38.6375699386      -10.1190416866  W2        398             0.0000000000
      1194       398  TIP3      H2             -3.1381384125      -37.2466799386       -9.5854116866  W2        398             0.0000000000
      1195       399  TIP3      OH2           -21.5387184125      -37.9113699386       -6.5167716866  W2        399             0.0000000000
      1196       399  TIP3      H1            -22.4638784125      -37.7027099386       -6.6462216866  W2        399             0.0000000000
      1197       399  TIP3      H2            -21.0847284125      -37.4272899386       -7.2065416866  W2        399             0.0000000000
      1198       400  TIP3      OH2            -6.7679984125      -22.9271999386       -4.5710316866  W2        400             0.0000000000
      1199       400  TIP3      H1             -6.1157084125      -23.2749899386       -5.1791216866  W2        400             0.0000000000
      1200       400  TIP3      H2             -6.2576184125      -22.4388799386       -3.9250616866  W2        400             0.0000000000
      1201       401  TIP3      OH2           -21.5751784125      -39.1734699386        1.8274783134  W2        401             0.0000000000
      1202       401  TIP3      H1            -22.2401284125      -39.4194399386        2.4705683134  W2        401             0.0000000000
      1203       401  TIP3      H2            -22.0180484125      -38.5514299386        1.2502783134  W2        401             0.0000000000
      1204       402  TIP3      OH2           -19.3832484125      -25.9980599386        5.9720583134  W2        402             0.0000000000
      1205       402  TIP3      H1            -20.2039984125      -25.8234099386        5.5115283134  W2        402             0.0000000000
      1206       402  TIP3      H2            -19.6354684125      -26.0715899386        6.8924983134  W2        402             0.0000000000
      1207       403  TIP3      OH2           -16.4289584125      -25.0239399386        2.2304583134  W2        403             0.0000000000
      1208       403  TIP3      H1            -16.8538484125      -24.2140899386        1.9479183134  W2        403             0.0000000000
      1209       403  TIP3      H2            -15.5246784125      -24.9385299386        1.9284383134  W2        403             0.0000000000
      1210       404  TIP3      OH2           -12.1178184125      -23.6249399386        5.1898283134  W2        404             0.0000000000
      1211       404  TIP3      H1            -11.9330684125      -23.9583299386        6.0678583134  W2        404             0.0000000000
      1212       404  TIP3      H2            -11.2713684125      -23.3150799386        4.8677483134  W2        404             0.0000000000
      1213       405  TIP3      OH2            -9.7727784125      -22.3390499386        4.4339683134  W2        405             0.0000000000
      1214       405  TIP3      H1             -9.0958884125      -22.9718199386        4.1938883134  W2        405             0.0000000000
      1215       405  TIP3      H2             -9.4508984125      -21.9379999386        5.2412983134  W2        405             0.0000000000
      1216       406  TIP3      OH2            -4.8553984125      -39.7494999386        3.5134683134  W2        406             0.0000000000
      1217       406  TIP3      H1             -5.6680484125      -39.4244699386        3.1259383134  W2        406             0.0000000000
      1218       406  TIP3      H2             -4.6225484125      -40.5096499386        2.9803783134  W2        406             0.0000000000
      1219       407  TIP3      OH2           -19.0272884125      -21.7675499386        2.2779883134  W2        407             0.0000000000
      1220       407  TIP3      H1            -19.7476484125      -21.3274499386        1.8267583134  W2        407             0.0000000000
      1221       407  TIP3      H2            -19.3928884125      -22.0180799386        3.1263883134  W2        407             0.0000000000
      1222       408  TIP3      OH2           -16.5600284125      -22.1671599386        1.3077083134  W2        408             0.0000000000
      1223       408  TIP3      H1            -17.4248084125      -22.0953099386        1.7117183134  W2        408             0.0000000000
      1224       408  TIP3      H2            -16.6151284125      -21.6204299386        0.5239583134  W2        408             0.0000000000
      1225       409  TIP3      OH2           -11.8494684125      -22.2792699386        0.4833083134  W2        409             0.0000000000
      1226       409  TIP3      H1            -12.3060684125      -21.7502999386       -0.1708516866  W2        409             0.0000000000
      1227       409  TIP3      H2            -11.6866684125      -21.6761299386        1.2085383134  W2        409             0.0000000000
      1228       410  TIP3      OH2            -9.5218384125      -23.4013099386        1.4283383134  W2        410             0.0000000000
      1229       410  TIP3      H1            -10.4264684125      -23.2362899386        1.1625483134  W2        410             0.0000000000
      1230       410  TIP3      H2             -9.0929784125      -22.5480899386        1.3626783134  W2        410             0.0000000000
      1231       411  TIP3      OH2            -6.9176484125      -21.8313999386        1.7231183134  W2        411             0.0000000000
      1232       411  TIP3      H1             -7.0994484125      -20.9155099386        1.5126083134  W2        411             0.0000000000
      1233       411  TIP3      H2             -6.7408684125      -22.2416899386        0.8765783134  W2        411             0.0000000000
      1234       412  TIP3      OH2           -19.6124784125      -23.1442999386       -0.8118316866  W2        412             0.0000000000
      1235       412  TIP3      H1            -19.6308784125      -23.5697899386        0.0453983134  W2        412             0.0000000000
      1236       412  TIP3      H2            -18.8076884125      -23.4627999386       -1.2206116866  W2        412             0.0000000000
      1237       413  TIP3      OH2           -17.4711684125      -24.4344299386       -2.1568416866  W2        413             0.0000000000
      1238       413  TIP3      H1            -17.6900984125      -25.3506899386       -1.9872416866  W2        413             0.0000000000
      1239       413  TIP3      H2            -16.6469484125      -24.2943899386       -1.6907016866  W2        413             0.0000000000
      1240       414  TIP3      OH2           -14.9339184125      -23.9644999386       -1.3080416866  W2        414             0.0000000000
      1241       414  TIP3      H1            -14.7213484125      -24.8525999386       -1.5949516866  W2        414             0.0000000000
      1242       414  TIP3      H2            -14.8694084125      -23.9987299386       -0.3536416866  W2        414             0.0000000000
      1243       415  TIP3      OH2           -11.4255484125      -38.3004399386       -2.1637116866  W2        415             0.0000000000
      1244       415  TIP3      H1            -12.0998684125      -38.9298799386       -1.9081316866  W2        415             0.0000000000
      1245       415  TIP3      H2            -10.8616284125      -38.7845499386       -2.7669216866  W2        415             0.0000000000
      1246       416  TIP3      OH2            -6.2828284125      -40.1930399386       -2.0510016866  W2        416             0.0000000000
      1247       416  TIP3      H1             -5.6790684125      -39.6454999386       -2.5529016866  W2        416             0.0000000000
      1248       416  TIP3      H2             -7.1526284125      -39.8739999386       -2.2915916866  W2        416             0.0000000000
      1249       417  TIP3      OH2            -4.5557884125      -39.0541699386       -3.7179116866  W2        417             0.0000000000
      1250       417  TIP3      H1             -3.9440384125      -39.5685999386       -4.2445516866  W2        417             0.0000000000
      1251       417  TIP3      H2             -4.1734484125      -38.1769599386       -3.6944716866  W2        417             0.0000000000
      1252       418  TIP3      OH2           -19.0987984125      -39.6664099386       -4.3417216866  W2        418             0.0000000000
      1253       418  TIP3      H1            -19.8758184125      -39.9009199386       -4.8491316866  W2        418             0.0000000000
      1254       418  TIP3      H2            -18.5684384125      -40.4631999386       -4.3329216866  W2        418             0.0000000000
      1255       419  TIP3      OH2           -20.2624584125      -39.8685999386       -8.5381116866  W2        419             0.0000000000
      1256       419  TIP3      H1            -19.8233884125      -39.2575499386       -9.1297616866  W2        419             0.0000000000
      1257       419  TIP3      H2            -20.8962184125      -39.3301899386       -8.0641116866  W2        419             0.0000000000
      1258       420  TIP3      OH2           -14.5195384125      -39.7396999386       -4.5284116866  W2        420             0.0000000000
      1259       420  TIP3      H1            -13.6451984125      -39.3512699386       -4.5579816866  W2        420             0.0000000000
      1260       420  TIP3      H2            -14.6554584125      -39.9549199386       -3.6056916866  W2        420             0.0000000000
      1261       421  TIP3      OH2            -8.9626984125      -39.7097199386       -2.8792416866  W2        421             0.0000000000
      1262       421  TIP3      H1             -8.8865384125      -39.6145599386       -3.8286416866  W2        421             0.0000000000
      1263       421  TIP3      H2             -9.2377784125      -40.6174299386       -2.7503316866  W2        421             0.0000000000
      1264       422  TIP3      OH2            -7.6094384125      -39.6839399386       -7.1867416866  W2        422             0.0000000000
      1265       422  TIP3      H1             -8.3123284125      -39.0690199386       -7.3966016866  W2        422             0.0000000000
      1266       422  TIP3      H2             -8.0542984125      -40.5212699386       -7.0556516866  W2        422             0.0000000000
      1267       423  TIP3      OH2           -20.3615084125      -23.9203799386       -7.6406016866  W2        423             0.0000000000
      1268       423  TIP3      H1            -21.0465184125      -23.9584899386       -8.3080916866  W2        423             0.0000000000
      1269       423  TIP3      H2            -20.3577884125      -23.0076199386       -7.3523916866  W2        423             0.0000000000
      1270       424  TIP3      OH2           -18.4015484125      -37.9524499386      -10.0957016866  W2        424             0.0000000000
      1271       424  TIP3      H1            -17.9102084125      -38.5822099386      -10.6231516866  W2        424             0.0000000000
      1272       424  TIP3      H2            -17.7779184125      -37.6565099386       -9.4325816866  W2        424             0.0000000000
      1273       425  TIP3      OH2           -13.3755384125      -37.6592999386       -7.6386516866  W2        425             0.0000000000
      1274       425  TIP3      H1            -13.1974084125      -38.3059799386       -6.9557916866  W2        425             0.0000000000
      1275       425  TIP3      H2            -13.4289184125      -36.8255299386       -7.1715416866  W2        425             0.0000000000
      1276       426  TIP3      OH2           -11.4971584125      -22.7108899386       -9.2429816866  W2        426             0.0000000000
      1277       426  TIP3      H1            -10.6311384125      -22.3441499386       -9.4211616866  W2        426             0.0000000000
      1278       426  TIP3      H2            -11.7438784125      -23.1500899386      -10.0569016866  W2        426             0.0000000000
      1279       427  TIP3      OH2            -4.7881984125      -23.1478599386       -6.5638716866  W2        427             0.0000000000
      1280       427  TIP3      H1             -4.9824884125      -23.8956499386       -7.1289116866  W2        427             0.0000000000
      1281       427  TIP3      H2             -4.8271884125      -22.3898499386       -7.1470816866  W2        427             0.0000000000
      1282       428  TIP3      OH2           -19.1409984125      -39.1522199386        5.1758983134  W2        428             0.0000000000
      1283       428  TIP3      H1            -19.5071784125      -39.9179599386        5.6183683134  W2        428             0.0000000000
      1284       428  TIP3      H2            -18.2281484125      -39.1231999386        5.4624083134  W2        428             0.0000000000
      1285       429  TIP3      OH2           -17.1679184125      -39.8017799386        6.7116083134  W2        429             0.0000000000
      1286       429  TIP3      H1            -16.2695584125      -40.0757599386        6.5269483134  W2        429             0.0000000000
      1287       429  TIP3      H2            -17.5546084125      -40.5441799386        7.1758683134  W2        429             0.0000000000
      1288       430  TIP3      OH2           -18.5433884125      -23.0002999386      -10.6153916866  W2        430             0.0000000000
      1289       430  TIP3      H1            -18.8109284125      -22.7140099386       -9.7420816866  W2        430             0.0000000000
      1290       430  TIP3      H2            -17.7721284125      -23.5463799386      -10.4631416866  W2        430             0.0000000000
      1291       431  TIP3      OH2            -8.7466884125      -40.4692499386        6.8938883134  W2        431             0.0000000000
      1292       431  TIP3      H1             -8.6699684125      -40.8951799386        7.7476583134  W2        431             0.0000000000
      1293       431  TIP3      H2             -7.8530284125      -40.4557799386        6.5512383134  W2        431             0.0000000000
      1294       432  TIP3      OH2            -5.5705784125      -24.3966199386        5.5863083134  W2        432             0.0000000000
      1295       432  TIP3      H1             -6.3523884125      -24.5828199386        5.0663683134  W2        432             0.0000000000
      1296       432  TIP3      H2             -5.6425884125      -23.4671899386        5.8035583134  W2        432             0.0000000000
      1297       433  TIP3      OH2             8.8354615875      -30.5101799386       -4.3829716866  W2        433             0.0000000000
      1298       433  TIP3      H1              8.9245715875      -29.5663599386       -4.5152616866  W2        433             0.0000000000
      1299       433  TIP3      H2              8.1972215875      -30.7855399386       -5.0410316866  W2        433             0.0000000000
      1300       434  TIP3      OH2             7.7685915875      -31.2551099386       -0.9641516866  W2        434             0.0000000000
      1301       434  TIP3      H1              7.7303415875      -31.9014799386       -0.2591916866  W2        434             0.0000000000
      1302       434  TIP3      H2              7.4462415875      -31.7216699386       -1.7352816866  W2        434             0.0000000000
      1303       435  TIP3      OH2             0.1370915875      -31.6408999386        0.6288383134  W2        435             0.0000000000
      1304       435  TIP3      H1              0.1783015875      -32.2665699386        1.3520783134  W2        435             0.0000000000
      1305       435  TIP3      H2              0.8398615875      -31.0170399386        0.8108783134  W2        435             0.0000000000
      1306       436  TIP3      OH2            11.4746115875      -28.3160699386       -2.6626416866  W2        436             0.0000000000
      1307       436  TIP3      H1             11.0338815875      -29.0364699386       -2.2120816866  W2        436             0.0000000000
      1308       436  TIP3      H2             11.4615815875      -27.5953499386       -2.0328716866  W2        436             0.0000000000
      1309       437  TIP3      OH2             1.0604015875      -27.1910099386       -0.8362516866  W2        437             0.0000000000
      1310       437  TIP3      H1              0.6909215875      -27.9929599386       -1.2058216866  W2        437             0.0000000000
      1311       437  TIP3      H2              2.0015115875      -27.3595199386       -0.7899116866  W2        437             0.0000000000
      1312       438  TIP3      OH2            -2.3295484125      -33.5307499386       -5.4433716866  W2        438             0.0000000000
      1313       438  TIP3      H1             -2.7772084125      -32.6848799386       -5.4617216866  W2        438             0.0000000000
      1314       438  TIP3      H2             -2.8904284125      -34.1103299386       -5.9588616866  W2        438             0.0000000000
      1315       439  TIP3      OH2            -1.6189384125      -31.3687899386       -3.3175716866  W2        439             0.0000000000
      1316       439  TIP3      H1             -1.4055884125      -32.1386299386       -2.7902716866  W2        439             0.0000000000
      1317       439  TIP3      H2             -0.8811784125      -31.2791199386       -3.9208116866  W2        439             0.0000000000
      1318       440  TIP3      OH2             8.5861615875      -23.2118999386       -2.4506016866  W2        440             0.0000000000
      1319       440  TIP3      H1              9.2058015875      -23.8884299386       -2.7236816866  W2        440             0.0000000000
      1320       440  TIP3      H2              8.3779015875      -23.4298199386       -1.5421116866  W2        440             0.0000000000
      1321       441  TIP3      OH2             6.1580315875      -28.8229699386       -0.5580516866  W2        441             0.0000000000
      1322       441  TIP3      H1              6.4618215875      -29.5088299386       -1.1526416866  W2        441             0.0000000000
      1323       441  TIP3      H2              6.8794315875      -28.7040999386        0.0597483134  W2        441             0.0000000000
      1324       442  TIP3      OH2            14.8210115875      -37.2214399386        0.3025683134  W2        442             0.0000000000
      1325       442  TIP3      H1             14.8702315875      -36.6113199386        1.0384783134  W2        442             0.0000000000
      1326       442  TIP3      H2             15.2465215875      -36.7603499386       -0.4203216866  W2        442             0.0000000000
      1327       443  TIP3      OH2             9.2987315875      -34.4287299386       -0.2305716866  W2        443             0.0000000000
      1328       443  TIP3      H1              9.4413215875      -35.3750299386       -0.2104116866  W2        443             0.0000000000
      1329       443  TIP3      H2              9.1926315875      -34.2217499386       -1.1590816866  W2        443             0.0000000000
      1330       444  TIP3      OH2             2.4535615875      -36.3270899386       -2.9580916866  W2        444             0.0000000000
      1331       444  TIP3      H1              2.4966715875      -35.4672399386       -3.3764616866  W2        444             0.0000000000
      1332       444  TIP3      H2              1.9959715875      -36.8796199386       -3.5917716866  W2        444             0.0000000000
      1333       445  TIP3      OH2            10.1758315875      -36.1965299386       -4.5572616866  W2        445             0.0000000000
      1334       445  TIP3      H1             10.8222615875      -36.5252099386       -3.9325016866  W2        445             0.0000000000
      1335       445  TIP3      H2             10.6857715875      -35.6786299386       -5.1801216866  W2        445             0.0000000000
      1336       446  TIP3      OH2            -0.9262884125      -33.9305099386       -2.1959516866  W2        446             0.0000000000
      1337       446  TIP3      H1             -0.2726284125      -34.4803399386       -1.7639416866  W2        446             0.0000000000
      1338       446  TIP3      H2             -0.9023584125      -34.2046099386       -3.1127516866  W2        446             0.0000000000
      1339       447  TIP3      OH2             4.2301615875      -32.3803799386       -2.9808016866  W2        447             0.0000000000
      1340       447  TIP3      H1              4.8462615875      -32.9068399386       -2.4714016866  W2        447             0.0000000000
      1341       447  TIP3      H2              3.6440415875      -33.0205099386       -3.3844416866  W2        447             0.0000000000
      1342       448  TIP3      OH2            15.2124715875      -35.7435199386        2.5385483134  W2        448             0.0000000000
      1343       448  TIP3      H1             14.5239315875      -35.0854499386        2.4432083134  W2        448             0.0000000000
      1344       448  TIP3      H2             15.2279315875      -35.9407299386        3.4750883134  W2        448             0.0000000000
      1345       449  TIP3      OH2             1.2637515875      -37.4092499386        1.1159883134  W2        449             0.0000000000
      1346       449  TIP3      H1              1.0449215875      -36.8791899386        0.3495883134  W2        449             0.0000000000
      1347       449  TIP3      H2              0.5958415875      -37.1826999386        1.7631283134  W2        449             0.0000000000
      1348       450  TIP3      OH2             8.6327315875      -27.9091399386       -5.3401016866  W2        450             0.0000000000
      1349       450  TIP3      H1              8.3372415875      -28.2319099386       -6.1914116866  W2        450             0.0000000000
      1350       450  TIP3      H2              8.3085115875      -27.0094699386       -5.2988416866  W2        450             0.0000000000
      1351       451  TIP3      OH2             3.8328915875      -29.7336799386        1.4033583134  W2        451             0.0000000000
      1352       451  TIP3      H1              3.0928015875      -29.1355299386        1.5068783134  W2        451             0.0000000000
      1353       451  TIP3      H2              4.5468415875      -29.1797199386        1.0877183134  W2        451             0.0000000000
      1354       452  TIP3      OH2            11.9396715875      -36.9055999386       -2.5766716866  W2        452             0.0000000000
      1355       452  TIP3      H1             11.7244715875      -37.6712599386       -2.0440716866  W2        452             0.0000000000
      1356       452  TIP3      H2             12.5954115875      -36.4331399386       -2.0638216866  W2        452             0.0000000000
      1357       453  TIP3      OH2             0.8574815875      -35.5170699386       -0.9317916866  W2        453             0.0000000000
      1358       453  TIP3      H1              1.4711115875      -34.8843099386       -0.5585516866  W2        453             0.0000000000
      1359       453  TIP3      H2              1.3695515875      -35.9895699386       -1.5881016866  W2        453             0.0000000000
      1360       454  TIP3      OH2             2.2403215875      -27.7693799386        2.1905083134  W2        454             0.0000000000
      1361       454  TIP3      H1              2.2350815875      -26.8900299386        1.8124383134  W2        454             0.0000000000
      1362       454  TIP3      H2              1.3867315875      -27.8529699386        2.6154983134  W2        454             0.0000000000
      1363       455  TIP3      OH2            -1.6385884125      -28.0985899386       -7.0275616866  W2        455             0.0000000000
      1364       455  TIP3      H1             -1.9104984125      -27.8694899386       -7.9162716866  W2        455             0.0000000000
      1365       455  TIP3      H2             -1.5930184125      -27.2607099386       -6.5670316866  W2        455             0.0000000000
      1366       456  TIP3      OH2            11.9863815875      -26.4769999386       -0.3147116866  W2        456             0.0000000000
      1367       456  TIP3      H1             11.0447515875      -26.4186099386       -0.1530216866  W2        456             0.0000000000
      1368       456  TIP3      H2             12.2629915875      -25.5709499386       -0.4517416866  W2        456             0.0000000000
      1369       457  TIP3      OH2            12.2870815875      -38.1904699386        1.1026783134  W2        457             0.0000000000
      1370       457  TIP3      H1             11.5510015875      -37.5797599386        1.0648083134  W2        457             0.0000000000
      1371       457  TIP3      H2             12.9704815875      -37.7755699386        0.5763183134  W2        457             0.0000000000
      1372       458  TIP3      OH2             5.2902215875      -40.1037399386       -1.4315216866  W2        458             0.0000000000
      1373       458  TIP3      H1              5.1726415875      -41.0521399386       -1.4856916866  W2        458             0.0000000000
      1374       458  TIP3      H2              4.4352315875      -39.7711299386       -1.1584116866  W2        458             0.0000000000
      1375       459  TIP3      OH2            10.2385015875      -24.6956499386       -3.6895516866  W2        459             0.0000000000
      1376       459  TIP3      H1             10.6637315875      -25.4028599386       -4.1745916866  W2        459             0.0000000000
      1377       459  TIP3      H2             10.5555015875      -23.8943799386       -4.1063316866  W2        459             0.0000000000
      1378       460  TIP3      OH2            11.3981515875      -26.7947999386       -5.1808916866  W2        460             0.0000000000
      1379       460  TIP3      H1             11.1406315875      -27.4847899386       -5.7923016866  W2        460             0.0000000000
      1380       460  TIP3      H2             11.4692315875      -27.2376799386       -4.3353016866  W2        460             0.0000000000
      1381       461  TIP3      OH2            13.0841715875      -28.2281299386        3.2964583134  W2        461             0.0000000000
      1382       461  TIP3      H1             13.2238015875      -28.8198799386        2.5571583134  W2        461             0.0000000000
      1383       461  TIP3      H2             13.2514515875      -27.3555399386        2.9403383134  W2        461             0.0000000000
      1384       462  TIP3      OH2             7.5567115875      -31.2661799386       -6.9309416866  W2        462             0.0000000000
      1385       462  TIP3      H1              6.8452615875      -30.7312099386       -7.2828916866  W2        462             0.0000000000
      1386       462  TIP3      H2              8.2476715875      -31.2109699386       -7.5910516866  W2        462             0.0000000000
      1387       463  TIP3      OH2             7.6106315875      -32.8087499386       -9.8924416866  W2        463             0.0000000000
      1388       463  TIP3      H1              8.3116215875      -32.7860599386       -9.2410416866  W2        463             0.0000000000
      1389       463  TIP3      H2              7.9129215875      -33.4367799386      -10.5485116866  W2        463             0.0000000000
      1390       464  TIP3      OH2            14.9261015875      -31.8883299386        1.3624983134  W2        464             0.0000000000
      1391       464  TIP3      H1             14.2735115875      -31.1937699386        1.4515883134  W2        464             0.0000000000
      1392       464  TIP3      H2             15.3911315875      -31.6782399386        0.5526583134  W2        464             0.0000000000
      1393       465  TIP3      OH2            10.9624815875      -31.0568499386       -5.9793516866  W2        465             0.0000000000
      1394       465  TIP3      H1             10.2305815875      -30.8284799386       -5.4062916866  W2        465             0.0000000000
      1395       465  TIP3      H2             11.4097015875      -31.7705799386       -5.5246016866  W2        465             0.0000000000
      1396       466  TIP3      OH2            10.8598315875      -32.8825899386        3.0883483134  W2        466             0.0000000000
      1397       466  TIP3      H1             10.9397415875      -32.1191499386        3.6601983134  W2        466             0.0000000000
      1398       466  TIP3      H2             10.2586015875      -32.6033499386        2.3978583134  W2        466             0.0000000000
      1399       467  TIP3      OH2             2.6078515875      -30.4262299386       -4.0968516866  W2        467             0.0000000000
      1400       467  TIP3      H1              2.2773715875      -30.7968899386       -4.9151516866  W2        467             0.0000000000
      1401       467  TIP3      H2              3.1962615875      -31.0968299386       -3.7500216866  W2        467             0.0000000000
      1402       468  TIP3      OH2             3.9746015875      -26.9981699386       -1.4156316866  W2        468             0.0000000000
      1403       468  TIP3      H1              3.8797315875      -27.5768599386       -2.1721716866  W2        468             0.0000000000
      1404       468  TIP3      H2              4.7039615875      -27.3695999386       -0.9193516866  W2        468             0.0000000000
      1405       469  TIP3      OH2             2.9744015875      -31.6576699386       -0.4633516866  W2        469             0.0000000000
      1406       469  TIP3      H1              3.5396515875      -31.5362499386       -1.2262316866  W2        469             0.0000000000
      1407       469  TIP3      H2              3.2932915875      -31.0201699386        0.1754983134  W2        469             0.0000000000
      1408       470  TIP3      OH2             9.2836215875      -26.1544799386        0.2706983134  W2        470             0.0000000000
      1409       470  TIP3      H1              9.0432815875      -25.4921699386        0.9186183134  W2        470             0.0000000000
      1410       470  TIP3      H2              9.0854415875      -26.9889599386        0.6956583134  W2        470             0.0000000000
      1411       471  TIP3      OH2             3.8544715875      -27.2583999386        4.2538383134  W2        471             0.0000000000
      1412       471  TIP3      H1              3.5432215875      -26.4760799386        4.7091583134  W2        471             0.0000000000
      1413       471  TIP3      H2              3.2044915875      -27.4114899386        3.5680383134  W2        471             0.0000000000
      1414       472  TIP3      OH2             9.8334315875      -31.8945599386       -8.2942316866  W2        472             0.0000000000
      1415       472  TIP3      H1             10.4129815875      -31.7445299386       -7.5473416866  W2        472             0.0000000000
      1416       472  TIP3      H2             10.2474315875      -31.4238199386       -9.0175916866  W2        472             0.0000000000
      1417       473  TIP3      OH2             0.7744615875      -31.0602899386        3.4824083134  W2        473             0.0000000000
      1418       473  TIP3      H1              0.8447815875      -30.4096099386        4.1809083134  W2        473             0.0000000000
      1419       473  TIP3      H2             -0.1163184125      -30.9575399386        3.1474983134  W2        473             0.0000000000
      1420       474  TIP3      OH2             7.5599215875      -25.1577099386       -4.8589216866  W2        474             0.0000000000
      1421       474  TIP3      H1              8.0336815875      -24.8620799386       -4.0815016866  W2        474             0.0000000000
      1422       474  TIP3      H2              6.9968515875      -24.4195499386       -5.0919616866  W2        474             0.0000000000
      1423       475  TIP3      OH2             2.0940615875      -25.1868999386        5.0172183134  W2        475             0.0000000000
      1424       475  TIP3      H1              2.1015915875      -25.3229299386        4.0697683134  W2        475             0.0000000000
      1425       475  TIP3      H2              1.1781015875      -25.3040899386        5.2692183134  W2        475             0.0000000000
      1426       476  TIP3      OH2            13.5322715875      -40.1445199386       -8.4812616866  W2        476             0.0000000000
      1427       476  TIP3      H1             12.6323415875      -40.0056199386       -8.1862016866  W2        476             0.0000000000
      1428       476  TIP3      H2             13.7841115875      -39.3130599386       -8.8830916866  W2        476             0.0000000000
      1429       477  TIP3      OH2             1.5981215875      -31.3567999386       -6.5075716866  W2        477             0.0000000000
      1430       477  TIP3      H1              1.3062515875      -30.5886299386       -6.9984416866  W2        477             0.0000000000
      1431       477  TIP3      H2              0.9236415875      -32.0161799386       -6.6704316866  W2        477             0.0000000000
      1432       478  TIP3      OH2            14.7214115875      -25.7782799386      -10.1048716866  W2        478             0.0000000000
      1433       478  TIP3      H1             14.7947615875      -24.8392599386       -9.9343416866  W2        478             0.0000000000
      1434       478  TIP3      H2             15.6269215875      -26.0834199386      -10.1611416866  W2        478             0.0000000000
      1435       479  TIP3      OH2            -2.3088684125      -28.9938799386        2.3074083134  W2        479             0.0000000000
      1436       479  TIP3      H1             -2.8100284125      -29.0219399386        1.4923783134  W2        479             0.0000000000
      1437       479  TIP3      H2             -2.3034984125      -29.8995599386        2.6171383134  W2        479             0.0000000000
      1438       480  TIP3      OH2            -2.5585984125      -26.2134999386       -0.8085716866  W2        480             0.0000000000
      1439       480  TIP3      H1             -1.6125384125      -26.3577999386       -0.8276216866  W2        480             0.0000000000
      1440       480  TIP3      H2             -2.6709684125      -25.4292199386       -0.2714516866  W2        480             0.0000000000
      1441       481  TIP3      OH2            15.6392515875      -25.5475299386        4.8737983134  W2        481             0.0000000000
      1442       481  TIP3      H1             15.5899315875      -26.5027199386        4.8365583134  W2        481             0.0000000000
      1443       481  TIP3      H2             14.8124815875      -25.2799999386        5.2751783134  W2        481             0.0000000000
      1444       482  TIP3      OH2             6.6176515875      -25.9736099386        3.7499383134  W2        482             0.0000000000
      1445       482  TIP3      H1              6.7051115875      -25.1471499386        4.2248483134  W2        482             0.0000000000
      1446       482  TIP3      H2              5.7541615875      -26.3032299386        3.9988683134  W2        482             0.0000000000
      1447       483  TIP3      OH2             7.0322315875      -22.2012399386       -6.4440016866  W2        483             0.0000000000
      1448       483  TIP3      H1              6.9568315875      -22.3225199386       -7.3904816866  W2        483             0.0000000000
      1449       483  TIP3      H2              7.0651015875      -21.2519699386       -6.3255416866  W2        483             0.0000000000
      1450       484  TIP3      OH2             0.6856115875      -23.4125399386       -4.6631016866  W2        484             0.0000000000
      1451       484  TIP3      H1              0.8376515875      -23.7604999386       -3.7844516866  W2        484             0.0000000000
      1452       484  TIP3      H2             -0.1653484125      -23.7688099386       -4.9183816866  W2        484             0.0000000000
      1453       485  TIP3      OH2            10.1338315875      -23.0472199386       -9.4417616866  W2        485             0.0000000000
      1454       485  TIP3      H1             10.5086715875      -23.7916099386       -9.9125016866  W2        485             0.0000000000
      1455       485  TIP3      H2             10.1382015875      -23.3171599386       -8.5234316866  W2        485             0.0000000000
      1456       486  TIP3      OH2             9.8026415875      -23.1215099386       -6.6925416866  W2        486             0.0000000000
      1457       486  TIP3      H1              8.8676215875      -23.0213199386       -6.5138416866  W2        486             0.0000000000
      1458       486  TIP3      H2             10.0828315875      -23.8309099386       -6.1142216866  W2        486             0.0000000000
      1459       487  TIP3      OH2            12.7912315875      -34.0542799386        5.3540183134  W2        487             0.0000000000
      1460       487  TIP3      H1             12.3839115875      -33.5737199386        4.6333483134  W2        487             0.0000000000
      1461       487  TIP3      H2             12.8318015875      -34.9596799386        5.0460983134  W2        487             0.0000000000
      1462       488  TIP3      OH2            -0.0598184125      -27.6703399386        3.3506883134  W2        488             0.0000000000
      1463       488  TIP3      H1              0.1563115875      -28.0317799386        4.2102683134  W2        488             0.0000000000
      1464       488  TIP3      H2             -0.9153484125      -28.0449599386        3.1410383134  W2        488             0.0000000000
      1465       489  TIP3      OH2             2.5589815875      -39.2002899386       -0.6538916866  W2        489             0.0000000000
      1466       489  TIP3      H1              1.6973515875      -39.2874699386       -1.0616016866  W2        489             0.0000000000
      1467       489  TIP3      H2              2.5365515875      -38.3442799386       -0.2261316866  W2        489             0.0000000000
      1468       490  TIP3      OH2             7.2217615875      -39.4782499386        2.7208083134  W2        490             0.0000000000
      1469       490  TIP3      H1              7.6420715875      -39.8935399386        3.4738683134  W2        490             0.0000000000
      1470       490  TIP3      H2              6.2887215875      -39.6569199386        2.8380083134  W2        490             0.0000000000
      1471       491  TIP3      OH2            10.5482515875      -35.7227299386        3.5742583134  W2        491             0.0000000000
      1472       491  TIP3      H1             10.0342015875      -35.8485099386        4.3718583134  W2        491             0.0000000000
      1473       491  TIP3      H2             10.3927215875      -34.8104199386        3.3298783134  W2        491             0.0000000000
      1474       492  TIP3      OH2            11.3107415875      -30.8617299386      -10.6644416866  W2        492             0.0000000000
      1475       492  TIP3      H1             11.3528215875      -31.0843399386      -11.5944416866  W2        492             0.0000000000
      1476       492  TIP3      H2             12.1599515875      -30.4630199386      -10.4744516866  W2        492             0.0000000000
      1477       493  TIP3      OH2             6.8834915875      -36.9859099386       -9.9941116866  W2        493             0.0000000000
      1478       493  TIP3      H1              6.6299715875      -36.9667499386       -9.0713016866  W2        493             0.0000000000
      1479       493  TIP3      H2              6.6267015875      -37.8573699386      -10.2954916866  W2        493             0.0000000000
      1480       494  TIP3      OH2             2.6499915875      -34.2348399386        0.4411283134  W2        494             0.0000000000
      1481       494  TIP3      H1              2.0082015875      -34.2751099386        1.1501383134  W2        494             0.0000000000
      1482       494  TIP3      H2              2.6871915875      -33.3083699386        0.2034283134  W2        494             0.0000000000
      1483       495  TIP3      OH2             2.6469015875      -34.0138299386       -4.6468716866  W2        495             0.0000000000
      1484       495  TIP3      H1              1.7541915875      -34.3542199386       -4.7054916866  W2        495             0.0000000000
      1485       495  TIP3      H2              3.0975615875      -34.3907399386       -5.4025516866  W2        495             0.0000000000
      1486       496  TIP3      OH2             8.1824515875      -33.5977999386       -5.8297916866  W2        496             0.0000000000
      1487       496  TIP3      H1              7.7734815875      -32.7829399386       -6.1213116866  W2        496             0.0000000000
      1488       496  TIP3      H2              8.9030715875      -33.7377899386       -6.4440816866  W2        496             0.0000000000
      1489       497  TIP3      OH2             7.2846115875      -33.4221599386        5.6582783134  W2        497             0.0000000000
      1490       497  TIP3      H1              6.7219915875      -34.1269999386        5.9790583134  W2        497             0.0000000000
      1491       497  TIP3      H2              8.1109515875      -33.5429699386        6.1260383134  W2        497             0.0000000000
      1492       498  TIP3      OH2             9.1872215875      -34.1517599386       -3.0158216866  W2        498             0.0000000000
      1493       498  TIP3      H1              8.9916715875      -33.5460799386       -3.7307616866  W2        498             0.0000000000
      1494       498  TIP3      H2              9.3684815875      -34.9852399386       -3.4501916866  W2        498             0.0000000000
      1495       499  TIP3      OH2             0.4000415875      -33.9144899386        2.3083283134  W2        499             0.0000000000
      1496       499  TIP3      H1              0.3619815875      -33.5143299386        3.1770383134  W2        499             0.0000000000
      1497       499  TIP3      H2             -0.0908484125      -34.7312499386        2.3986183134  W2        499             0.0000000000
      1498       500  TIP3      OH2             3.7657815875      -36.5402599386      -10.8930716866  W2        500             0.0000000000
      1499       500  TIP3      H1              3.3348515875      -36.9852499386      -10.1633316866  W2        500             0.0000000000
      1500       500  TIP3      H2              3.0476515875      -36.1686299386      -11.4053216866  W2        500             0.0000000000
      1501       501  TIP3      OH2            -2.9918784125      -36.7983099386       -3.8412016866  W2        501             0.0000000000
      1502       501  TIP3      H1             -2.3611084125      -36.8270999386       -3.1218116866  W2        501             0.0000000000
      1503       501  TIP3      H2             -2.5424484125      -37.2234399386       -4.5716116866  W2        501             0.0000000000
      1504       502  TIP3      OH2            -1.7176684125      -36.0521099386       -8.4171616866  W2        502             0.0000000000
      1505       502  TIP3      H1             -1.2434984125      -35.4611199386       -9.0020716866  W2        502             0.0000000000
      1506       502  TIP3      H2             -2.4350284125      -35.5218199386       -8.0701516866  W2        502             0.0000000000
      1507       503  TIP3      OH2             8.4511415875      -32.5136299386        1.6554183134  W2        503             0.0000000000
      1508       503  TIP3      H1              8.7746215875      -33.1446599386        1.0124683134  W2        503             0.0000000000
      1509       503  TIP3      H2              8.0110715875      -33.0484099386        2.3161583134  W2        503             0.0000000000
      1510       504  TIP3      OH2             5.2284315875      -36.5860799386       -3.5604616866  W2        504             0.0000000000
      1511       504  TIP3      H1              4.3175415875      -36.5293999386       -3.2718616866  W2        504             0.0000000000
      1512       504  TIP3      H2              5.7337215875      -36.6465299386       -2.7497416866  W2        504             0.0000000000
      1513       505  TIP3      OH2             0.0567715875      -34.9574499386       -4.7337016866  W2        505             0.0000000000
      1514       505  TIP3      H1             -0.8324284125      -34.8578999386       -5.0737416866  W2        505             0.0000000000
      1515       505  TIP3      H2              0.3532615875      -35.7991499386       -5.0799116866  W2        505             0.0000000000
      1516       506  TIP3      OH2             3.7099515875      -34.9571899386       -7.0772416866  W2        506             0.0000000000
      1517       506  TIP3      H1              4.6415015875      -34.8281899386       -6.8989316866  W2        506             0.0000000000
      1518       506  TIP3      H2              3.4949815875      -34.2877599386       -7.7267716866  W2        506             0.0000000000
      1519       507  TIP3      OH2             9.6336215875      -37.3514499386       -0.2962816866  W2        507             0.0000000000
      1520       507  TIP3      H1              8.9567815875      -37.2201399386        0.3676883134  W2        507             0.0000000000
      1521       507  TIP3      H2              9.1481115875      -37.5064999386       -1.1065116866  W2        507             0.0000000000
      1522       508  TIP3      OH2             2.3839715875      -33.7629699386       -9.5106316866  W2        508             0.0000000000
      1523       508  TIP3      H1              1.8414815875      -34.1425899386      -10.2018716866  W2        508             0.0000000000
      1524       508  TIP3      H2              3.2174615875      -33.5684999386       -9.9392216866  W2        508             0.0000000000
      1525       509  TIP3      OH2            12.9211315875      -21.6799099386        5.9804783134  W2        509             0.0000000000
      1526       509  TIP3      H1             13.1210015875      -21.2557199386        5.1460083134  W2        509             0.0000000000
      1527       509  TIP3      H2             13.5765015875      -21.3360899386        6.5875183134  W2        509             0.0000000000
      1528       510  TIP3      OH2             0.5191115875      -29.2057799386        5.5885283134  W2        510             0.0000000000
      1529       510  TIP3      H1              1.2513515875      -28.9511899386        6.1499783134  W2        510             0.0000000000
      1530       510  TIP3      H2             -0.2610184125      -29.0012399386        6.1040683134  W2        510             0.0000000000
      1531       511  TIP3      OH2             6.5484015875      -33.7987799386       -1.6735016866  W2        511             0.0000000000
      1532       511  TIP3      H1              7.1127415875      -34.3451199386       -2.2205416866  W2        511             0.0000000000
      1533       511  TIP3      H2              6.4007415875      -34.3205899386       -0.8847416866  W2        511             0.0000000000
      1534       512  TIP3      OH2             1.5503715875      -37.6621699386       -5.2550216866  W2        512             0.0000000000
      1535       512  TIP3      H1              1.2333215875      -38.5646399386       -5.2904816866  W2        512             0.0000000000
      1536       512  TIP3      H2              2.3317815875      -37.6604299386       -5.8078616866  W2        512             0.0000000000
      1537       513  TIP3      OH2             5.1749915875      -35.4101699386        0.7405383134  W2        513             0.0000000000
      1538       513  TIP3      H1              4.3395215875      -34.9562199386        0.8507783134  W2        513             0.0000000000
      1539       513  TIP3      H2              5.6990515875      -35.1343199386        1.4925283134  W2        513             0.0000000000
      1540       514  TIP3      OH2             5.7192515875      -29.1973999386       -7.5748216866  W2        514             0.0000000000
      1541       514  TIP3      H1              4.9743515875      -29.7048699386       -7.8970316866  W2        514             0.0000000000
      1542       514  TIP3      H2              5.5849715875      -29.1485999386       -6.6283416866  W2        514             0.0000000000
      1543       515  TIP3      OH2            12.8691415875      -30.0645799386        1.2119383134  W2        515             0.0000000000
      1544       515  TIP3      H1             13.5110215875      -29.6079499386        0.6681583134  W2        515             0.0000000000
      1545       515  TIP3      H2             12.0388315875      -29.9513399386        0.7493483134  W2        515             0.0000000000
      1546       516  TIP3      OH2             9.6169315875      -36.3834099386       -9.3755616866  W2        516             0.0000000000
      1547       516  TIP3      H1              8.6783515875      -36.2718499386       -9.5266816866  W2        516             0.0000000000
      1548       516  TIP3      H2              9.9141415875      -35.5267199386       -9.0689916866  W2        516             0.0000000000
      1549       517  TIP3      OH2             7.2384615875      -29.0130699386        3.6620883134  W2        517             0.0000000000
      1550       517  TIP3      H1              6.8930715875      -29.3948299386        4.4690483134  W2        517             0.0000000000
      1551       517  TIP3      H2              7.0384715875      -28.0797099386        3.7333783134  W2        517             0.0000000000
      1552       518  TIP3      OH2            10.3352815875      -34.5161399386       -7.7148216866  W2        518             0.0000000000
      1553       518  TIP3      H1             11.2271815875      -34.6536399386       -7.3957016866  W2        518             0.0000000000
      1554       518  TIP3      H2             10.3916415875      -33.7255299386       -8.2514716866  W2        518             0.0000000000
      1555       519  TIP3      OH2             0.8440815875      -29.9023999386       -1.8050316866  W2        519             0.0000000000
      1556       519  TIP3      H1              1.5888015875      -29.9048299386       -2.4063816866  W2        519             0.0000000000
      1557       519  TIP3      H2              0.9217415875      -30.7260199386       -1.3235216866  W2        519             0.0000000000
      1558       520  TIP3      OH2             7.8446615875      -27.7389699386       -8.5493616866  W2        520             0.0000000000
      1559       520  TIP3      H1              7.5495015875      -26.9121799386       -8.1678816866  W2        520             0.0000000000
      1560       520  TIP3      H2              7.1416615875      -28.3582799386       -8.3532216866  W2        520             0.0000000000
      1561       521  TIP3      OH2            -2.1479484125      -31.4417099386        3.5098183134  W2        521             0.0000000000
      1562       521  TIP3      H1             -1.9250884125      -31.8597499386        4.3415683134  W2        521             0.0000000000
      1563       521  TIP3      H2             -2.7499384125      -32.0542099386        3.0870983134  W2        521             0.0000000000
      1564       522  TIP3      OH2             4.8685415875      -31.9247199386        5.7227883134  W2        522             0.0000000000
      1565       522  TIP3      H1              4.5726215875      -32.0904199386        4.8276983134  W2        522             0.0000000000
      1566       522  TIP3      H2              5.8000615875      -32.1446899386        5.7121783134  W2        522             0.0000000000
      1567       523  TIP3      OH2             9.4888215875      -26.5515199386        3.6125883134  W2        523             0.0000000000
      1568       523  TIP3      H1              8.5882515875      -26.3682599386        3.3449783134  W2        523             0.0000000000
      1569       523  TIP3      H2              9.5229315875      -26.2925899386        4.5334683134  W2        523             0.0000000000
      1570       524  TIP3      OH2            15.2201515875      -34.3067299386       -8.0201516866  W2        524             0.0000000000
      1571       524  TIP3      H1             14.6657815875      -34.7029299386       -8.6924016866  W2        524             0.0000000000
      1572       524  TIP3      H2             15.3205115875      -33.3962099386       -8.2978216866  W2        524             0.0000000000
      1573       525  TIP3      OH2            15.1833515875      -28.5065599386        4.8169983134  W2        525             0.0000000000
      1574       525  TIP3      H1             14.3322015875      -28.2681799386        4.4496383134  W2        525             0.0000000000
      1575       525  TIP3      H2             15.7736915875      -28.5232399386        4.0637083134  W2        525             0.0000000000
      1576       526  TIP3      OH2            13.5153215875      -25.5206899386       -7.5549416866  W2        526             0.0000000000
      1577       526  TIP3      H1             13.1424315875      -26.3463099386       -7.2458816866  W2        526             0.0000000000
      1578       526  TIP3      H2             13.7926715875      -25.7037499386       -8.4526016866  W2        526             0.0000000000
      1579       527  TIP3      OH2            10.6757115875      -30.7127399386       -0.5337516866  W2        527             0.0000000000
      1580       527  TIP3      H1              9.7474015875      -30.9445499386       -0.5608216866  W2        527             0.0000000000
      1581       527  TIP3      H2             11.1268215875      -31.4897599386       -0.8638716866  W2        527             0.0000000000
      1582       528  TIP3      OH2             3.2190215875      -26.3845799386       -4.4008816866  W2        528             0.0000000000
      1583       528  TIP3      H1              3.7462415875      -25.6111399386       -4.6010016866  W2        528             0.0000000000
      1584       528  TIP3      H2              2.3388715875      -26.1596599386       -4.7024816866  W2        528             0.0000000000
      1585       529  TIP3      OH2            -1.0262084125      -31.5221699386       -9.8136416866  W2        529             0.0000000000
      1586       529  TIP3      H1             -0.4102184125      -30.8954499386       -9.4341616866  W2        529             0.0000000000
      1587       529  TIP3      H2             -1.8879484125      -31.2061899386       -9.5419916866  W2        529             0.0000000000
      1588       530  TIP3      OH2             4.6462515875      -28.7215899386       -4.8244516866  W2        530             0.0000000000
      1589       530  TIP3      H1              4.4052515875      -27.7961499386       -4.7829216866  W2        530             0.0000000000
      1590       530  TIP3      H2              3.9056115875      -29.1804599386       -4.4280616866  W2        530             0.0000000000
      1591       531  TIP3      OH2             5.1609115875      -24.5722299386        1.4906583134  W2        531             0.0000000000
      1592       531  TIP3      H1              5.5233815875      -23.7176699386        1.2570983134  W2        531             0.0000000000
      1593       531  TIP3      H2              5.6924315875      -24.8640699386        2.2312883134  W2        531             0.0000000000
      1594       532  TIP3      OH2             3.3293315875      -23.6998299386       -5.2792316866  W2        532             0.0000000000
      1595       532  TIP3      H1              2.3793815875      -23.5940899386       -5.2279016866  W2        532             0.0000000000
      1596       532  TIP3      H2              3.6811415875      -22.8790899386       -4.9344816866  W2        532             0.0000000000
      1597       533  TIP3      OH2             8.7049915875      -28.4731599386        1.1912183134  W2        533             0.0000000000
      1598       533  TIP3      H1              8.2791215875      -28.7009899386        2.0176183134  W2        533             0.0000000000
      1599       533  TIP3      H2              9.2855715875      -29.2119799386        1.0087483134  W2        533             0.0000000000
      1600       534  TIP3      OH2            10.9078815875      -27.5441099386       -9.7348816866  W2        534             0.0000000000
      1601       534  TIP3      H1             11.2611915875      -27.9241299386       -8.9305316866  W2        534             0.0000000000
      1602       534  TIP3      H2              9.9592315875      -27.6376299386       -9.6479516866  W2        534             0.0000000000
      1603       535  TIP3      OH2            11.3634115875      -23.9212099386        3.6606983134  W2        535             0.0000000000
      1604       535  TIP3      H1             10.7617315875      -24.4769199386        3.1653283134  W2        535             0.0000000000
      1605       535  TIP3      H2             11.6447815875      -23.2542299386        3.0344383134  W2        535             0.0000000000
      1606       536  TIP3      OH2            15.4113215875      -23.0648599386       -9.5338616866  W2        536             0.0000000000
      1607       536  TIP3      H1             16.1551115875      -22.4788099386       -9.6737016866  W2        536             0.0000000000
      1608       536  TIP3      H2             14.7171315875      -22.4962799386       -9.2006216866  W2        536             0.0000000000
      1609       537  TIP3      OH2            -0.5139984125      -36.6884399386        3.0679583134  W2        537             0.0000000000
      1610       537  TIP3      H1             -1.4067684125      -36.3498999386        3.0003583134  W2        537             0.0000000000
      1611       537  TIP3      H2             -0.6127184125      -37.5438299386        3.4860383134  W2        537             0.0000000000
      1612       538  TIP3      OH2            11.7738115875      -28.8719099386       -7.5080916866  W2        538             0.0000000000
      1613       538  TIP3      H1             11.4965715875      -29.5999799386       -6.9519816866  W2        538             0.0000000000
      1614       538  TIP3      H2             12.7011115875      -28.7527099386       -7.3028316866  W2        538             0.0000000000
      1615       539  TIP3      OH2            -0.8627984125      -24.8839999386        1.5028983134  W2        539             0.0000000000
      1616       539  TIP3      H1             -0.6457684125      -25.8157599386        1.4718683134  W2        539             0.0000000000
      1617       539  TIP3      H2             -0.6164484125      -24.6094999386        2.3861783134  W2        539             0.0000000000
      1618       540  TIP3      OH2             4.9986615875      -26.4324999386      -11.2878816866  W2        540             0.0000000000
      1619       540  TIP3      H1              5.2376415875      -27.1806899386      -11.8349916866  W2        540             0.0000000000
      1620       540  TIP3      H2              4.7297915875      -26.8203299386      -10.4551016866  W2        540             0.0000000000
      1621       541  TIP3      OH2             3.9357215875      -26.8621199386       -8.8316216866  W2        541             0.0000000000
      1622       541  TIP3      H1              4.0825215875      -27.3821399386       -8.0415316866  W2        541             0.0000000000
      1623       541  TIP3      H2              3.9328915875      -25.9553599386       -8.5250316866  W2        541             0.0000000000
      1624       542  TIP3      OH2             0.3888315875      -29.6097899386       -8.3210816866  W2        542             0.0000000000
      1625       542  TIP3      H1             -0.2972384125      -29.2575399386       -7.7541116866  W2        542             0.0000000000
      1626       542  TIP3      H2              0.9116215875      -28.8468299386       -8.5676516866  W2        542             0.0000000000
      1627       543  TIP3      OH2             8.2203415875      -36.9474099386        1.9578183134  W2        543             0.0000000000
      1628       543  TIP3      H1              8.9191315875      -36.8735399386        2.6077883134  W2        543             0.0000000000
      1629       543  TIP3      H2              7.8394815875      -37.8119099386        2.1121083134  W2        543             0.0000000000
      1630       544  TIP3      OH2             9.0048315875      -37.2952399386       -6.9449516866  W2        544             0.0000000000
      1631       544  TIP3      H1              9.2246615875      -36.8236999386       -7.7484116866  W2        544             0.0000000000
      1632       544  TIP3      H2              9.5632315875      -36.9009799386       -6.2748916866  W2        544             0.0000000000
      1633       545  TIP3      OH2             6.6734415875      -25.1647599386       -8.0822016866  W2        545             0.0000000000
      1634       545  TIP3      H1              5.8570515875      -24.6677899386       -8.0297716866  W2        545             0.0000000000
      1635       545  TIP3      H2              7.2030715875      -24.6894099386       -8.7223216866  W2        545             0.0000000000
      1636       546  TIP3      OH2             6.2048215875      -35.5673599386       -6.1101116866  W2        546             0.0000000000
      1637       546  TIP3      H1              7.0170815875      -35.0630399386       -6.0639416866  W2        546             0.0000000000
      1638       546  TIP3      H2              5.9601215875      -35.7123899386       -5.1961516866  W2        546             0.0000000000
      1639       547  TIP3      OH2             6.7404615875      -34.5810899386        3.0745483134  W2        547             0.0000000000
      1640       547  TIP3      H1              6.8594915875      -34.0075499386        3.8315883134  W2        547             0.0000000000
      1641       547  TIP3      H2              7.3959215875      -35.2691499386        3.1893283134  W2        547             0.0000000000
      1642       548  TIP3      OH2             7.0884915875      -38.4860599386       -5.1720016866  W2        548             0.0000000000
      1643       548  TIP3      H1              6.7418415875      -37.8689999386       -4.5275716866  W2        548             0.0000000000
      1644       548  TIP3      H2              7.7471815875      -37.9854899386       -5.6534516866  W2        548             0.0000000000
      1645       549  TIP3      OH2             4.0117515875      -24.1210399386       -8.1005116866  W2        549             0.0000000000
      1646       549  TIP3      H1              4.1726215875      -23.3212899386       -8.6012516866  W2        549             0.0000000000
      1647       549  TIP3      H2              3.8145315875      -23.8144399386       -7.2154516866  W2        549             0.0000000000
      1648       550  TIP3      OH2             2.7461915875      -37.4231199386       -8.4847516866  W2        550             0.0000000000
      1649       550  TIP3      H1              2.6626715875      -36.5348099386       -8.1381116866  W2        550             0.0000000000
      1650       550  TIP3      H2              3.6362215875      -37.6884499386       -8.2530716866  W2        550             0.0000000000
      1651       551  TIP3      OH2            12.9450415875      -36.6740599386        3.9095183134  W2        551             0.0000000000
      1652       551  TIP3      H1             12.0286215875      -36.4118899386        3.8218883134  W2        551             0.0000000000
      1653       551  TIP3      H2             13.2805415875      -36.6771599386        3.0130483134  W2        551             0.0000000000
      1654       552  TIP3      OH2            11.5471415875      -32.9239599386       -1.9947516866  W2        552             0.0000000000
      1655       552  TIP3      H1             10.7495815875      -33.3389399386       -2.3232516866  W2        552             0.0000000000
      1656       552  TIP3      H2             11.9922515875      -33.6145899386       -1.5037016866  W2        552             0.0000000000
      1657       553  TIP3      OH2             1.0047215875      -26.9958999386       -9.4243016866  W2        553             0.0000000000
      1658       553  TIP3      H1              1.5968715875      -26.2964199386       -9.1480616866  W2        553             0.0000000000
      1659       553  TIP3      H2              1.4640215875      -27.4289499386      -10.1438416866  W2        553             0.0000000000
      1660       554  TIP3      OH2            -0.6793584125      -34.3315999386      -10.3083616866  W2        554             0.0000000000
      1661       554  TIP3      H1             -0.7240984125      -33.3922899386      -10.1296616866  W2        554             0.0000000000
      1662       554  TIP3      H2             -1.5670384125      -34.5671099386      -10.5781516866  W2        554             0.0000000000
      1663       555  TIP3      OH2            12.6336015875      -23.6677099386       -0.3724016866  W2        555             0.0000000000
      1664       555  TIP3      H1             12.4780315875      -22.9892699386       -1.0294716866  W2        555             0.0000000000
      1665       555  TIP3      H2             13.5662415875      -23.5957799386       -0.1693416866  W2        555             0.0000000000
      1666       556  TIP3      OH2             0.1288415875      -39.5499399386       -1.6352616866  W2        556             0.0000000000
      1667       556  TIP3      H1             -0.1001784125      -39.4906899386       -2.5627616866  W2        556             0.0000000000
      1668       556  TIP3      H2             -0.3138184125      -40.3413899386       -1.3288516866  W2        556             0.0000000000
      1669       557  TIP3      OH2            -0.9408284125      -25.6092299386       -5.4746816866  W2        557             0.0000000000
      1670       557  TIP3      H1             -1.7729684125      -25.1369599386       -5.4475416866  W2        557             0.0000000000
      1671       557  TIP3      H2             -0.3949984125      -25.0994699386       -6.0733716866  W2        557             0.0000000000
      1672       558  TIP3      OH2            -1.6524584125      -22.9968599386        5.8551183134  W2        558             0.0000000000
      1673       558  TIP3      H1             -1.1122384125      -23.2134599386        6.6150383134  W2        558             0.0000000000
      1674       558  TIP3      H2             -2.1336584125      -23.8022599386        5.6653683134  W2        558             0.0000000000
      1675       559  TIP3      OH2             2.9448815875      -24.0774199386        7.4755383134  W2        559             0.0000000000
      1676       559  TIP3      H1              3.7126015875      -24.5363399386        7.8164583134  W2        559             0.0000000000
      1677       559  TIP3      H2              2.9235015875      -24.3034399386        6.5456583134  W2        559             0.0000000000
      1678       560  TIP3      OH2             7.0368415875      -24.5693599386      -11.1492816866  W2        560             0.0000000000
      1679       560  TIP3      H1              6.3929415875      -25.2004999386      -10.8279116866  W2        560             0.0000000000
      1680       560  TIP3      H2              7.7986715875      -25.1005599386      -11.3809316866  W2        560             0.0000000000
      1681       561  TIP3      OH2             9.5217515875      -25.6973099386        6.2046883134  W2        561             0.0000000000
      1682       561  TIP3      H1              9.1707015875      -26.5540099386        6.4477283134  W2        561             0.0000000000
      1683       561  TIP3      H2             10.2480715875      -25.5546399386        6.8115883134  W2        561             0.0000000000
      1684       562  TIP3      OH2            11.6411315875      -24.7523699386      -10.9154816866  W2        562             0.0000000000
      1685       562  TIP3      H1             11.9241715875      -25.5468499386      -10.4627916866  W2        562             0.0000000000
      1686       562  TIP3      H2             12.3809215875      -24.5192699386      -11.4763716866  W2        562             0.0000000000
      1687       563  TIP3      OH2            -1.7455084125      -29.1864499386        6.8095483134  W2        563             0.0000000000
      1688       563  TIP3      H1             -1.6014584125      -30.0883799386        6.5232183134  W2        563             0.0000000000
      1689       563  TIP3      H2             -2.5177684125      -28.9002399386        6.3217783134  W2        563             0.0000000000
      1690       564  TIP3      OH2             2.5958615875      -28.8428799386      -11.0579916866  W2        564             0.0000000000
      1691       564  TIP3      H1              2.6602715875      -29.6369199386      -10.5273516866  W2        564             0.0000000000
      1692       564  TIP3      H2              3.2487815875      -28.9615999386      -11.7477916866  W2        564             0.0000000000
      1693       565  TIP3      OH2             4.9101015875      -29.2166399386        6.2421883134  W2        565             0.0000000000
      1694       565  TIP3      H1              4.5814815875      -28.9458299386        5.3849283134  W2        565             0.0000000000
      1695       565  TIP3      H2              5.0619215875      -30.1576599386        6.1546883134  W2        565             0.0000000000
      1696       566  TIP3      OH2             7.9482015875      -27.7957099386      -11.3221916866  W2        566             0.0000000000
      1697       566  TIP3      H1              7.6796115875      -27.6154999386      -10.4213016866  W2        566             0.0000000000
      1698       566  TIP3      H2              7.7417615875      -28.7210899386      -11.4536116866  W2        566             0.0000000000
      1699       567  TIP3      OH2            10.6446215875      -29.3009099386        3.6254183134  W2        567             0.0000000000
      1700       567  TIP3      H1             11.3901015875      -28.7125399386        3.5058183134  W2        567             0.0000000000
      1701       567  TIP3      H2              9.8873015875      -28.7189399386        3.6887283134  W2        567             0.0000000000
      1702       568  TIP3      OH2            -0.9128584125      -31.9861199386        6.2294783134  W2        568             0.0000000000
      1703       568  TIP3      H1             -0.5047384125      -32.8434599386        6.1085383134  W2        568             0.0000000000
      1704       568  TIP3      H2             -1.1730984125      -31.9719899386        7.1505083134  W2        568             0.0000000000
      1705       569  TIP3      OH2             3.7452415875      -30.8702599386       -8.7521916866  W2        569             0.0000000000
      1706       569  TIP3      H1              3.2854415875      -31.3544299386       -8.0663416866  W2        569             0.0000000000
      1707       569  TIP3      H2              4.0001115875      -31.5387199386       -9.3881416866  W2        569             0.0000000000
      1708       570  TIP3      OH2             3.0341715875      -32.9775499386        3.6037683134  W2        570             0.0000000000
      1709       570  TIP3      H1              2.4157815875      -32.3028899386        3.8842383134  W2        570             0.0000000000
      1710       570  TIP3      H2              3.3782915875      -32.6561599386        2.7703883134  W2        570             0.0000000000
      1711       571  TIP3      OH2             4.8162815875      -32.6270799386      -10.4898716866  W2        571             0.0000000000
      1712       571  TIP3      H1              4.6357815875      -32.7819599386      -11.4170416866  W2        571             0.0000000000
      1713       571  TIP3      H2              5.7663315875      -32.5192099386      -10.4450816866  W2        571             0.0000000000
      1714       572  TIP3      OH2             8.0539915875      -30.5060199386        6.8812483134  W2        572             0.0000000000
      1715       572  TIP3      H1              9.0071115875      -30.4221099386        6.8538483134  W2        572             0.0000000000
      1716       572  TIP3      H2              7.8934515875      -31.2178399386        7.5007383134  W2        572             0.0000000000
      1717       573  TIP3      OH2            14.2061115875      -30.2726599386      -11.0440616866  W2        573             0.0000000000
      1718       573  TIP3      H1             13.9325915875      -30.6971099386      -11.8572316866  W2        573             0.0000000000
      1719       573  TIP3      H2             14.2455215875      -29.3412099386      -11.2610216866  W2        573             0.0000000000
      1720       574  TIP3      OH2             3.3735415875      -35.6224699386        4.6860783134  W2        574             0.0000000000
      1721       574  TIP3      H1              3.5236315875      -36.3513399386        4.0840483134  W2        574             0.0000000000
      1722       574  TIP3      H2              3.3757815875      -34.8452999386        4.1272983134  W2        574             0.0000000000
      1723       575  TIP3      OH2             3.7861115875      -37.2528899386        2.1788183134  W2        575             0.0000000000
      1724       575  TIP3      H1              4.3218615875      -36.8012199386        1.5267483134  W2        575             0.0000000000
      1725       575  TIP3      H2              2.9340715875      -37.3609099386        1.7562283134  W2        575             0.0000000000
      1726       576  TIP3      OH2             5.3679515875      -31.8132699386        2.4183383134  W2        576             0.0000000000
      1727       576  TIP3      H1              6.1184315875      -31.9695199386        1.8451183134  W2        576             0.0000000000
      1728       576  TIP3      H2              5.0287815875      -30.9616099386        2.1428883134  W2        576             0.0000000000
      1729       577  TIP3      OH2             9.7835715875      -33.9980899386        7.4468683134  W2        577             0.0000000000
      1730       577  TIP3      H1              9.9757015875      -34.9291499386        7.3353183134  W2        577             0.0000000000
      1731       577  TIP3      H2             10.6412015875      -33.5731399386        7.4364083134  W2        577             0.0000000000
      1732       578  TIP3      OH2            11.1002915875      -31.2095699386        5.5241383134  W2        578             0.0000000000
      1733       578  TIP3      H1             10.8187915875      -30.5001099386        4.9465183134  W2        578             0.0000000000
      1734       578  TIP3      H2             12.0427215875      -31.2822699386        5.3732583134  W2        578             0.0000000000
      1735       579  TIP3      OH2             1.8521715875      -34.4241199386        6.5976383134  W2        579             0.0000000000
      1736       579  TIP3      H1              1.0850715875      -34.9566399386        6.3873983134  W2        579             0.0000000000
      1737       579  TIP3      H2              2.5310715875      -34.7340799386        5.9982683134  W2        579             0.0000000000
      1738       580  TIP3      OH2             4.5916615875      -39.7963199386        2.6101783134  W2        580             0.0000000000
      1739       580  TIP3      H1              4.4936215875      -38.8499999386        2.5047983134  W2        580             0.0000000000
      1740       580  TIP3      H2              3.8492815875      -40.1689399386        2.1345283134  W2        580             0.0000000000
      1741       581  TIP3      OH2             5.8557115875      -35.4747799386        6.1740183134  W2        581             0.0000000000
      1742       581  TIP3      H1              5.6202515875      -35.6941099386        7.0755083134  W2        581             0.0000000000
      1743       581  TIP3      H2              5.0724015875      -35.6816599386        5.6642683134  W2        581             0.0000000000
      1744       582  TIP3      OH2             8.5713715875      -36.3474299386        5.2493683134  W2        582             0.0000000000
      1745       582  TIP3      H1              7.6239115875      -36.3154599386        5.3816983134  W2        582             0.0000000000
      1746       582  TIP3      H2              8.8840415875      -36.9727199386        5.9031883134  W2        582             0.0000000000
      1747       583  TIP3      OH2            10.2055215875      -37.7133199386        7.2545583134  W2        583             0.0000000000
      1748       583  TIP3      H1             10.1087015875      -38.6655899386        7.2487483134  W2        583             0.0000000000
      1749       583  TIP3      H2              9.8838315875      -37.4446399386        8.1151083134  W2        583             0.0000000000
      1750       584  TIP3      OH2             0.0324515875      -36.5037399386        6.3021083134  W2        584             0.0000000000
      1751       584  TIP3      H1              0.2441915875      -37.2101299386        5.6918583134  W2        584             0.0000000000
      1752       584  TIP3      H2             -0.0787984125      -36.9411399386        7.1462283134  W2        584             0.0000000000
      1753       585  TIP3      OH2             4.8134715875      -40.5025799386        5.2814583134  W2        585             0.0000000000
      1754       585  TIP3      H1              5.5253115875      -41.1423599386        5.2673683134  W2        585             0.0000000000
      1755       585  TIP3      H2              4.7125115875      -40.2357499386        4.3677683134  W2        585             0.0000000000
      1756       586  TIP3      OH2             5.1672215875      -38.8197399386        7.3350883134  W2        586             0.0000000000
      1757       586  TIP3      H1              5.0354415875      -39.2953599386        6.5149383134  W2        586             0.0000000000
      1758       586  TIP3      H2              4.5679615875      -38.0753799386        7.2797983134  W2        586             0.0000000000
      1759       587  TIP3      OH2             4.7134515875      -21.9367099386       -9.4885116866  W2        587             0.0000000000
      1760       587  TIP3      H1              5.6465215875      -21.7788399386       -9.3446716866  W2        587             0.0000000000
      1761       587  TIP3      H2              4.4493315875      -21.2614099386      -10.1133616866  W2        587             0.0000000000
      1762       588  TIP3      OH2            -1.7180584125      -27.3003299386      -10.0057016866  W2        588             0.0000000000
      1763       588  TIP3      H1             -0.8041384125      -27.2214399386       -9.7323116866  W2        588             0.0000000000
      1764       588  TIP3      H2             -1.7107484125      -27.9873699386      -10.6721416866  W2        588             0.0000000000
      1765       589  TIP3      OH2            -3.0689984125      -21.9074799386       -4.9283116866  W2        589             0.0000000000
      1766       589  TIP3      H1             -3.7162884125      -22.3693099386       -5.4611916866  W2        589             0.0000000000
      1767       589  TIP3      H2             -2.7145384125      -22.5791499386       -4.3456916866  W2        589             0.0000000000
      1768       590  TIP3      OH2            -2.1990784125      -23.8267799386       -3.1236916866  W2        590             0.0000000000
      1769       590  TIP3      H1             -2.5333984125      -24.7070499386       -2.9516716866  W2        590             0.0000000000
      1770       590  TIP3      H2             -1.9768384125      -23.4812799386       -2.2591316866  W2        590             0.0000000000
      1771       591  TIP3      OH2            15.3494015875      -23.0171399386       -0.1432116866  W2        591             0.0000000000
      1772       591  TIP3      H1             15.3280715875      -22.8322999386        0.7957283134  W2        591             0.0000000000
      1773       591  TIP3      H2             16.0400215875      -22.4487399386       -0.4840716866  W2        591             0.0000000000
      1774       592  TIP3      OH2            14.9126915875      -23.4500299386        2.7786983134  W2        592             0.0000000000
      1775       592  TIP3      H1             14.4255615875      -24.1856199386        2.4074383134  W2        592             0.0000000000
      1776       592  TIP3      H2             15.4619615875      -23.8436399386        3.4566383134  W2        592             0.0000000000
      1777       593  TIP3      OH2            13.3634215875      -27.6602199386        7.4167283134  W2        593             0.0000000000
      1778       593  TIP3      H1             12.4975315875      -27.7652499386        7.8109583134  W2        593             0.0000000000
      1779       593  TIP3      H2             13.7400115875      -26.9018899386        7.8631983134  W2        593             0.0000000000
      1780       594  TIP3      OH2            14.6643915875      -29.4038499386       -7.0690216866  W2        594             0.0000000000
      1781       594  TIP3      H1             15.5145315875      -28.9827599386       -6.9418616866  W2        594             0.0000000000
      1782       594  TIP3      H2             14.6699015875      -30.1438399386       -6.4618816866  W2        594             0.0000000000
      1783       595  TIP3      OH2            15.0589515875      -31.3501099386       -5.2454516866  W2        595             0.0000000000
      1784       595  TIP3      H1             14.3324115875      -31.8298499386       -4.8476916866  W2        595             0.0000000000
      1785       595  TIP3      H2             15.6402815875      -31.1446399386       -4.5132916866  W2        595             0.0000000000
      1786       596  TIP3      OH2            14.8180715875      -28.5653599386       -0.2976916866  W2        596             0.0000000000
      1787       596  TIP3      H1             15.6514915875      -28.9433599386       -0.5783316866  W2        596             0.0000000000
      1788       596  TIP3      H2             14.9301015875      -27.6222399386       -0.4167816866  W2        596             0.0000000000
      1789       597  TIP3      OH2            13.3043015875      -25.6876099386        2.0091483134  W2        597             0.0000000000
      1790       597  TIP3      H1             12.6568315875      -25.3624599386        2.6346683134  W2        597             0.0000000000
      1791       597  TIP3      H2             12.7867015875      -26.1278399386        1.3349783134  W2        597             0.0000000000
      1792       598  TIP3      OH2            15.3272615875      -31.4492599386       -8.8543216866  W2        598             0.0000000000
      1793       598  TIP3      H1             14.8053715875      -31.0928499386       -9.5732316866  W2        598             0.0000000000
      1794       598  TIP3      H2             15.2941815875      -30.7744799386       -8.1762316866  W2        598             0.0000000000
      1795       599  TIP3      OH2            13.6761615875      -34.2096999386      -10.3036116866  W2        599             0.0000000000
      1796       599  TIP3      H1             13.7726015875      -33.5429999386      -10.9836416866  W2        599             0.0000000000
      1797       599  TIP3      H2             13.5361215875      -35.0250699386      -10.7850616866  W2        599             0.0000000000
      1798       600  TIP3      OH2            12.8456315875      -32.8294599386       -4.6825816866  W2        600             0.0000000000
      1799       600  TIP3      H1             12.6955115875      -33.7745999386       -4.7028016866  W2        600             0.0000000000
      1800       600  TIP3      H2             12.4920815875      -32.5483199386       -3.8386716866  W2        600             0.0000000000
      1801       601  TIP3      OH2            -2.1191284125      -30.7512399386       -0.6722016866  W2        601             0.0000000000
      1802       601  TIP3      H1             -1.9348384125      -30.8330699386       -1.6079116866  W2        601             0.0000000000
      1803       601  TIP3      H2             -1.2698384125      -30.8755399386       -0.2485616866  W2        601             0.0000000000
      1804       602  TIP3      OH2            13.7019215875      -30.8591299386        4.9562483134  W2        602             0.0000000000
      1805       602  TIP3      H1             14.2846515875      -31.5938999386        5.1479683134  W2        602             0.0000000000
      1806       602  TIP3      H2             14.2658515875      -30.0870999386        5.0028283134  W2        602             0.0000000000
      1807       603  TIP3      OH2            15.1986315875      -32.9565499386        5.6407883134  W2        603             0.0000000000
      1808       603  TIP3      H1             14.3353015875      -33.3353399386        5.4752583134  W2        603             0.0000000000
      1809       603  TIP3      H2             15.8030015875      -33.6950699386        5.5663683134  W2        603             0.0000000000
      1810       604  TIP3      OH2            12.9235415875      -36.8017199386      -11.1860616866  W2        604             0.0000000000
      1811       604  TIP3      H1             13.5341215875      -37.1730399386      -10.5492416866  W2        604             0.0000000000
      1812       604  TIP3      H2             12.0866915875      -37.2230299386      -10.9900616866  W2        604             0.0000000000
      1813       605  TIP3      OH2            12.5561115875      -35.2468799386       -6.2200716866  W2        605             0.0000000000
      1814       605  TIP3      H1             12.8358215875      -36.1538399386       -6.0959016866  W2        605             0.0000000000
      1815       605  TIP3      H2             13.3152815875      -34.8127299386       -6.6091516866  W2        605             0.0000000000
      1816       606  TIP3      OH2            13.1679415875      -34.6651399386       -0.7841816866  W2        606             0.0000000000
      1817       606  TIP3      H1             14.1007415875      -34.4531499386       -0.8185816866  W2        606             0.0000000000
      1818       606  TIP3      H2             12.9326915875      -34.5639299386        0.1381183134  W2        606             0.0000000000
      1819       607  TIP3      OH2            13.1971315875      -33.9286099386        1.9917583134  W2        607             0.0000000000
      1820       607  TIP3      H1             12.3542615875      -33.6605699386        2.3577383134  W2        607             0.0000000000
      1821       607  TIP3      H2             13.6395615875      -33.1064199386        1.7808683134  W2        607             0.0000000000
      1822       608  TIP3      OH2            -2.5216484125      -35.4807399386        5.4686783134  W2        608             0.0000000000
      1823       608  TIP3      H1             -1.6021584125      -35.6029099386        5.7049883134  W2        608             0.0000000000
      1824       608  TIP3      H2             -2.9711984125      -36.2307699386        5.8580283134  W2        608             0.0000000000
      1825       609  TIP3      OH2            15.4802915875      -39.9485899386        7.3452583134  W2        609             0.0000000000
      1826       609  TIP3      H1             15.8299915875      -40.6022399386        6.7397283134  W2        609             0.0000000000
      1827       609  TIP3      H2             15.6272415875      -39.1111799386        6.9055183134  W2        609             0.0000000000
      1828       610  TIP3      OH2            13.1695915875      -37.9839499386       -6.1718716866  W2        610             0.0000000000
      1829       610  TIP3      H1             13.3520915875      -38.4327999386       -5.3463716866  W2        610             0.0000000000
      1830       610  TIP3      H2             12.5698815875      -38.5685099386       -6.6354116866  W2        610             0.0000000000
      1831       611  TIP3      OH2            -1.3003984125      -37.1685799386       -1.6400316866  W2        611             0.0000000000
      1832       611  TIP3      H1             -0.8552384125      -37.9603299386       -1.3380616866  W2        611             0.0000000000
      1833       611  TIP3      H2             -0.8340984125      -36.4520599386       -1.2094716866  W2        611             0.0000000000
      1834       612  TIP3      OH2            -2.9963684125      -34.1692799386       -0.5710116866  W2        612             0.0000000000
      1835       612  TIP3      H1             -2.5043884125      -34.3902299386       -1.3618116866  W2        612             0.0000000000
      1836       612  TIP3      H2             -2.6342784125      -33.3289399386       -0.2900616866  W2        612             0.0000000000
      1837       613  TIP3      OH2            15.0000115875      -37.8391299386        5.6943883134  W2        613             0.0000000000
      1838       613  TIP3      H1             14.0825815875      -37.5684199386        5.6587383134  W2        613             0.0000000000
      1839       613  TIP3      H2             15.1229515875      -38.3742899386        4.9103583134  W2        613             0.0000000000
      1840       614  TIP3      OH2            15.0362115875      -37.9161399386       -9.6438416866  W2        614             0.0000000000
      1841       614  TIP3      H1             15.4484715875      -38.6375699386      -10.1190416866  W2        614             0.0000000000
      1842       614  TIP3      H2             15.7178615875      -37.2466799386       -9.5854116866  W2        614             0.0000000000
      1843       615  TIP3      OH2            -2.6827184125      -37.9113699386       -6.5167716866  W2        615             0.0000000000
      1844       615  TIP3      H1             -3.6078784125      -37.7027099386       -6.6462216866  W2        615             0.0000000000
      1845       615  TIP3      H2             -2.2287284125      -37.4272899386       -7.2065416866  W2        615             0.0000000000
      1846       616  TIP3      OH2            12.0880015875      -22.9271999386       -4.5710316866  W2        616             0.0000000000
      1847       616  TIP3      H1             12.7402915875      -23.2749899386       -5.1791216866  W2        616             0.0000000000
      1848       616  TIP3      H2             12.5983815875      -22.4388799386       -3.9250616866  W2        616             0.0000000000
      1849       617  TIP3      OH2            -2.7191784125      -39.1734699386        1.8274783134  W2        617             0.0000000000
      1850       617  TIP3      H1             -3.3841284125      -39.4194399386        2.4705683134  W2        617             0.0000000000
      1851       617  TIP3      H2             -3.1620484125      -38.5514299386        1.2502783134  W2        617             0.0000000000
      1852       618  TIP3      OH2            -0.5272484125      -25.9980599386        5.9720583134  W2        618             0.0000000000
      1853       618  TIP3      H1             -1.3479984125      -25.8234099386        5.5115283134  W2        618             0.0000000000
      1854       618  TIP3      H2             -0.7794684125      -26.0715899386        6.8924983134  W2        618             0.0000000000
      1855       619  TIP3      OH2             2.4270415875      -25.0239399386        2.2304583134  W2        619             0.0000000000
      1856       619  TIP3      H1              2.0021515875      -24.2140899386        1.9479183134  W2        619             0.0000000000
      1857       619  TIP3      H2              3.3313215875      -24.9385299386        1.9284383134  W2        619             0.0000000000
      1858       620  TIP3      OH2             6.7381815875      -23.6249399386        5.1898283134  W2        620             0.0000000000
      1859       620  TIP3      H1              6.9229315875      -23.9583299386        6.0678583134  W2        620             0.0000000000
      1860       620  TIP3      H2              7.5846315875      -23.3150799386        4.8677483134  W2        620             0.0000000000
      1861       621  TIP3      OH2             9.0832215875      -22.3390499386        4.4339683134  W2        621             0.0000000000
      1862       621  TIP3      H1              9.7601115875      -22.9718199386        4.1938883134  W2        621             0.0000000000
      1863       621  TIP3      H2              9.4051015875      -21.9379999386        5.2412983134  W2        621             0.0000000000
      1864       622  TIP3      OH2            14.0006015875      -39.7494999386        3.5134683134  W2        622             0.0000000000
      1865       622  TIP3      H1             13.1879515875      -39.4244699386        3.1259383134  W2        622             0.0000000000
      1866       622  TIP3      H2             14.2334515875      -40.5096499386        2.9803783134  W2        622             0.0000000000
      1867       623  TIP3      OH2            -0.1712884125      -21.7675499386        2.2779883134  W2        623             0.0000000000
      1868       623  TIP3      H1             -0.8916484125      -21.3274499386        1.8267583134  W2        623             0.0000000000
      1869       623  TIP3      H2             -0.5368884125      -22.0180799386        3.1263883134  W2        623             0.0000000000
      1870       624  TIP3      OH2             2.2959715875      -22.1671599386        1.3077083134  W2        624             0.0000000000
      1871       624  TIP3      H1              1.4311915875      -22.0953099386        1.7117183134  W2        624             0.0000000000
      1872       624  TIP3      H2              2.2408715875      -21.6204299386        0.5239583134  W2        624             0.0000000000
      1873       625  TIP3      OH2             7.0065315875      -22.2792699386        0.4833083134  W2        625             0.0000000000
      1874       625  TIP3      H1              6.5499315875      -21.7502999386       -0.1708516866  W2        625             0.0000000000
      1875       625  TIP3      H2              7.1693315875      -21.6761299386        1.2085383134  W2        625             0.0000000000
      1876       626  TIP3      OH2             9.3341615875      -23.4013099386        1.4283383134  W2        626             0.0000000000
      1877       626  TIP3      H1              8.4295315875      -23.2362899386        1.1625483134  W2        626             0.0000000000
      1878       626  TIP3      H2              9.7630215875      -22.5480899386        1.3626783134  W2        626             0.0000000000
      1879       627  TIP3      OH2            11.9383515875      -21.8313999386        1.7231183134  W2        627             0.0000000000
      1880       627  TIP3      H1             11.7565515875      -20.9155099386        1.5126083134  W2        627             0.0000000000
      1881       627  TIP3      H2             12.1151315875      -22.2416899386        0.8765783134  W2        627             0.0000000000
      1882       628  TIP3      OH2            -0.7564784125      -23.1442999386       -0.8118316866  W2        628             0.0000000000
      1883       628  TIP3      H1             -0.7748784125      -23.5697899386        0.0453983134  W2        628             0.0000000000
      1884       628  TIP3      H2              0.0483115875      -23.4627999386       -1.2206116866  W2        628             0.0000000000
      1885       629  TIP3      OH2             1.3848315875      -24.4344299386       -2.1568416866  W2        629             0.0000000000
      1886       629  TIP3      H1              1.1659015875      -25.3506899386       -1.9872416866  W2        629             0.0000000000
      1887       629  TIP3      H2              2.2090515875      -24.2943899386       -1.6907016866  W2        629             0.0000000000
      1888       630  TIP3      OH2             3.9220815875      -23.9644999386       -1.3080416866  W2        630             0.0000000000
      1889       630  TIP3      H1              4.1346515875      -24.8525999386       -1.5949516866  W2        630             0.0000000000
      1890       630  TIP3      H2              3.9865915875      -23.9987299386       -0.3536416866  W2        630             0.0000000000
      1891       631  TIP3      OH2             7.4304515875      -38.3004399386       -2.1637116866  W2        631             0.0000000000
      1892       631  TIP3      H1              6.7561315875      -38.9298799386       -1.9081316866  W2        631             0.0000000000
      1893       631  TIP3      H2              7.9943715875      -38.7845499386       -2.7669216866  W2        631             0.0000000000
      1894       632  TIP3      OH2            12.5731715875      -40.1930399386       -2.0510016866  W2        632             0.0000000000
      1895       632  TIP3      H1             13.1769315875      -39.6454999386       -2.5529016866  W2        632             0.0000000000
      1896       632  TIP3      H2             11.7033715875      -39.8739999386       -2.2915916866  W2        632             0.0000000000
      1897       633  TIP3      OH2            14.3002115875      -39.0541699386       -3.7179116866  W2        633             0.0000000000
      1898       633  TIP3      H1             14.9119615875      -39.5685999386       -4.2445516866  W2        633             0.0000000000
      1899       633  TIP3      H2             14.6825515875      -38.1769599386       -3.6944716866  W2        633             0.0000000000
      1900       634  TIP3      OH2            -0.2427984125      -39.6664099386       -4.3417216866  W2        634             0.0000000000
      1901       634  TIP3      H1             -1.0198184125      -39.9009199386       -4.8491316866  W2        634             0.0000000000
      1902       634  TIP3      H2              0.2875615875      -40.4631999386       -4.3329216866  W2        634             0.0000000000
      1903       635  TIP3      OH2            -1.4064584125      -39.8685999386       -8.5381116866  W2        635             0.0000000000
      1904       635  TIP3      H1             -0.9673884125      -39.2575499386       -9.1297616866  W2        635             0.0000000000
      1905       635  TIP3      H2             -2.0402184125      -39.3301899386       -8.0641116866  W2        635             0.0000000000
      1906       636  TIP3      OH2             4.3364615875      -39.7396999386       -4.5284116866  W2        636             0.0000000000
      1907       636  TIP3      H1              5.2108015875      -39.3512699386       -4.5579816866  W2        636             0.0000000000
      1908       636  TIP3      H2              4.2005415875      -39.9549199386       -3.6056916866  W2        636             0.0000000000
      1909       637  TIP3      OH2             9.8933015875      -39.7097199386       -2.8792416866  W2        637             0.0000000000
      1910       637  TIP3      H1              9.9694615875      -39.6145599386       -3.8286416866  W2        637             0.0000000000
      1911       637  TIP3      H2              9.6182215875      -40.6174299386       -2.7503316866  W2        637             0.0000000000
      1912       638  TIP3      OH2            11.2465615875      -39.6839399386       -7.1867416866  W2        638             0.0000000000
      1913       638  TIP3      H1             10.5436715875      -39.0690199386       -7.3966016866  W2        638             0.0000000000
      1914       638  TIP3      H2             10.8017015875      -40.5212699386       -7.0556516866  W2        638             0.0000000000
      1915       639  TIP3      OH2            -1.5055084125      -23.9203799386       -7.6406016866  W2        639             0.0000000000
      1916       639  TIP3      H1             -2.1905184125      -23.9584899386       -8.3080916866  W2        639             0.0000000000
      1917       639  TIP3      H2             -1.5017884125      -23.0076199386       -7.3523916866  W2        639             0.0000000000
      1918       640  TIP3      OH2             0.4544515875      -37.9524499386      -10.0957016866  W2        640             0.0000000000
      1919       640  TIP3      H1              0.9457915875      -38.5822099386      -10.6231516866  W2        640             0.0000000000
      1920       640  TIP3      H2              1.0780815875      -37.6565099386       -9.4325816866  W2        640             0.0000000000
      1921       641  TIP3      OH2             5.4804615875      -37.6592999386       -7.6386516866  W2        641             0.0000000000
      1922       641  TIP3      H1              5.6585915875      -38.3059799386       -6.9557916866  W2        641             0.0000000000
      1923       641  TIP3      H2              5.4270815875      -36.8255299386       -7.1715416866  W2        641             0.0000000000
      1924       642  TIP3      OH2             7.3588415875      -22.7108899386       -9.2429816866  W2        642             0.0000000000
      1925       642  TIP3      H1              8.2248615875      -22.3441499386       -9.4211616866  W2        642             0.0000000000
      1926       642  TIP3      H2              7.1121215875      -23.1500899386      -10.0569016866  W2        642             0.0000000000
      1927       643  TIP3      OH2            14.0678015875      -23.1478599386       -6.5638716866  W2        643             0.0000000000
      1928       643  TIP3      H1             13.8735115875      -23.8956499386       -7.1289116866  W2        643             0.0000000000
      1929       643  TIP3      H2             14.0288115875      -22.3898499386       -7.1470816866  W2        643             0.0000000000
      1930       644  TIP3      OH2            -0.2849984125      -39.1522199386        5.1758983134  W2        644             0.0000000000
      1931       644  TIP3      H1             -0.6511784125      -39.9179599386        5.6183683134  W2        644             0.0000000000
      1932       644  TIP3      H2              0.6278515875      -39.1231999386        5.4624083134  W2        644             0.0000000000
      1933       645  TIP3      OH2             1.6880815875      -39.8017799386        6.7116083134  W2        645             0.0000000000
      1934       645  TIP3      H1              2.5864415875      -40.0757599386        6.5269483134  W2        645             0.0000000000
      1935       645  TIP3      H2              1.3013915875      -40.5441799386        7.1758683134  W2        645             0.0000000000
      1936       646  TIP3      OH2             0.3126115875      -23.0002999386      -10.6153916866  W2        646             0.0000000000
      1937       646  TIP3      H1              0.0450715875      -22.7140099386       -9.7420816866  W2        646             0.0000000000
      1938       646  TIP3      H2              1.0838715875      -23.5463799386      -10.4631416866  W2        646             0.0000000000
      1939       647  TIP3      OH2            10.1093115875      -40.4692499386        6.8938883134  W2        647             0.0000000000
      1940       647  TIP3      H1             10.1860315875      -40.8951799386        7.7476583134  W2        647             0.0000000000
      1941       647  TIP3      H2             11.0029715875      -40.4557799386        6.5512383134  W2        647             0.0000000000
      1942       648  TIP3      OH2            13.2854215875      -24.3966199386        5.5863083134  W2        648             0.0000000000
      1943       648  TIP3      H1             12.5036115875      -24.5828199386        5.0663683134  W2        648             0.0000000000
      1944       648  TIP3      H2             13.2134115875      -23.4671899386        5.8035583134  W2        648             0.0000000000
      1945       649  TIP3      OH2            27.6914615875      -30.5101799386       -4.3829716866  W2        649             0.0000000000
      1946       649  TIP3      H1             27.7805715875      -29.5663599386       -4.5152616866  W2        649             0.0000000000
      1947       649  TIP3      H2             27.0532215875      -30.7855399386       -5.0410316866  W2        649             0.0000000000
      1948       650  TIP3      OH2            26.6245915875      -31.2551099386       -0.9641516866  W2        650             0.0000000000
      1949       650  TIP3      H1             26.5863415875      -31.9014799386       -0.2591916866  W2        650             0.0000000000
      1950       650  TIP3      H2             26.3022415875      -31.7216699386       -1.7352816866  W2        650             0.0000000000
      1951       651  TIP3      OH2            18.9930915875      -31.6408999386        0.6288383134  W2        651             0.0000000000
      1952       651  TIP3      H1             19.0343015875      -32.2665699386        1.3520783134  W2        651             0.0000000000
      1953       651  TIP3      H2             19.6958615875      -31.0170399386        0.8108783134  W2        651             0.0000000000
      1954       652  TIP3      OH2            30.3306115875      -28.3160699386       -2.6626416866  W2        652             0.0000000000
      1955       652  TIP3      H1             29.8898815875      -29.0364699386       -2.2120816866  W2        652             0.0000000000
      1956       652  TIP3      H2             30.3175815875      -27.5953499386       -2.0328716866  W2        652             0.0000000000
      1957       653  TIP3      OH2            19.9164015875      -27.1910099386       -0.8362516866  W2        653             0.0000000000
      1958       653  TIP3      H1             19.5469215875      -27.9929599386       -1.2058216866  W2        653             0.0000000000
      1959       653  TIP3      H2             20.8575115875      -27.3595199386       -0.7899116866  W2        653             0.0000000000
      1960       654  TIP3      OH2            16.5264515875      -33.5307499386       -5.4433716866  W2        654             0.0000000000
      1961       654  TIP3      H1             16.0787915875      -32.6848799386       -5.4617216866  W2        654             0.0000000000
      1962       654  TIP3      H2             15.9655715875      -34.1103299386       -5.9588616866  W2        654             0.0000000000
      1963       655  TIP3      OH2            17.2370615875      -31.3687899386       -3.3175716866  W2        655             0.0000000000
      1964       655  TIP3      H1             17.4504115875      -32.1386299386       -2.7902716866  W2        655             0.0000000000
      1965       655  TIP3      H2             17.9748215875      -31.2791199386       -3.9208116866  W2        655             0.0000000000
      1966       656  TIP3      OH2            27.4421615875      -23.2118999386       -2.4506016866  W2        656             0.0000000000
      1967       656  TIP3      H1             28.0618015875      -23.8884299386       -2.7236816866  W2        656             0.0000000000
      1968       656  TIP3      H2             27.2339015875      -23.4298199386       -1.5421116866  W2        656             0.0000000000
      1969       657  TIP3      OH2            25.0140315875      -28.8229699386       -0.5580516866  W2        657             0.0000000000
      1970       657  TIP3      H1             25.3178215875      -29.5088299386       -1.1526416866  W2        657             0.0000000000
      1971       657  TIP3      H2             25.7354315875      -28.7040999386        0.0597483134  W2        657             0.0000000000
      1972       658  TIP3      OH2            33.6770115875      -37.2214399386        0.3025683134  W2        658             0.0000000000
      1973       658  TIP3      H1             33.7262315875      -36.6113199386        1.0384783134  W2        658             0.0000000000
      1974       658  TIP3      H2             34.1025215875      -36.7603499386       -0.4203216866  W2        658             0.0000000000
      1975       659  TIP3      OH2            28.1547315875      -34.4287299386       -0.2305716866  W2        659             0.0000000000
      1976       659  TIP3      H1             28.2973215875      -35.3750299386       -0.2104116866  W2        659             0.0000000000
      1977       659  TIP3      H2             28.0486315875      -34.2217499386       -1.1590816866  W2        659             0.0000000000
      1978       660  TIP3      OH2            21.3095615875      -36.3270899386       -2.9580916866  W2        660             0.0000000000
      1979       660  TIP3      H1             21.3526715875      -35.4672399386       -3.3764616866  W2        660             0.0000000000
      1980       660  TIP3      H2             20.8519715875      -36.8796199386       -3.5917716866  W2        660             0.0000000000
      1981       661  TIP3      OH2            29.0318315875      -36.1965299386       -4.5572616866  W2        661             0.0000000000
      1982       661  TIP3      H1             29.6782615875      -36.5252099386       -3.9325016866  W2        661             0.0000000000
      1983       661  TIP3      H2             29.5417715875      -35.6786299386       -5.1801216866  W2        661             0.0000000000
      1984       662  TIP3      OH2            17.9297115875      -33.9305099386       -2.1959516866  W2        662             0.0000000000
      1985       662  TIP3      H1             18.5833715875      -34.4803399386       -1.7639416866  W2        662             0.0000000000
      1986       662  TIP3      H2             17.9536415875      -34.2046099386       -3.1127516866  W2        662             0.0000000000
      1987       663  TIP3      OH2            23.0861615875      -32.3803799386       -2.9808016866  W2        663             0.0000000000
      1988       663  TIP3      H1             23.7022615875      -32.9068399386       -2.4714016866  W2        663             0.0000000000
      1989       663  TIP3      H2             22.5000415875      -33.0205099386       -3.3844416866  W2        663             0.0000000000
      1990       664  TIP3      OH2            34.0684715875      -35.7435199386        2.5385483134  W2        664             0.0000000000
      1991       664  TIP3      H1             33.3799315875      -35.0854499386        2.4432083134  W2        664             0.0000000000
      1992       664  TIP3      H2             34.0839315875      -35.9407299386        3.4750883134  W2        664             0.0000000000
      1993       665  TIP3      OH2            20.1197515875      -37.4092499386        1.1159883134  W2        665             0.0000000000
      1994       665  TIP3      H1             19.9009215875      -36.8791899386        0.3495883134  W2        665             0.0000000000
      1995       665  TIP3      H2             19.4518415875      -37.1826999386        1.7631283134  W2        665             0.0000000000
      1996       666  TIP3      OH2            27.4887315875      -27.9091399386       -5.3401016866  W2        666             0.0000000000
      1997       666  TIP3      H1             27.1932415875      -28.2319099386       -6.1914116866  W2        666             0.0000000000
      1998       666  TIP3      H2             27.1645115875      -27.0094699386       -5.2988416866  W2        666             0.0000000000
      1999       667  TIP3      OH2            22.6888915875      -29.7336799386        1.4033583134  W2        667             0.0000000000
      2000       667  TIP3      H1             21.9488015875      -29.1355299386        1.5068783134  W2        667             0.0000000000
      2001       667  TIP3      H2             23.4028415875      -29.1797199386        1.0877183134  W2        667             0.0000000000
      2002       668  TIP3      OH2            30.7956715875      -36.9055999386       -2.5766716866  W2        668             0.0000000000
      2003       668  TIP3      H1             30.5804715875      -37.6712599386       -2.0440716866  W2        668             0.0000000000
      2004       668  TIP3      H2             31.4514115875      -36.4331399386       -2.0638216866  W2        668             0.0000000000
      2005       669  TIP3      OH2            19.7134815875      -35.5170699386       -0.9317916866  W2        669             0.0000000000
      2006       669  TIP3      H1             20.3271115875      -34.8843099386       -0.5585516866  W2        669             0.0000000000
      2007       669  TIP3      H2             20.2255515875      -35.9895699386       -1.5881016866  W2        669             0.0000000000
      2008       670  TIP3      OH2            21.0963215875      -27.7693799386        2.1905083134  W2        670             0.0000000000
      2009       670  TIP3      H1             21.0910815875      -26.8900299386        1.8124383134  W2        670             0.0000000000
      2010       670  TIP3      H2             20.2427315875      -27.8529699386        2.6154983134  W2        670             0.0000000000
      2011       671  TIP3      OH2            17.2174115875      -28.0985899386       -7.0275616866  W2        671             0.0000000000
      2012       671  TIP3      H1             16.9455015875      -27.8694899386       -7.9162716866  W2        671             0.0000000000
      2013       671  TIP3      H2             17.2629815875      -27.2607099386       -6.5670316866  W2        671             0.0000000000
      2014       672  TIP3      OH2            30.8423815875      -26.4769999386       -0.3147116866  W2        672             0.0000000000
      2015       672  TIP3      H1             29.9007515875      -26.4186099386       -0.1530216866  W2        672             0.0000000000
      2016       672  TIP3      H2             31.1189915875      -25.5709499386       -0.4517416866  W2        672             0.0000000000
      2017       673  TIP3      OH2            31.1430815875      -38.1904699386        1.1026783134  W2        673             0.0000000000
      2018       673  TIP3      H1             30.4070015875      -37.5797599386        1.0648083134  W2        673             0.0000000000
      2019       673  TIP3      H2             31.8264815875      -37.7755699386        0.5763183134  W2        673             0.0000000000
      2020       674  TIP3      OH2            24.1462215875      -40.1037399386       -1.4315216866  W2        674             0.0000000000
      2021       674  TIP3      H1             24.0286415875      -41.0521399386       -1.4856916866  W2        674             0.0000000000
      2022       674  TIP3      H2             23.2912315875      -39.7711299386       -1.1584116866  W2        674             0.0000000000
      2023       675  TIP3      OH2            29.0945015875      -24.6956499386       -3.6895516866  W2        675             0.0000000000
      2024       675  TIP3      H1             29.5197315875      -25.4028599386       -4.1745916866  W2        675             0.0000000000
      2025       675  TIP3      H2             29.4115015875      -23.8943799386       -4.1063316866  W2        675             0.0000000000
      2026       676  TIP3      OH2            30.2541515875      -26.7947999386       -5.1808916866  W2        676             0.0000000000
      2027       676  TIP3      H1             29.9966315875      -27.4847899386       -5.7923016866  W2        676             0.0000000000
      2028       676  TIP3      H2             30.3252315875      -27.2376799386       -4.3353016866  W2        676             0.0000000000
      2029       677  TIP3      OH2            31.9401715875      -28.2281299386        3.2964583134  W2        677             0.0000000000
      2030       677  TIP3      H1             32.0798015875      -28.8198799386        2.5571583134  W2        677             0.0000000000
      2031       677  TIP3      H2             32.1074515875      -27.3555399386        2.9403383134  W2        677             0.0000000000
      2032       678  TIP3      OH2            26.4127115875      -31.2661799386       -6.9309416866  W2        678             0.0000000000
      2033       678  TIP3      H1             25.7012615875      -30.7312099386       -7.2828916866  W2        678             0.0000000000
      2034       678  TIP3      H2             27.1036715875      -31.2109699386       -7.5910516866  W2        678             0.0000000000
      2035       679  TIP3      OH2            26.4666315875      -32.8087499386       -9.8924416866  W2        679             0.0000000000
      2036       679  TIP3      H1             27.1676215875      -32.7860599386       -9.2410416866  W2        679             0.0000000000
      2037       679  TIP3      H2             26.7689215875      -33.4367799386      -10.5485116866  W2        679             0.0000000000
      2038       680  TIP3      OH2            33.7821015875      -31.8883299386        1.3624983134  W2        680             0.0000000000
      2039       680  TIP3      H1             33.1295115875      -31.1937699386        1.4515883134  W2        680             0.0000000000
      2040       680  TIP3      H2             34.2471315875      -31.6782399386        0.5526583134  W2        680             0.0000000000
      2041       681  TIP3      OH2            29.8184815875      -31.0568499386       -5.9793516866  W2        681             0.0000000000
      2042       681  TIP3      H1             29.0865815875      -30.8284799386       -5.4062916866  W2        681             0.0000000000
      2043       681  TIP3      H2             30.2657015875      -31.7705799386       -5.5246016866  W2        681             0.0000000000
      2044       682  TIP3      OH2            29.7158315875      -32.8825899386        3.0883483134  W2        682             0.0000000000
      2045       682  TIP3      H1             29.7957415875      -32.1191499386        3.6601983134  W2        682             0.0000000000
      2046       682  TIP3      H2             29.1146015875      -32.6033499386        2.3978583134  W2        682             0.0000000000
      2047       683  TIP3      OH2            21.4638515875      -30.4262299386       -4.0968516866  W2        683             0.0000000000
      2048       683  TIP3      H1             21.1333715875      -30.7968899386       -4.9151516866  W2        683             0.0000000000
      2049       683  TIP3      H2             22.0522615875      -31.0968299386       -3.7500216866  W2        683             0.0000000000
      2050       684  TIP3      OH2            22.8306015875      -26.9981699386       -1.4156316866  W2        684             0.0000000000
      2051       684  TIP3      H1             22.7357315875      -27.5768599386       -2.1721716866  W2        684             0.0000000000
      2052       684  TIP3      H2             23.5599615875      -27.3695999386       -0.9193516866  W2        684             0.0000000000
      2053       685  TIP3      OH2            21.8304015875      -31.6576699386       -0.4633516866  W2        685             0.0000000000
      2054       685  TIP3      H1             22.3956515875      -31.5362499386       -1.2262316866  W2        685             0.0000000000
      2055       685  TIP3      H2             22.1492915875      -31.0201699386        0.1754983134  W2        685             0.0000000000
      2056       686  TIP3      OH2            28.1396215875      -26.1544799386        0.2706983134  W2        686             0.0000000000
      2057       686  TIP3      H1             27.8992815875      -25.4921699386        0.9186183134  W2        686             0.0000000000
      2058       686  TIP3      H2             27.9414415875      -26.9889599386        0.6956583134  W2        686             0.0000000000
      2059       687  TIP3      OH2            22.7104715875      -27.2583999386        4.2538383134  W2        687             0.0000000000
      2060       687  TIP3      H1             22.3992215875      -26.4760799386        4.7091583134  W2        687             0.0000000000
      2061       687  TIP3      H2             22.0604915875      -27.4114899386        3.5680383134  W2        687             0.0000000000
      2062       688  TIP3      OH2            28.6894315875      -31.8945599386       -8.2942316866  W2        688             0.0000000000
      2063       688  TIP3      H1             29.2689815875      -31.7445299386       -7.5473416866  W2        688             0.0000000000
      2064       688  TIP3      H2             29.1034315875      -31.4238199386       -9.0175916866  W2        688             0.0000000000
      2065       689  TIP3      OH2            19.6304615875      -31.0602899386        3.4824083134  W2        689             0.0000000000
      2066       689  TIP3      H1             19.7007815875      -30.4096099386        4.1809083134  W2        689             0.0000000000
      2067       689  TIP3      H2             18.7396815875      -30.9575399386        3.1474983134  W2        689             0.0000000000
      2068       690  TIP3      OH2            26.4159215875      -25.1577099386       -4.8589216866  W2        690             0.0000000000
      2069       690  TIP3      H1             26.8896815875      -24.8620799386       -4.0815016866  W2        690             0.0000000000
      2070       690  TIP3      H2             25.8528515875      -24.4195499386       -5.0919616866  W2        690             0.0000000000
      2071       691  TIP3      OH2            20.9500615875      -25.1868999386        5.0172183134  W2        691             0.0000000000
      2072       691  TIP3      H1             20.9575915875      -25.3229299386        4.0697683134  W2        691             0.0000000000
      2073       691  TIP3      H2             20.0341015875      -25.3040899386        5.2692183134  W2        691             0.0000000000
      2074       692  TIP3      OH2            32.3882715875      -40.1445199386       -8.4812616866  W2        692             0.0000000000
      2075       692  TIP3      H1             31.4883415875      -40.0056199386       -8.1862016866  W2        692             0.0000000000
      2076       692  TIP3      H2             32.6401115875      -39.3130599386       -8.8830916866  W2        692             0.0000000000
      2077       693  TIP3      OH2            20.4541215875      -31.3567999386       -6.5075716866  W2        693             0.0000000000
      2078       693  TIP3      H1             20.1622515875      -30.5886299386       -6.9984416866  W2        693             0.0000000000
      2079       693  TIP3      H2             19.7796415875      -32.0161799386       -6.6704316866  W2        693             0.0000000000
      2080       694  TIP3      OH2            33.5774115875      -25.7782799386      -10.1048716866  W2        694             0.0000000000
      2081       694  TIP3      H1             33.6507615875      -24.8392599386       -9.9343416866  W2        694             0.0000000000
      2082       694  TIP3      H2             34.4829215875      -26.0834199386      -10.1611416866  W2        694             0.0000000000
      2083       695  TIP3      OH2            16.5471315875      -28.9938799386        2.3074083134  W2        695             0.0000000000
      2084       695  TIP3      H1             16.0459715875      -29.0219399386        1.4923783134  W2        695             0.0000000000
      2085       695  TIP3      H2             16.5525015875      -29.8995599386        2.6171383134  W2        695             0.0000000000
      2086       696  TIP3      OH2            16.2974015875      -26.2134999386       -0.8085716866  W2        696             0.0000000000
      2087       696  TIP3      H1             17.2434615875      -26.3577999386       -0.8276216866  W2        696             0.0000000000
      2088       696  TIP3      H2             16.1850315875      -25.4292199386       -0.2714516866  W2        696             0.0000000000
      2089       697  TIP3      OH2            34.4952515875      -25.5475299386        4.8737983134  W2        697             0.0000000000
      2090       697  TIP3      H1             34.4459315875      -26.5027199386        4.8365583134  W2        697             0.0000000000
      2091       697  TIP3      H2             33.6684815875      -25.2799999386        5.2751783134  W2        697             0.0000000000
      2092       698  TIP3      OH2            25.4736515875      -25.9736099386        3.7499383134  W2        698             0.0000000000
      2093       698  TIP3      H1             25.5611115875      -25.1471499386        4.2248483134  W2        698             0.0000000000
      2094       698  TIP3      H2             24.6101615875      -26.3032299386        3.9988683134  W2        698             0.0000000000
      2095       699  TIP3      OH2            25.8882315875      -22.2012399386       -6.4440016866  W2        699             0.0000000000
      2096       699  TIP3      H1             25.8128315875      -22.3225199386       -7.3904816866  W2        699             0.0000000000
      2097       699  TIP3      H2             25.9211015875      -21.2519699386       -6.3255416866  W2        699             0.0000000000
      2098       700  TIP3      OH2            19.5416115875      -23.4125399386       -4.6631016866  W2        700             0.0000000000
      2099       700  TIP3      H1             19.6936515875      -23.7604999386       -3.7844516866  W2        700             0.0000000000
      2100       700  TIP3      H2             18.6906515875      -23.7688099386       -4.9183816866  W2        700             0.0000000000
      2101       701  TIP3      OH2            28.9898315875      -23.0472199386       -9.4417616866  W2        701             0.0000000000
      2102       701  TIP3      H1             29.3646715875      -23.7916099386       -9.9125016866  W2        701             0.0000000000
      2103       701  TIP3      H2             28.9942015875      -23.3171599386       -8.5234316866  W2        701             0.0000000000
      2104       702  TIP3      OH2            28.6586415875      -23.1215099386       -6.6925416866  W2        702             0.0000000000
      2105       702  TIP3      H1             27.7236215875      -23.0213199386       -6.5138416866  W2        702             0.0000000000
      2106       702  TIP3      H2             28.9388315875      -23.8309099386       -6.1142216866  W2        702             0.0000000000
      2107       703  TIP3      OH2            31.6472315875      -34.0542799386        5.3540183134  W2        703             0.0000000000
      2108       703  TIP3      H1             31.2399115875      -33.5737199386        4.6333483134  W2        703             0.0000000000
      2109       703  TIP3      H2             31.6878015875      -34.9596799386        5.0460983134  W2        703             0.0000000000
      2110       704  TIP3      OH2            18.7961815875      -27.6703399386        3.3506883134  W2        704             0.0000000000
      2111       704  TIP3      H1             19.0123115875      -28.0317799386        4.2102683134  W2        704             0.0000000000
      2112       704  TIP3      H2             17.9406515875      -28.0449599386        3.1410383134  W2        704             0.0000000000
      2113       705  TIP3      OH2            21.4149815875      -39.2002899386       -0.6538916866  W2        705             0.0000000000
      2114       705  TIP3      H1             20.5533515875      -39.2874699386       -1.0616016866  W2        705             0.0000000000
      2115       705  TIP3      H2             21.3925515875      -38.3442799386       -0.2261316866  W2        705             0.0000000000
      2116       706  TIP3      OH2            26.0777615875      -39.4782499386        2.7208083134  W2        706             0.0000000000
      2117       706  TIP3      H1             26.4980715875      -39.8935399386        3.4738683134  W2        706             0.0000000000
      2118       706  TIP3      H2             25.1447215875      -39.6569199386        2.8380083134  W2        706             0.0000000000
      2119       707  TIP3      OH2            29.4042515875      -35.7227299386        3.5742583134  W2        707             0.0000000000
      2120       707  TIP3      H1             28.8902015875      -35.8485099386        4.3718583134  W2        707             0.0000000000
      2121       707  TIP3      H2             29.2487215875      -34.8104199386        3.3298783134  W2        707             0.0000000000
      2122       708  TIP3      OH2            30.1667415875      -30.8617299386      -10.6644416866  W2        708             0.0000000000
      2123       708  TIP3      H1             30.2088215875      -31.0843399386      -11.5944416866  W2        708             0.0000000000
      2124       708  TIP3      H2             31.0159515875      -30.4630199386      -10.4744516866  W2        708             0.0000000000
      2125       709  TIP3      OH2            25.7394915875      -36.9859099386       -9.9941116866  W2        709             0.0000000000
      2126       709  TIP3      H1             25.4859715875      -36.9667499386       -9.0713016866  W2        709             0.0000000000
      2127       709  TIP3      H2             25.4827015875      -37.8573699386      -10.2954916866  W2        709             0.0000000000
      2128       710  TIP3      OH2            21.5059915875      -34.2348399386        0.4411283134  W2        710             0.0000000000
      2129       710  TIP3      H1             20.8642015875      -34.2751099386        1.1501383134  W2        710             0.0000000000
      2130       710  TIP3      H2             21.5431915875      -33.3083699386        0.2034283134  W2        710             0.0000000000
      2131       711  TIP3      OH2            21.5029015875      -34.0138299386       -4.6468716866  W2        711             0.0000000000
      2132       711  TIP3      H1             20.6101915875      -34.3542199386       -4.7054916866  W2        711             0.0000000000
      2133       711  TIP3      H2             21.9535615875      -34.3907399386       -5.4025516866  W2        711             0.0000000000
      2134       712  TIP3      OH2            27.0384515875      -33.5977999386       -5.8297916866  W2        712             0.0000000000
      2135       712  TIP3      H1             26.6294815875      -32.7829399386       -6.1213116866  W2        712             0.0000000000
      2136       712  TIP3      H2             27.7590715875      -33.7377899386       -6.4440816866  W2        712             0.0000000000
      2137       713  TIP3      OH2            26.1406115875      -33.4221599386        5.6582783134  W2        713             0.0000000000
      2138       713  TIP3      H1             25.5779915875      -34.1269999386        5.9790583134  W2        713             0.0000000000
      2139       713  TIP3      H2             26.9669515875      -33.5429699386        6.1260383134  W2        713             0.0000000000
      2140       714  TIP3      OH2            28.0432215875      -34.1517599386       -3.0158216866  W2        714             0.0000000000
      2141       714  TIP3      H1             27.8476715875      -33.5460799386       -3.7307616866  W2        714             0.0000000000
      2142       714  TIP3      H2             28.2244815875      -34.9852399386       -3.4501916866  W2        714             0.0000000000
      2143       715  TIP3      OH2            19.2560415875      -33.9144899386        2.3083283134  W2        715             0.0000000000
      2144       715  TIP3      H1             19.2179815875      -33.5143299386        3.1770383134  W2        715             0.0000000000
      2145       715  TIP3      H2             18.7651515875      -34.7312499386        2.3986183134  W2        715             0.0000000000
      2146       716  TIP3      OH2            22.6217815875      -36.5402599386      -10.8930716866  W2        716             0.0000000000
      2147       716  TIP3      H1             22.1908515875      -36.9852499386      -10.1633316866  W2        716             0.0000000000
      2148       716  TIP3      H2             21.9036515875      -36.1686299386      -11.4053216866  W2        716             0.0000000000
      2149       717  TIP3      OH2            15.8641215875      -36.7983099386       -3.8412016866  W2        717             0.0000000000
      2150       717  TIP3      H1             16.4948915875      -36.8270999386       -3.1218116866  W2        717             0.0000000000
      2151       717  TIP3      H2             16.3135515875      -37.2234399386       -4.5716116866  W2        717             0.0000000000
      2152       718  TIP3      OH2            17.1383315875      -36.0521099386       -8.4171616866  W2        718             0.0000000000
      2153       718  TIP3      H1             17.6125015875      -35.4611199386       -9.0020716866  W2        718             0.0000000000
      2154       718  TIP3      H2             16.4209715875      -35.5218199386       -8.0701516866  W2        718             0.0000000000
      2155       719  TIP3      OH2            27.3071415875      -32.5136299386        1.6554183134  W2        719             0.0000000000
      2156       719  TIP3      H1             27.6306215875      -33.1446599386        1.0124683134  W2        719             0.0000000000
      2157       719  TIP3      H2             26.8670715875      -33.0484099386        2.3161583134  W2        719             0.0000000000
      2158       720  TIP3      OH2            24.0844315875      -36.5860799386       -3.5604616866  W2        720             0.0000000000
      2159       720  TIP3      H1             23.1735415875      -36.5293999386       -3.2718616866  W2        720             0.0000000000
      2160       720  TIP3      H2             24.5897215875      -36.6465299386       -2.7497416866  W2        720             0.0000000000
      2161       721  TIP3      OH2            18.9127715875      -34.9574499386       -4.7337016866  W2        721             0.0000000000
      2162       721  TIP3      H1             18.0235715875      -34.8578999386       -5.0737416866  W2        721             0.0000000000
      2163       721  TIP3      H2             19.2092615875      -35.7991499386       -5.0799116866  W2        721             0.0000000000
      2164       722  TIP3      OH2            22.5659515875      -34.9571899386       -7.0772416866  W2        722             0.0000000000
      2165       722  TIP3      H1             23.4975015875      -34.8281899386       -6.8989316866  W2        722             0.0000000000
      2166       722  TIP3      H2             22.3509815875      -34.2877599386       -7.7267716866  W2        722             0.0000000000
      2167       723  TIP3      OH2            28.4896215875      -37.3514499386       -0.2962816866  W2        723             0.0000000000
      2168       723  TIP3      H1             27.8127815875      -37.2201399386        0.3676883134  W2        723             0.0000000000
      2169       723  TIP3      H2             28.0041115875      -37.5064999386       -1.1065116866  W2        723             0.0000000000
      2170       724  TIP3      OH2            21.2399715875      -33.7629699386       -9.5106316866  W2        724             0.0000000000
      2171       724  TIP3      H1             20.6974815875      -34.1425899386      -10.2018716866  W2        724             0.0000000000
      2172       724  TIP3      H2             22.0734615875      -33.5684999386       -9.9392216866  W2        724             0.0000000000
      2173       725  TIP3      OH2            31.7771315875      -21.6799099386        5.9804783134  W2        725             0.0000000000
      2174       725  TIP3      H1             31.9770015875      -21.2557199386        5.1460083134  W2        725             0.0000000000
      2175       725  TIP3      H2             32.4325015875      -21.3360899386        6.5875183134  W2        725             0.0000000000
      2176       726  TIP3      OH2            19.3751115875      -29.2057799386        5.5885283134  W2        726             0.0000000000
      2177       726  TIP3      H1             20.1073515875      -28.9511899386        6.1499783134  W2        726             0.0000000000
      2178       726  TIP3      H2             18.5949815875      -29.0012399386        6.1040683134  W2        726             0.0000000000
      2179       727  TIP3      OH2            25.4044015875      -33.7987799386       -1.6735016866  W2        727             0.0000000000
      2180       727  TIP3      H1             25.9687415875      -34.3451199386       -2.2205416866  W2        727             0.0000000000
      2181       727  TIP3      H2             25.2567415875      -34.3205899386       -0.8847416866  W2        727             0.0000000000
      2182       728  TIP3      OH2            20.4063715875      -37.6621699386       -5.2550216866  W2        728             0.0000000000
      2183       728  TIP3      H1             20.0893215875      -38.5646399386       -5.2904816866  W2        728             0.0000000000
      2184       728  TIP3      H2             21.1877815875      -37.6604299386       -5.8078616866  W2        728             0.0000000000
      2185       729  TIP3      OH2            24.0309915875      -35.4101699386        0.7405383134  W2        729             0.0000000000
      2186       729  TIP3      H1             23.1955215875      -34.9562199386        0.8507783134  W2        729             0.0000000000
      2187       729  TIP3      H2             24.5550515875      -35.1343199386        1.4925283134  W2        729             0.0000000000
      2188       730  TIP3      OH2            24.5752515875      -29.1973999386       -7.5748216866  W2        730             0.0000000000
      2189       730  TIP3      H1             23.8303515875      -29.7048699386       -7.8970316866  W2        730             0.0000000000
      2190       730  TIP3      H2             24.4409715875      -29.1485999386       -6.6283416866  W2        730             0.0000000000
      2191       731  TIP3      OH2            31.7251415875      -30.0645799386        1.2119383134  W2        731             0.0000000000
      2192       731  TIP3      H1             32.3670215875      -29.6079499386        0.6681583134  W2        731             0.0000000000
      2193       731  TIP3      H2             30.8948315875      -29.9513399386        0.7493483134  W2        731             0.0000000000
      2194       732  TIP3      OH2            28.4729315875      -36.3834099386       -9.3755616866  W2        732             0.0000000000
      2195       732  TIP3      H1             27.5343515875      -36.2718499386       -9.5266816866  W2        732             0.0000000000
      2196       732  TIP3      H2             28.7701415875      -35.5267199386       -9.0689916866  W2        732             0.0000000000
      2197       733  TIP3      OH2            26.0944615875      -29.0130699386        3.6620883134  W2        733             0.0000000000
      2198       733  TIP3      H1             25.7490715875      -29.3948299386        4.4690483134  W2        733             0.0000000000
      2199       733  TIP3      H2             25.8944715875      -28.0797099386        3.7333783134  W2        733             0.0000000000
      2200       734  TIP3      OH2            29.1912815875      -34.5161399386       -7.7148216866  W2        734             0.0000000000
      2201       734  TIP3      H1             30.0831815875      -34.6536399386       -7.3957016866  W2        734             0.0000000000
      2202       734  TIP3      H2             29.2476415875      -33.7255299386       -8.2514716866  W2        734             0.0000000000
      2203       735  TIP3      OH2            19.7000815875      -29.9023999386       -1.8050316866  W2        735             0.0000000000
      2204       735  TIP3      H1             20.4448015875      -29.9048299386       -2.4063816866  W2        735             0.0000000000
      2205       735  TIP3      H2             19.7777415875      -30.7260199386       -1.3235216866  W2        735             0.0000000000
      2206       736  TIP3      OH2            26.7006615875      -27.7389699386       -8.5493616866  W2        736             0.0000000000
      2207       736  TIP3      H1             26.4055015875      -26.9121799386       -8.1678816866  W2        736             0.0000000000
      2208       736  TIP3      H2             25.9976615875      -28.3582799386       -8.3532216866  W2        736             0.0000000000
      2209       737  TIP3      OH2            16.7080515875      -31.4417099386        3.5098183134  W2        737             0.0000000000
      2210       737  TIP3      H1             16.9309115875      -31.8597499386        4.3415683134  W2        737             0.0000000000
      2211       737  TIP3      H2             16.1060615875      -32.0542099386        3.0870983134  W2        737             0.0000000000
      2212       738  TIP3      OH2            23.7245415875      -31.9247199386        5.7227883134  W2        738             0.0000000000
      2213       738  TIP3      H1             23.4286215875      -32.0904199386        4.8276983134  W2        738             0.0000000000
      2214       738  TIP3      H2             24.6560615875      -32.1446899386        5.7121783134  W2        738             0.0000000000
      2215       739  TIP3      OH2            28.3448215875      -26.5515199386        3.6125883134  W2        739             0.0000000000
      2216       739  TIP3      H1             27.4442515875      -26.3682599386        3.3449783134  W2        739             0.0000000000
      2217       739  TIP3      H2             28.3789315875      -26.2925899386        4.5334683134  W2        739             0.0000000000
      2218       740  TIP3      OH2            34.0761515875      -34.3067299386       -8.0201516866  W2        740             0.0000000000
      2219       740  TIP3      H1             33.5217815875      -34.7029299386       -8.6924016866  W2        740             0.0000000000
      2220       740  TIP3      H2             34.1765115875      -33.3962099386       -8.2978216866  W2        740             0.0000000000
      2221       741  TIP3      OH2            34.0393515875      -28.5065599386        4.8169983134  W2        741             0.0000000000
      2222       741  TIP3      H1             33.1882015875      -28.2681799386        4.4496383134  W2        741             0.0000000000
      2223       741  TIP3      H2             34.6296915875      -28.5232399386        4.0637083134  W2        741             0.0000000000
      2224       742  TIP3      OH2            32.3713215875      -25.5206899386       -7.5549416866  W2        742             0.0000000000
      2225       742  TIP3      H1             31.9984315875      -26.3463099386       -7.2458816866  W2        742             0.0000000000
      2226       742  TIP3      H2             32.6486715875      -25.7037499386       -8.4526016866  W2        742             0.0000000000
      2227       743  TIP3      OH2            29.5317115875      -30.7127399386       -0.5337516866  W2        743             0.0000000000
      2228       743  TIP3      H1             28.6034015875      -30.9445499386       -0.5608216866  W2        743             0.0000000000
      2229       743  TIP3      H2             29.9828215875      -31.4897599386       -0.8638716866  W2        743             0.0000000000
      2230       744  TIP3      OH2            22.0750215875      -26.3845799386       -4.4008816866  W2        744             0.0000000000
      2231       744  TIP3      H1             22.6022415875      -25.6111399386       -4.6010016866  W2        744             0.0000000000
      2232       744  TIP3      H2             21.1948715875      -26.1596599386       -4.7024816866  W2        744             0.0000000000
      2233       745  TIP3      OH2            17.8297915875      -31.5221699386       -9.8136416866  W2        745             0.0000000000
      2234       745  TIP3      H1             18.4457815875      -30.8954499386       -9.4341616866  W2        745             0.0000000000
      2235       745  TIP3      H2             16.9680515875      -31.2061899386       -9.5419916866  W2        745             0.0000000000
      2236       746  TIP3      OH2            23.5022515875      -28.7215899386       -4.8244516866  W2        746             0.0000000000
      2237       746  TIP3      H1             23.2612515875      -27.7961499386       -4.7829216866  W2        746             0.0000000000
      2238       746  TIP3      H2             22.7616115875      -29.1804599386       -4.4280616866  W2        746             0.0000000000
      2239       747  TIP3      OH2            24.0169115875      -24.5722299386        1.4906583134  W2        747             0.0000000000
      2240       747  TIP3      H1             24.3793815875      -23.7176699386        1.2570983134  W2        747             0.0000000000
      2241       747  TIP3      H2             24.5484315875      -24.8640699386        2.2312883134  W2        747             0.0000000000
      2242       748  TIP3      OH2            22.1853315875      -23.6998299386       -5.2792316866  W2        748             0.0000000000
      2243       748  TIP3      H1             21.2353815875      -23.5940899386       -5.2279016866  W2        748             0.0000000000
      2244       748  TIP3      H2             22.5371415875      -22.8790899386       -4.9344816866  W2        748             0.0000000000
      2245       749  TIP3      OH2            27.5609915875      -28.4731599386        1.1912183134  W2        749             0.0000000000
      2246       749  TIP3      H1             27.1351215875      -28.7009899386        2.0176183134  W2        749             0.0000000000
      2247       749  TIP3      H2             28.1415715875      -29.2119799386        1.0087483134  W2        749             0.0000000000
      2248       750  TIP3      OH2            29.7638815875      -27.5441099386       -9.7348816866  W2        750             0.0000000000
      2249       750  TIP3      H1             30.1171915875      -27.9241299386       -8.9305316866  W2        750             0.0000000000
      2250       750  TIP3      H2             28.8152315875      -27.6376299386       -9.6479516866  W2        750             0.0000000000
      2251       751  TIP3      OH2            30.2194115875      -23.9212099386        3.6606983134  W2        751             0.0000000000
      2252       751  TIP3      H1             29.6177315875      -24.4769199386        3.1653283134  W2        751             0.0000000000
      2253       751  TIP3      H2             30.5007815875      -23.2542299386        3.0344383134  W2        751             0.0000000000
      2254       752  TIP3      OH2            34.2673215875      -23.0648599386       -9.5338616866  W2        752             0.0000000000
      2255       752  TIP3      H1             35.0111115875      -22.4788099386       -9.6737016866  W2        752             0.0000000000
      2256       752  TIP3      H2             33.5731315875      -22.4962799386       -9.2006216866  W2        752             0.0000000000
      2257       753  TIP3      OH2            18.3420015875      -36.6884399386        3.0679583134  W2        753             0.0000000000
      2258       753  TIP3      H1             17.4492315875      -36.3498999386        3.0003583134  W2        753             0.0000000000
      2259       753  TIP3      H2             18.2432815875      -37.5438299386        3.4860383134  W2        753             0.0000000000
      2260       754  TIP3      OH2            30.6298115875      -28.8719099386       -7.5080916866  W2        754             0.0000000000
      2261       754  TIP3      H1             30.3525715875      -29.5999799386       -6.9519816866  W2        754             0.0000000000
      2262       754  TIP3      H2             31.5571115875      -28.7527099386       -7.3028316866  W2        754             0.0000000000
      2263       755  TIP3      OH2            17.9932015875      -24.8839999386        1.5028983134  W2        755             0.0000000000
      2264       755  TIP3      H1             18.2102315875      -25.8157599386        1.4718683134  W2        755             0.0000000000
      2265       755  TIP3      H2             18.2395515875      -24.6094999386        2.3861783134  W2        755             0.0000000000
      2266       756  TIP3      OH2            23.8546615875      -26.4324999386      -11.2878816866  W2        756             0.0000000000
      2267       756  TIP3      H1             24.0936415875      -27.1806899386      -11.8349916866  W2        756             0.0000000000
      2268       756  TIP3      H2             23.5857915875      -26.8203299386      -10.4551016866  W2        756             0.0000000000
      2269       757  TIP3      OH2            22.7917215875      -26.8621199386       -8.8316216866  W2        757             0.0000000000
      2270       757  TIP3      H1             22.9385215875      -27.3821399386       -8.0415316866  W2        757             0.0000000000
      2271       757  TIP3      H2             22.7888915875      -25.9553599386       -8.5250316866  W2        757             0.0000000000
      2272       758  TIP3      OH2            19.2448315875      -29.6097899386       -8.3210816866  W2        758             0.0000000000
      2273       758  TIP3      H1             18.5587615875      -29.2575399386       -7.7541116866  W2        758             0.0000000000
      2274       758  TIP3      H2             19.7676215875      -28.8468299386       -8.5676516866  W2        758             0.0000000000
      2275       759  TIP3      OH2            27.0763415875      -36.9474099386        1.9578183134  W2        759             0.0000000000
      2276       759  TIP3      H1             27.7751315875      -36.8735399386        2.6077883134  W2        759             0.0000000000
      2277       759  TIP3      H2             26.6954815875      -37.8119099386        2.1121083134  W2        759             0.0000000000
      2278       760  TIP3      OH2            27.8608315875      -37.2952399386       -6.9449516866  W2        760             0.0000000000
      2279       760  TIP3      H1             28.0806615875      -36.8236999386       -7.7484116866  W2        760             0.0000000000
      2280       760  TIP3      H2             28.4192315875      -36.9009799386       -6.2748916866  W2        760             0.0000000000
      2281       761  TIP3      OH2            25.5294415875      -25.1647599386       -8.0822016866  W2        761             0.0000000000
      2282       761  TIP3      H1             24.7130515875      -24.6677899386       -8.0297716866  W2        761             0.0000000000
      2283       761  TIP3      H2             26.0590715875      -24.6894099386       -8.7223216866  W2        761             0.0000000000
      2284       762  TIP3      OH2            25.0608215875      -35.5673599386       -6.1101116866  W2        762             0.0000000000
      2285       762  TIP3      H1             25.8730815875      -35.0630399386       -6.0639416866  W2        762             0.0000000000
      2286       762  TIP3      H2             24.8161215875      -35.7123899386       -5.1961516866  W2        762             0.0000000000
      2287       763  TIP3      OH2            25.5964615875      -34.5810899386        3.0745483134  W2        763             0.0000000000
      2288       763  TIP3      H1             25.7154915875      -34.0075499386        3.8315883134  W2        763             0.0000000000
      2289       763  TIP3      H2             26.2519215875      -35.2691499386        3.1893283134  W2        763             0.0000000000
      2290       764  TIP3      OH2            25.9444915875      -38.4860599386       -5.1720016866  W2        764             0.0000000000
      2291       764  TIP3      H1             25.5978415875      -37.8689999386       -4.5275716866  W2        764             0.0000000000
      2292       764  TIP3      H2             26.6031815875      -37.9854899386       -5.6534516866  W2        764             0.0000000000
      2293       765  TIP3      OH2            22.8677515875      -24.1210399386       -8.1005116866  W2        765             0.0000000000
      2294       765  TIP3      H1             23.0286215875      -23.3212899386       -8.6012516866  W2        765             0.0000000000
      2295       765  TIP3      H2             22.6705315875      -23.8144399386       -7.2154516866  W2        765             0.0000000000
      2296       766  TIP3      OH2            21.6021915875      -37.4231199386       -8.4847516866  W2        766             0.0000000000
      2297       766  TIP3      H1             21.5186715875      -36.5348099386       -8.1381116866  W2        766             0.0000000000
      2298       766  TIP3      H2             22.4922215875      -37.6884499386       -8.2530716866  W2        766             0.0000000000
      2299       767  TIP3      OH2            31.8010415875      -36.6740599386        3.9095183134  W2        767             0.0000000000
      2300       767  TIP3      H1             30.8846215875      -36.4118899386        3.8218883134  W2        767             0.0000000000
      2301       767  TIP3      H2             32.1365415875      -36.6771599386        3.0130483134  W2        767             0.0000000000
      2302       768  TIP3      OH2            30.4031415875      -32.9239599386       -1.9947516866  W2        768             0.0000000000
      2303       768  TIP3      H1             29.6055815875      -33.3389399386       -2.3232516866  W2        768             0.0000000000
      2304       768  TIP3      H2             30.8482515875      -33.6145899386       -1.5037016866  W2        768             0.0000000000
      2305       769  TIP3      OH2            19.8607215875      -26.9958999386       -9.4243016866  W2        769             0.0000000000
      2306       769  TIP3      H1             20.4528715875      -26.2964199386       -9.1480616866  W2        769             0.0000000000
      2307       769  TIP3      H2             20.3200215875      -27.4289499386      -10.1438416866  W2        769             0.0000000000
      2308       770  TIP3      OH2            18.1766415875      -34.3315999386      -10.3083616866  W2        770             0.0000000000
      2309       770  TIP3      H1             18.1319015875      -33.3922899386      -10.1296616866  W2        770             0.0000000000
      2310       770  TIP3      H2             17.2889615875      -34.5671099386      -10.5781516866  W2        770             0.0000000000
      2311       771  TIP3      OH2            31.4896015875      -23.6677099386       -0.3724016866  W2        771             0.0000000000
      2312       771  TIP3      H1             31.3340315875      -22.9892699386       -1.0294716866  W2        771             0.0000000000
      2313       771  TIP3      H2             32.4222415875      -23.5957799386       -0.1693416866  W2        771             0.0000000000
      2314       772  TIP3      OH2            18.9848415875      -39.5499399386       -1.6352616866  W2        772             0.0000000000
      2315       772  TIP3      H1             18.7558215875      -39.4906899386       -2.5627616866  W2        772             0.0000000000
      2316       772  TIP3      H2             18.5421815875      -40.3413899386       -1.3288516866  W2        772             0.0000000000
      2317       773  TIP3      OH2            17.9151715875      -25.6092299386       -5.4746816866  W2        773             0.0000000000
      2318       773  TIP3      H1             17.0830315875      -25.1369599386       -5.4475416866  W2        773             0.0000000000
      2319       773  TIP3      H2             18.4610015875      -25.0994699386       -6.0733716866  W2        773             0.0000000000
      2320       774  TIP3      OH2            17.2035415875      -22.9968599386        5.8551183134  W2        774             0.0000000000
      2321       774  TIP3      H1             17.7437615875      -23.2134599386        6.6150383134  W2        774             0.0000000000
      2322       774  TIP3      H2             16.7223415875      -23.8022599386        5.6653683134  W2        774             0.0000000000
      2323       775  TIP3      OH2            21.8008815875      -24.0774199386        7.4755383134  W2        775             0.0000000000
      2324       775  TIP3      H1             22.5686015875      -24.5363399386        7.8164583134  W2        775             0.0000000000
      2325       775  TIP3      H2             21.7795015875      -24.3034399386        6.5456583134  W2        775             0.0000000000
      2326       776  TIP3      OH2            25.8928415875      -24.5693599386      -11.1492816866  W2        776             0.0000000000
      2327       776  TIP3      H1             25.2489415875      -25.2004999386      -10.8279116866  W2        776             0.0000000000
      2328       776  TIP3      H2             26.6546715875      -25.1005599386      -11.3809316866  W2        776             0.0000000000
      2329       777  TIP3      OH2            28.3777515875      -25.6973099386        6.2046883134  W2        777             0.0000000000
      2330       777  TIP3      H1             28.0267015875      -26.5540099386        6.4477283134  W2        777             0.0000000000
      2331       777  TIP3      H2             29.1040715875      -25.5546399386        6.8115883134  W2        777             0.0000000000
      2332       778  TIP3      OH2            30.4971315875      -24.7523699386      -10.9154816866  W2        778             0.0000000000
      2333       778  TIP3      H1             30.7801715875      -25.5468499386      -10.4627916866  W2        778             0.0000000000
      2334       778  TIP3      H2             31.2369215875      -24.5192699386      -11.4763716866  W2        778             0.0000000000
      2335       779  TIP3      OH2            17.1104915875      -29.1864499386        6.8095483134  W2        779             0.0000000000
      2336       779  TIP3      H1             17.2545415875      -30.0883799386        6.5232183134  W2        779             0.0000000000
      2337       779  TIP3      H2             16.3382315875      -28.9002399386        6.3217783134  W2        779             0.0000000000
      2338       780  TIP3      OH2            21.4518615875      -28.8428799386      -11.0579916866  W2        780             0.0000000000
      2339       780  TIP3      H1             21.5162715875      -29.6369199386      -10.5273516866  W2        780             0.0000000000
      2340       780  TIP3      H2             22.1047815875      -28.9615999386      -11.7477916866  W2        780             0.0000000000
      2341       781  TIP3      OH2            23.7661015875      -29.2166399386        6.2421883134  W2        781             0.0000000000
      2342       781  TIP3      H1             23.4374815875      -28.9458299386        5.3849283134  W2        781             0.0000000000
      2343       781  TIP3      H2             23.9179215875      -30.1576599386        6.1546883134  W2        781             0.0000000000
      2344       782  TIP3      OH2            26.8042015875      -27.7957099386      -11.3221916866  W2        782             0.0000000000
      2345       782  TIP3      H1             26.5356115875      -27.6154999386      -10.4213016866  W2        782             0.0000000000
      2346       782  TIP3      H2             26.5977615875      -28.7210899386      -11.4536116866  W2        782             0.0000000000
      2347       783  TIP3      OH2            29.5006215875      -29.3009099386        3.6254183134  W2        783             0.0000000000
      2348       783  TIP3      H1             30.2461015875      -28.7125399386        3.5058183134  W2        783             0.0000000000
      2349       783  TIP3      H2             28.7433015875      -28.7189399386        3.6887283134  W2        783             0.0000000000
      2350       784  TIP3      OH2            17.9431415875      -31.9861199386        6.2294783134  W2        784             0.0000000000
      2351       784  TIP3      H1             18.3512615875      -32.8434599386        6.1085383134  W2        784             0.0000000000
      2352       784  TIP3      H2             17.6829015875      -31.9719899386        7.1505083134  W2        784             0.0000000000
      2353       785  TIP3      OH2            22.6012415875      -30.8702599386       -8.7521916866  W2        785             0.0000000000
      2354       785  TIP3      H1             22.1414415875      -31.3544299386       -8.0663416866  W2        785             0.0000000000
      2355       785  TIP3      H2             22.8561115875      -31.5387199386       -9.3881416866  W2        785             0.0000000000
      2356       786  TIP3      OH2            21.8901715875      -32.9775499386        3.6037683134  W2        786             0.0000000000
      2357       786  TIP3      H1             21.2717815875      -32.3028899386        3.8842383134  W2        786             0.0000000000
      2358       786  TIP3      H2             22.2342915875      -32.6561599386        2.7703883134  W2        786             0.0000000000
      2359       787  TIP3      OH2            23.6722815875      -32.6270799386      -10.4898716866  W2        787             0.0000000000
      2360       787  TIP3      H1             23.4917815875      -32.7819599386      -11.4170416866  W2        787             0.0000000000
      2361       787  TIP3      H2             24.6223315875      -32.5192099386      -10.4450816866  W2        787             0.0000000000
      2362       788  TIP3      OH2            26.9099915875      -30.5060199386        6.8812483134  W2        788             0.0000000000
      2363       788  TIP3      H1             27.8631115875      -30.4221099386        6.8538483134  W2        788             0.0000000000
      2364       788  TIP3      H2             26.7494515875      -31.2178399386        7.5007383134  W2        788             0.0000000000
      2365       789  TIP3      OH2            33.0621115875      -30.2726599386      -11.0440616866  W2        789             0.0000000000
      2366       789  TIP3      H1             32.7885915875      -30.6971099386      -11.8572316866  W2        789             0.0000000000
      2367       789  TIP3      H2             33.1015215875      -29.3412099386      -11.2610216866  W2        789             0.0000000000
      2368       790  TIP3      OH2            22.2295415875      -35.6224699386        4.6860783134  W2        790             0.0000000000
      2369       790  TIP3      H1             22.3796315875      -36.3513399386        4.0840483134  W2        790             0.0000000000
      2370       790  TIP3      H2             22.2317815875      -34.8452999386        4.1272983134  W2        790             0.0000000000
      2371       791  TIP3      OH2            22.6421115875      -37.2528899386        2.1788183134  W2        791             0.0000000000
      2372       791  TIP3      H1             23.1778615875      -36.8012199386        1.5267483134  W2        791             0.0000000000
      2373       791  TIP3      H2             21.7900715875      -37.3609099386        1.7562283134  W2        791             0.0000000000
      2374       792  TIP3      OH2            24.2239515875      -31.8132699386        2.4183383134  W2        792             0.0000000000
      2375       792  TIP3      H1             24.9744315875      -31.9695199386        1.8451183134  W2        792             0.0000000000
      2376       792  TIP3      H2             23.8847815875      -30.9616099386        2.1428883134  W2        792             0.0000000000
      2377       793  TIP3      OH2            28.6395715875      -33.9980899386        7.4468683134  W2        793             0.0000000000
      2378       793  TIP3      H1             28.8317015875      -34.9291499386        7.3353183134  W2        793             0.0000000000
      2379       793  TIP3      H2             29.4972015875      -33.5731399386        7.4364083134  W2        793             0.0000000000
      2380       794  TIP3      OH2            29.9562915875      -31.2095699386        5.5241383134  W2        794             0.0000000000
      2381       794  TIP3      H1             29.6747915875      -30.5001099386        4.9465183134  W2        794             0.0000000000
      2382       794  TIP3      H2             30.8987215875      -31.2822699386        5.3732583134  W2        794             0.0000000000
      2383       795  TIP3      OH2            20.7081715875      -34.4241199386        6.5976383134  W2        795             0.0000000000
      2384       795  TIP3      H1             19.9410715875      -34.9566399386        6.3873983134  W2        795             0.0000000000
      2385       795  TIP3      H2             21.3870715875      -34.7340799386        5.9982683134  W2        795             0.0000000000
      2386       796  TIP3      OH2            23.4476615875      -39.7963199386        2.6101783134  W2        796             0.0000000000
      2387       796  TIP3      H1             23.3496215875      -38.8499999386        2.5047983134  W2        796             0.0000000000
      2388       796  TIP3      H2             22.7052815875      -40.1689399386        2.1345283134  W2        796             0.0000000000
      2389       797  TIP3      OH2            24.7117115875      -35.4747799386        6.1740183134  W2        797             0.0000000000
      2390       797  TIP3      H1             24.4762515875      -35.6941099386        7.0755083134  W2        797             0.0000000000
      2391       797  TIP3      H2             23.9284015875      -35.6816599386        5.6642683134  W2        797             0.0000000000
      2392       798  TIP3      OH2            27.4273715875      -36.3474299386        5.2493683134  W2        798             0.0000000000
      2393       798  TIP3      H1             26.4799115875      -36.3154599386        5.3816983134  W2        798             0.0000000000
      2394       798  TIP3      H2             27.7400415875      -36.9727199386        5.9031883134  W2        798             0.0000000000
      2395       799  TIP3      OH2            29.0615215875      -37.7133199386        7.2545583134  W2        799             0.0000000000
      2396       799  TIP3      H1             28.9647015875      -38.6655899386        7.2487483134  W2        799             0.0000000000
      2397       799  TIP3      H2             28.7398315875      -37.4446399386        8.1151083134  W2        799             0.0000000000
      2398       800  TIP3      OH2            18.8884515875      -36.5037399386        6.3021083134  W2        800             0.0000000000
      2399       800  TIP3      H1             19.1001915875      -37.2101299386        5.6918583134  W2        800             0.0000000000
      2400       800  TIP3      H2             18.7772015875      -36.9411399386        7.1462283134  W2        800             0.0000000000
      2401       801  TIP3      OH2            23.6694715875      -40.5025799386        5.2814583134  W2        801             0.0000000000
      2402       801  TIP3      H1             24.3813115875      -41.1423599386        5.2673683134  W2        801             0.0000000000
      2403       801  TIP3      H2             23.5685115875      -40.2357499386        4.3677683134  W2        801             0.0000000000
      2404       802  TIP3      OH2            24.0232215875      -38.8197399386        7.3350883134  W2        802             0.0000000000
      2405       802  TIP3      H1             23.8914415875      -39.2953599386        6.5149383134  W2        802             0.0000000000
      2406       802  TIP3      H2             23.4239615875      -38.0753799386        7.2797983134  W2        802             0.0000000000
      2407       803  TIP3      OH2            23.5694515875      -21.9367099386       -9.4885116866  W2        803             0.0000000000
      2408       803  TIP3      H1             24.5025215875      -21.7788399386       -9.3446716866  W2        803             0.0000000000
      2409       803  TIP3      H2             23.3053315875      -21.2614099386      -10.1133616866  W2        803             0.0000000000
      2410       804  TIP3      OH2            17.1379415875      -27.3003299386      -10.0057016866  W2        804             0.0000000000
      2411       804  TIP3      H1             18.0518615875      -27.2214399386       -9.7323116866  W2        804             0.0000000000
      2412       804  TIP3      H2             17.1452515875      -27.9873699386      -10.6721416866  W2        804             0.0000000000
      2413       805  TIP3      OH2            15.7870015875      -21.9074799386       -4.9283116866  W2        805             0.0000000000
      2414       805  TIP3      H1             15.1397115875      -22.3693099386       -5.4611916866  W2        805             0.0000000000
      2415       805  TIP3      H2             16.1414615875      -22.5791499386       -4.3456916866  W2        805             0.0000000000
      2416       806  TIP3      OH2            16.6569215875      -23.8267799386       -3.1236916866  W2        806             0.0000000000
      2417       806  TIP3      H1             16.3226015875      -24.7070499386       -2.9516716866  W2        806             0.0000000000
      2418       806  TIP3      H2             16.8791615875      -23.4812799386       -2.2591316866  W2        806             0.0000000000
      2419       807  TIP3      OH2            34.2054015875      -23.0171399386       -0.1432116866  W2        807             0.0000000000
      2420       807  TIP3      H1             34.1840715875      -22.8322999386        0.7957283134  W2        807             0.0000000000
      2421       807  TIP3      H2             34.8960215875      -22.4487399386       -0.4840716866  W2        807             0.0000000000
      2422       808  TIP3      OH2            33.7686915875      -23.4500299386        2.7786983134  W2        808             0.0000000000
      2423       808  TIP3      H1             33.2815615875      -24.1856199386        2.4074383134  W2        808             0.0000000000
      2424       808  TIP3      H2             34.3179615875      -23.8436399386        3.4566383134  W2        808             0.0000000000
      2425       809  TIP3      OH2            32.2194215875      -27.6602199386        7.4167283134  W2        809             0.0000000000
      2426       809  TIP3      H1             31.3535315875      -27.7652499386        7.8109583134  W2        809             0.0000000000
      2427       809  TIP3      H2             32.5960115875      -26.9018899386        7.8631983134  W2        809             0.0000000000
      2428       810  TIP3      OH2            33.5203915875      -29.4038499386       -7.0690216866  W2        810             0.0000000000
      2429       810  TIP3      H1             34.3705315875      -28.9827599386       -6.9418616866  W2        810             0.0000000000
      2430       810  TIP3      H2             33.5259015875      -30.1438399386       -6.4618816866  W2        810             0.0000000000
      2431       811  TIP3      OH2            33.9149515875      -31.3501099386       -5.2454516866  W2        811             0.0000000000
      2432       811  TIP3      H1             33.1884115875      -31.8298499386       -4.8476916866  W2        811             0.0000000000
      2433       811  TIP3      H2             34.4962815875      -31.1446399386       -4.5132916866  W2        811             0.0000000000
      2434       812  TIP3      OH2            33.6740715875      -28.5653599386       -0.2976916866  W2        812             0.0000000000
      2435       812  TIP3      H1             34.5074915875      -28.9433599386       -0.5783316866  W2        812             0.0000000000
      2436       812  TIP3      H2             33.7861015875      -27.6222399386       -0.4167816866  W2        812             0.0000000000
      2437       813  TIP3      OH2            32.1603015875      -25.6876099386        2.0091483134  W2        813             0.0000000000
      2438       813  TIP3      H1             31.5128315875      -25.3624599386        2.6346683134  W2        813             0.0000000000
      2439       813  TIP3      H2             31.6427015875      -26.1278399386        1.3349783134  W2        813             0.0000000000
      2440       814  TIP3      OH2            34.1832615875      -31.4492599386       -8.8543216866  W2        814             0.0000000000
      2441       814  TIP3      H1             33.6613715875      -31.0928499386       -9.5732316866  W2        814             0.0000000000
      2442       814  TIP3      H2             34.1501815875      -30.7744799386       -8.1762316866  W2        814             0.0000000000
      2443       815  TIP3      OH2            32.5321615875      -34.2096999386      -10.3036116866  W2        815             0.0000000000
      2444       815  TIP3      H1             32.6286015875      -33.5429999386      -10.9836416866  W2        815             0.0000000000
      2445       815  TIP3      H2             32.3921215875      -35.0250699386      -10.7850616866  W2        815             0.0000000000
      2446       816  TIP3      OH2            31.7016315875      -32.8294599386       -4.6825816866  W2        816             0.0000000000
      2447       816  TIP3      H1             31.5515115875      -33.7745999386       -4.7028016866  W2        816             0.0000000000
      2448       816  TIP3      H2             31.3480815875      -32.5483199386       -3.8386716866  W2        816             0.0000000000
      2449       817  TIP3      OH2            16.7368715875      -30.7512399386       -0.6722016866  W2        817             0.0000000000
      2450       817  TIP3      H1             16.9211615875      -30.8330699386       -1.6079116866  W2        817             0.0000000000
      2451       817  TIP3      H2             17.5861615875      -30.8755399386       -0.2485616866  W2        817             0.0000000000
      2452       818  TIP3      OH2            32.5579215875      -30.8591299386        4.9562483134  W2        818             0.0000000000
      2453       818  TIP3      H1             33.1406515875      -31.5938999386        5.1479683134  W2        818             0.0000000000
      2454       818  TIP3      H2             33.1218515875      -30.0870999386        5.0028283134  W2        818             0.0000000000
      2455       819  TIP3      OH2            34.0546315875      -32.9565499386        5.6407883134  W2        819             0.0000000000
      2456       819  TIP3      H1             33.1913015875      -33.3353399386        5.4752583134  W2        819             0.0000000000
      2457       819  TIP3      H2             34.6590015875      -33.6950699386        5.5663683134  W2        819             0.0000000000
      2458       820  TIP3      OH2            31.7795415875      -36.8017199386      -11.1860616866  W2        820             0.0000000000
      2459       820  TIP3      H1             32.3901215875      -37.1730399386      -10.5492416866  W2        820             0.0000000000
      2460       820  TIP3      H2             30.9426915875      -37.2230299386      -10.9900616866  W2        820             0.0000000000
      2461       821  TIP3      OH2            31.4121115875      -35.2468799386       -6.2200716866  W2        821             0.0000000000
      2462       821  TIP3      H1             31.6918215875      -36.1538399386       -6.0959016866  W2        821             0.0000000000
      2463       821  TIP3      H2             32.1712815875      -34.8127299386       -6.6091516866  W2        821             0.0000000000
      2464       822  TIP3      OH2            32.0239415875      -34.6651399386       -0.7841816866  W2        822             0.0000000000
      2465       822  TIP3      H1             32.9567415875      -34.4531499386       -0.8185816866  W2        822             0.0000000000
      2466       822  TIP3      H2             31.7886915875      -34.5639299386        0.1381183134  W2        822             0.0000000000
      2467       823  TIP3      OH2            32.0531315875      -33.9286099386        1.9917583134  W2        823             0.0000000000
      2468       823  TIP3      H1             31.2102615875      -33.6605699386        2.3577383134  W2        823             0.0000000000
      2469       823  TIP3      H2             32.4955615875      -33.1064199386        1.7808683134  W2        823             0.0000000000
      2470       824  TIP3      OH2            16.3343515875      -35.4807399386        5.4686783134  W2        824             0.0000000000
      2471       824  TIP3      H1             17.2538415875      -35.6029099386        5.7049883134  W2        824             0.0000000000
      2472       824  TIP3      H2             15.8848015875      -36.2307699386        5.8580283134  W2        824             0.0000000000
      2473       825  TIP3      OH2            34.3362915875      -39.9485899386        7.3452583134  W2        825             0.0000000000
      2474       825  TIP3      H1             34.6859915875      -40.6022399386        6.7397283134  W2        825             0.0000000000
      2475       825  TIP3      H2             34.4832415875      -39.1111799386        6.9055183134  W2        825             0.0000000000
      2476       826  TIP3      OH2            32.0255915875      -37.9839499386       -6.1718716866  W2        826             0.0000000000
      2477       826  TIP3      H1             32.2080915875      -38.4327999386       -5.3463716866  W2        826             0.0000000000
      2478       826  TIP3      H2             31.4258815875      -38.5685099386       -6.6354116866  W2        826             0.0000000000
      2479       827  TIP3      OH2            17.5556015875      -37.1685799386       -1.6400316866  W2        827             0.0000000000
      2480       827  TIP3      H1             18.0007615875      -37.9603299386       -1.3380616866  W2        827             0.0000000000
      2481       827  TIP3      H2             18.0219015875      -36.4520599386       -1.2094716866  W2        827             0.0000000000
      2482       828  TIP3      OH2            15.8596315875      -34.1692799386       -0.5710116866  W2        828             0.0000000000
      2483       828  TIP3      H1             16.3516115875      -34.3902299386       -1.3618116866  W2        828             0.0000000000
      2484       828  TIP3      H2             16.2217215875      -33.3289399386       -0.2900616866  W2        828             0.0000000000
      2485       829  TIP3      OH2            33.8560115875      -37.8391299386        5.6943883134  W2        829             0.0000000000
      2486       829  TIP3      H1             32.9385815875      -37.5684199386        5.6587383134  W2        829             0.0000000000
      2487       829  TIP3      H2             33.9789515875      -38.3742899386        4.9103583134  W2        829             0.0000000000
      2488       830  TIP3      OH2            33.8922115875      -37.9161399386       -9.6438416866  W2        830             0.0000000000
      2489       830  TIP3      H1             34.3044715875      -38.6375699386      -10.1190416866  W2        830             0.0000000000
      2490       830  TIP3      H2             34.5738615875      -37.2466799386       -9.5854116866  W2        830             0.0000000000
      2491       831  TIP3      OH2            16.1732815875      -37.9113699386       -6.5167716866  W2        831             0.0000000000
      2492       831  TIP3      H1             15.2481215875      -37.7027099386       -6.6462216866  W2        831             0.0000000000
      2493       831  TIP3      H2             16.6272715875      -37.4272899386       -7.2065416866  W2        831             0.0000000000
      2494       832  TIP3      OH2            30.9440015875      -22.9271999386       -4.5710316866  W2        832             0.0000000000
      2495       832  TIP3      H1             31.5962915875      -23.2749899386       -5.1791216866  W2        832             0.0000000000
      2496       832  TIP3      H2             31.4543815875      -22.4388799386       -3.9250616866  W2        832             0.0000000000
      2497       833  TIP3      OH2            16.1368215875      -39.1734699386        1.8274783134  W2        833             0.0000000000
      2498       833  TIP3      H1             15.4718715875      -39.4194399386        2.4705683134  W2        833             0.0000000000
      2499       833  TIP3      H2             15.6939515875      -38.5514299386        1.2502783134  W2        833             0.0000000000
      2500       834  TIP3      OH2            18.3287515875      -25.9980599386        5.9720583134  W2        834             0.0000000000
      2501       834  TIP3      H1             17.5080015875      -25.8234099386        5.5115283134  W2        834             0.0000000000
      2502       834  TIP3      H2             18.0765315875      -26.0715899386        6.8924983134  W2        834             0.0000000000
      2503       835  TIP3      OH2            21.2830415875      -25.0239399386        2.2304583134  W2        835             0.0000000000
      2504       835  TIP3      H1             20.8581515875      -24.2140899386        1.9479183134  W2        835             0.0000000000
      2505       835  TIP3      H2             22.1873215875      -24.9385299386        1.9284383134  W2        835             0.0000000000
      2506       836  TIP3      OH2            25.5941815875      -23.6249399386        5.1898283134  W2        836             0.0000000000
      2507       836  TIP3      H1             25.7789315875      -23.9583299386        6.0678583134  W2        836             0.0000000000
      2508       836  TIP3      H2             26.4406315875      -23.3150799386        4.8677483134  W2        836             0.0000000000
      2509       837  TIP3      OH2            27.9392215875      -22.3390499386        4.4339683134  W2        837             0.0000000000
      2510       837  TIP3      H1             28.6161115875      -22.9718199386        4.1938883134  W2        837             0.0000000000
      2511       837  TIP3      H2             28.2611015875      -21.9379999386        5.2412983134  W2        837             0.0000000000
      2512       838  TIP3      OH2            32.8566015875      -39.7494999386        3.5134683134  W2        838             0.0000000000
      2513       838  TIP3      H1             32.0439515875      -39.4244699386        3.1259383134  W2        838             0.0000000000
      2514       838  TIP3      H2             33.0894515875      -40.5096499386        2.9803783134  W2        838             0.0000000000
      2515       839  TIP3      OH2            18.6847115875      -21.7675499386        2.2779883134  W2        839             0.0000000000
      2516       839  TIP3      H1             17.9643515875      -21.3274499386        1.8267583134  W2        839             0.0000000000
      2517       839  TIP3      H2             18.3191115875      -22.0180799386        3.1263883134  W2        839             0.0000000000
      2518       840  TIP3      OH2            21.1519715875      -22.1671599386        1.3077083134  W2        840             0.0000000000
      2519       840  TIP3      H1             20.2871915875      -22.0953099386        1.7117183134  W2        840             0.0000000000
      2520       840  TIP3      H2             21.0968715875      -21.6204299386        0.5239583134  W2        840             0.0000000000
      2521       841  TIP3      OH2            25.8625315875      -22.2792699386        0.4833083134  W2        841             0.0000000000
      2522       841  TIP3      H1             25.4059315875      -21.7502999386       -0.1708516866  W2        841             0.0000000000
      2523       841  TIP3      H2             26.0253315875      -21.6761299386        1.2085383134  W2        841             0.0000000000
      2524       842  TIP3      OH2            28.1901615875      -23.4013099386        1.4283383134  W2        842             0.0000000000
      2525       842  TIP3      H1             27.2855315875      -23.2362899386        1.1625483134  W2        842             0.0000000000
      2526       842  TIP3      H2             28.6190215875      -22.5480899386        1.3626783134  W2        842             0.0000000000
      2527       843  TIP3      OH2            30.7943515875      -21.8313999386        1.7231183134  W2        843             0.0000000000
      2528       843  TIP3      H1             30.6125515875      -20.9155099386        1.5126083134  W2        843             0.0000000000
      2529       843  TIP3      H2             30.9711315875      -22.2416899386        0.8765783134  W2        843             0.0000000000
      2530       844  TIP3      OH2            18.0995215875      -23.1442999386       -0.8118316866  W2        844             0.0000000000
      2531       844  TIP3      H1             18.0811215875      -23.5697899386        0.0453983134  W2        844             0.0000000000
      2532       844  TIP3      H2             18.9043115875      -23.4627999386       -1.2206116866  W2        844             0.0000000000
      2533       845  TIP3      OH2            20.2408315875      -24.4344299386       -2.1568416866  W2        845             0.0000000000
      2534       845  TIP3      H1             20.0219015875      -25.3506899386       -1.9872416866  W2        845             0.0000000000
      2535       845  TIP3      H2             21.0650515875      -24.2943899386       -1.6907016866  W2        845             0.0000000000
      2536       846  TIP3      OH2            22.7780815875      -23.9644999386       -1.3080416866  W2        846             0.0000000000
      2537       846  TIP3      H1             22.9906515875      -24.8525999386       -1.5949516866  W2        846             0.0000000000
      2538       846  TIP3      H2             22.8425915875      -23.9987299386       -0.3536416866  W2        846             0.0000000000
      2539       847  TIP3      OH2            26.2864515875      -38.3004399386       -2.1637116866  W2        847             0.0000000000
      2540       847  TIP3      H1             25.6121315875      -38.9298799386       -1.9081316866  W2        847             0.0000000000
      2541       847  TIP3      H2             26.8503715875      -38.7845499386       -2.7669216866  W2        847             0.0000000000
      2542       848  TIP3      OH2            31.4291715875      -40.1930399386       -2.0510016866  W2        848             0.0000000000
      2543       848  TIP3      H1             32.0329315875      -39.6454999386       -2.5529016866  W2        848             0.0000000000
      2544       848  TIP3      H2             30.5593715875      -39.8739999386       -2.2915916866  W2        848             0.0000000000
      2545       849  TIP3      OH2            33.1562115875      -39.0541699386       -3.7179116866  W2        849             0.0000000000
      2546       849  TIP3      H1             33.7679615875      -39.5685999386       -4.2445516866  W2        849             0.0000000000
      2547       849  TIP3      H2             33.5385515875      -38.1769599386       -3.6944716866  W2        849             0.0000000000
      2548       850  TIP3      OH2            18.6132015875      -39.6664099386       -4.3417216866  W2        850             0.0000000000
      2549       850  TIP3      H1             17.8361815875      -39.9009199386       -4.8491316866  W2        850             0.0000000000
      2550       850  TIP3      H2             19.1435615875      -40.4631999386       -4.3329216866  W2        850             0.0000000000
      2551       851  TIP3      OH2            17.4495415875      -39.8685999386       -8.5381116866  W2        851             0.0000000000
      2552       851  TIP3      H1             17.8886115875      -39.2575499386       -9.1297616866  W2        851             0.0000000000
      2553       851  TIP3      H2             16.8157815875      -39.3301899386       -8.0641116866  W2        851             0.0000000000
      2554       852  TIP3      OH2            23.1924615875      -39.7396999386       -4.5284116866  W2        852             0.0000000000
      2555       852  TIP3      H1             24.0668015875      -39.3512699386       -4.5579816866  W2        852             0.0000000000
      2556       852  TIP3      H2             23.0565415875      -39.9549199386       -3.6056916866  W2        852             0.0000000000
      2557       853  TIP3      OH2            28.7493015875      -39.7097199386       -2.8792416866  W2        853             0.0000000000
      2558       853  TIP3      H1             28.8254615875      -39.6145599386       -3.8286416866  W2        853             0.0000000000
      2559       853  TIP3      H2             28.4742215875      -40.6174299386       -2.7503316866  W2        853             0.0000000000
      2560       854  TIP3      OH2            30.1025615875      -39.6839399386       -7.1867416866  W2        854             0.0000000000
      2561       854  TIP3      H1             29.3996715875      -39.0690199386       -7.3966016866  W2        854             0.0000000000
      2562       854  TIP3      H2             29.6577015875      -40.5212699386       -7.0556516866  W2        854             0.0000000000
      2563       855  TIP3      OH2            17.3504915875      -23.9203799386       -7.6406016866  W2        855             0.0000000000
      2564       855  TIP3      H1             16.6654815875      -23.9584899386       -8.3080916866  W2        855             0.0000000000
      2565       855  TIP3      H2             17.3542115875      -23.0076199386       -7.3523916866  W2        855             0.0000000000
      2566       856  TIP3      OH2            19.3104515875      -37.9524499386      -10.0957016866  W2        856             0.0000000000
      2567       856  TIP3      H1             19.8017915875      -38.5822099386      -10.6231516866  W2        856             0.0000000000
      2568       856  TIP3      H2             19.9340815875      -37.6565099386       -9.4325816866  W2        856             0.0000000000
      2569       857  TIP3      OH2            24.3364615875      -37.6592999386       -7.6386516866  W2        857             0.0000000000
      2570       857  TIP3      H1             24.5145915875      -38.3059799386       -6.9557916866  W2        857             0.0000000000
      2571       857  TIP3      H2             24.2830815875      -36.8255299386       -7.1715416866  W2        857             0.0000000000
      2572       858  TIP3      OH2            26.2148415875      -22.7108899386       -9.2429816866  W2        858             0.0000000000
      2573       858  TIP3      H1             27.0808615875      -22.3441499386       -9.4211616866  W2        858             0.0000000000
      2574       858  TIP3      H2             25.9681215875      -23.1500899386      -10.0569016866  W2        858             0.0000000000
      2575       859  TIP3      OH2            32.9238015875      -23.1478599386       -6.5638716866  W2        859             0.0000000000
      2576       859  TIP3      H1             32.7295115875      -23.8956499386       -7.1289116866  W2        859             0.0000000000
      2577       859  TIP3      H2             32.8848115875      -22.3898499386       -7.1470816866  W2        859             0.0000000000
      2578       860  TIP3      OH2            18.5710015875      -39.1522199386        5.1758983134  W2        860             0.0000000000
      2579       860  TIP3      H1             18.2048215875      -39.9179599386        5.6183683134  W2        860             0.0000000000
      2580       860  TIP3      H2             19.4838515875      -39.1231999386        5.4624083134  W2        860             0.0000000000
      2581       861  TIP3      OH2            20.5440815875      -39.8017799386        6.7116083134  W2        861             0.0000000000
      2582       861  TIP3      H1             21.4424415875      -40.0757599386        6.5269483134  W2        861             0.0000000000
      2583       861  TIP3      H2             20.1573915875      -40.5441799386        7.1758683134  W2        861             0.0000000000
      2584       862  TIP3      OH2            19.1686115875      -23.0002999386      -10.6153916866  W2        862             0.0000000000
      2585       862  TIP3      H1             18.9010715875      -22.7140099386       -9.7420816866  W2        862             0.0000000000
      2586       862  TIP3      H2             19.9398715875      -23.5463799386      -10.4631416866  W2        862             0.0000000000
      2587       863  TIP3      OH2            28.9653115875      -40.4692499386        6.8938883134  W2        863             0.0000000000
      2588       863  TIP3      H1             29.0420315875      -40.8951799386        7.7476583134  W2        863             0.0000000000
      2589       863  TIP3      H2             29.8589715875      -40.4557799386        6.5512383134  W2        863             0.0000000000
      2590       864  TIP3      OH2            32.1414215875      -24.3966199386        5.5863083134  W2        864             0.0000000000
      2591       864  TIP3      H1             31.3596115875      -24.5828199386        5.0663683134  W2        864             0.0000000000
      2592       864  TIP3      H2             32.0694115875      -23.4671899386        5.8035583134  W2        864             0.0000000000
      2593       865  TIP3      OH2            37.8490915875      -31.6408999386        0.6288383134  W2        865             0.0000000000
      2594       865  TIP3      H1             37.8903015875      -32.2665699386        1.3520783134  W2        865             0.0000000000
      2595       865  TIP3      H2             38.5518615875      -31.0170399386        0.8108783134  W2        865             0.0000000000
      2596       866  TIP3      OH2            38.7724015875      -27.1910099386       -0.8362516866  W2        866             0.0000000000
      2597       866  TIP3      H1             38.4029215875      -27.9929599386       -1.2058216866  W2        866             0.0000000000
      2598       866  TIP3      H2             39.7135115875      -27.3595199386       -0.7899116866  W2        866             0.0000000000
      2599       867  TIP3      OH2            35.3824515875      -33.5307499386       -5.4433716866  W2        867             0.0000000000
      2600       867  TIP3      H1             34.9347915875      -32.6848799386       -5.4617216866  W2        867             0.0000000000
      2601       867  TIP3      H2             34.8215715875      -34.1103299386       -5.9588616866  W2        867             0.0000000000
      2602       868  TIP3      OH2            36.0930615875      -31.3687899386       -3.3175716866  W2        868             0.0000000000
      2603       868  TIP3      H1             36.3064115875      -32.1386299386       -2.7902716866  W2        868             0.0000000000
      2604       868  TIP3      H2             36.8308215875      -31.2791199386       -3.9208116866  W2        868             0.0000000000
      2605       869  TIP3      OH2            40.1655615875      -36.3270899386       -2.9580916866  W2        869             0.0000000000
      2606       869  TIP3      H1             40.2086715875      -35.4672399386       -3.3764616866  W2        869             0.0000000000
      2607       869  TIP3      H2             39.7079715875      -36.8796199386       -3.5917716866  W2        869             0.0000000000
      2608       870  TIP3      OH2            36.7857115875      -33.9305099386       -2.1959516866  W2        870             0.0000000000
      2609       870  TIP3      H1             37.4393715875      -34.4803399386       -1.7639416866  W2        870             0.0000000000
      2610       870  TIP3      H2             36.8096415875      -34.2046099386       -3.1127516866  W2        870             0.0000000000
      2611       871  TIP3      OH2            38.9757515875      -37.4092499386        1.1159883134  W2        871             0.0000000000
      2612       871  TIP3      H1             38.7569215875      -36.8791899386        0.3495883134  W2        871             0.0000000000
      2613       871  TIP3      H2             38.3078415875      -37.1826999386        1.7631283134  W2        871             0.0000000000
      2614       872  TIP3      OH2            38.5694815875      -35.5170699386       -0.9317916866  W2        872             0.0000000000
      2615       872  TIP3      H1             39.1831115875      -34.8843099386       -0.5585516866  W2        872             0.0000000000
      2616       872  TIP3      H2             39.0815515875      -35.9895699386       -1.5881016866  W2        872             0.0000000000
      2617       873  TIP3      OH2            39.9523215875      -27.7693799386        2.1905083134  W2        873             0.0000000000
      2618       873  TIP3      H1             39.9470815875      -26.8900299386        1.8124383134  W2        873             0.0000000000
      2619       873  TIP3      H2             39.0987315875      -27.8529699386        2.6154983134  W2        873             0.0000000000
      2620       874  TIP3      OH2            36.0734115875      -28.0985899386       -7.0275616866  W2        874             0.0000000000
      2621       874  TIP3      H1             35.8015015875      -27.8694899386       -7.9162716866  W2        874             0.0000000000
      2622       874  TIP3      H2             36.1189815875      -27.2607099386       -6.5670316866  W2        874             0.0000000000
      2623       875  TIP3      OH2            40.3198515875      -30.4262299386       -4.0968516866  W2        875             0.0000000000
      2624       875  TIP3      H1             39.9893715875      -30.7968899386       -4.9151516866  W2        875             0.0000000000
      2625       875  TIP3      H2             40.9082615875      -31.0968299386       -3.7500216866  W2        875             0.0000000000
      2626       876  TIP3      OH2            38.4864615875      -31.0602899386        3.4824083134  W2        876             0.0000000000
      2627       876  TIP3      H1             38.5567815875      -30.4096099386        4.1809083134  W2        876             0.0000000000
      2628       876  TIP3      H2             37.5956815875      -30.9575399386        3.1474983134  W2        876             0.0000000000
      2629       877  TIP3      OH2            39.8060615875      -25.1868999386        5.0172183134  W2        877             0.0000000000
      2630       877  TIP3      H1             39.8135915875      -25.3229299386        4.0697683134  W2        877             0.0000000000
      2631       877  TIP3      H2             38.8901015875      -25.3040899386        5.2692183134  W2        877             0.0000000000
      2632       878  TIP3      OH2            39.3101215875      -31.3567999386       -6.5075716866  W2        878             0.0000000000
      2633       878  TIP3      H1             39.0182515875      -30.5886299386       -6.9984416866  W2        878             0.0000000000
      2634       878  TIP3      H2             38.6356415875      -32.0161799386       -6.6704316866  W2        878             0.0000000000
      2635       879  TIP3      OH2            35.4031315875      -28.9938799386        2.3074083134  W2        879             0.0000000000
      2636       879  TIP3      H1             34.9019715875      -29.0219399386        1.4923783134  W2        879             0.0000000000
      2637       879  TIP3      H2             35.4085015875      -29.8995599386        2.6171383134  W2        879             0.0000000000
      2638       880  TIP3      OH2            35.1534015875      -26.2134999386       -0.8085716866  W2        880             0.0000000000
      2639       880  TIP3      H1             36.0994615875      -26.3577999386       -0.8276216866  W2        880             0.0000000000
      2640       880  TIP3      H2             35.0410315875      -25.4292199386       -0.2714516866  W2        880             0.0000000000
      2641       881  TIP3      OH2            38.3976115875      -23.4125399386       -4.6631016866  W2        881             0.0000000000
      2642       881  TIP3      H1             38.5496515875      -23.7604999386       -3.7844516866  W2        881             0.0000000000
      2643       881  TIP3      H2             37.5466515875      -23.7688099386       -4.9183816866  W2        881             0.0000000000
      2644       882  TIP3      OH2            37.6521815875      -27.6703399386        3.3506883134  W2        882             0.0000000000
      2645       882  TIP3      H1             37.8683115875      -28.0317799386        4.2102683134  W2        882             0.0000000000
      2646       882  TIP3      H2             36.7966515875      -28.0449599386        3.1410383134  W2        882             0.0000000000
      2647       883  TIP3      OH2            40.2709815875      -39.2002899386       -0.6538916866  W2        883             0.0000000000
      2648       883  TIP3      H1             39.4093515875      -39.2874699386       -1.0616016866  W2        883             0.0000000000
      2649       883  TIP3      H2             40.2485515875      -38.3442799386       -0.2261316866  W2        883             0.0000000000
      2650       884  TIP3      OH2            40.3619915875      -34.2348399386        0.4411283134  W2        884             0.0000000000
      2651       884  TIP3      H1             39.7202015875      -34.2751099386        1.1501383134  W2        884             0.0000000000
      2652       884  TIP3      H2             40.3991915875      -33.3083699386        0.2034283134  W2        884             0.0000000000
      2653       885  TIP3      OH2            40.3589015875      -34.0138299386       -4.6468716866  W2        885             0.0000000000
      2654       885  TIP3      H1             39.4661915875      -34.3542199386       -4.7054916866  W2        885             0.0000000000
      2655       885  TIP3      H2             40.8095615875      -34.3907399386       -5.4025516866  W2        885             0.0000000000
      2656       886  TIP3      OH2            38.1120415875      -33.9144899386        2.3083283134  W2        886             0.0000000000
      2657       886  TIP3      H1             38.0739815875      -33.5143299386        3.1770383134  W2        886             0.0000000000
      2658       886  TIP3      H2             37.6211515875      -34.7312499386        2.3986183134  W2        886             0.0000000000
      2659       887  TIP3      OH2            34.7201215875      -36.7983099386       -3.8412016866  W2        887             0.0000000000
      2660       887  TIP3      H1             35.3508915875      -36.8270999386       -3.1218116866  W2        887             0.0000000000
      2661       887  TIP3      H2             35.1695515875      -37.2234399386       -4.5716116866  W2        887             0.0000000000
      2662       888  TIP3      OH2            35.9943315875      -36.0521099386       -8.4171616866  W2        888             0.0000000000
      2663       888  TIP3      H1             36.4685015875      -35.4611199386       -9.0020716866  W2        888             0.0000000000
      2664       888  TIP3      H2             35.2769715875      -35.5218199386       -8.0701516866  W2        888             0.0000000000
      2665       889  TIP3      OH2            37.7687715875      -34.9574499386       -4.7337016866  W2        889             0.0000000000
      2666       889  TIP3      H1             36.8795715875      -34.8578999386       -5.0737416866  W2        889             0.0000000000
      2667       889  TIP3      H2             38.0652615875      -35.7991499386       -5.0799116866  W2        889             0.0000000000
      2668       890  TIP3      OH2            40.0959715875      -33.7629699386       -9.5106316866  W2        890             0.0000000000
      2669       890  TIP3      H1             39.5534815875      -34.1425899386      -10.2018716866  W2        890             0.0000000000
      2670       890  TIP3      H2             40.9294615875      -33.5684999386       -9.9392216866  W2        890             0.0000000000
      2671       891  TIP3      OH2            38.2311115875      -29.2057799386        5.5885283134  W2        891             0.0000000000
      2672       891  TIP3      H1             38.9633515875      -28.9511899386        6.1499783134  W2        891             0.0000000000
      2673       891  TIP3      H2             37.4509815875      -29.0012399386        6.1040683134  W2        891             0.0000000000
      2674       892  TIP3      OH2            39.2623715875      -37.6621699386       -5.2550216866  W2        892             0.0000000000
      2675       892  TIP3      H1             38.9453215875      -38.5646399386       -5.2904816866  W2        892             0.0000000000
      2676       892  TIP3      H2             40.0437815875      -37.6604299386       -5.8078616866  W2        892             0.0000000000
      2677       893  TIP3      OH2            38.5560815875      -29.9023999386       -1.8050316866  W2        893             0.0000000000
      2678       893  TIP3      H1             39.3008015875      -29.9048299386       -2.4063816866  W2        893             0.0000000000
      2679       893  TIP3      H2             38.6337415875      -30.7260199386       -1.3235216866  W2        893             0.0000000000
      2680       894  TIP3      OH2            35.5640515875      -31.4417099386        3.5098183134  W2        894             0.0000000000
      2681       894  TIP3      H1             35.7869115875      -31.8597499386        4.3415683134  W2        894             0.0000000000
      2682       894  TIP3      H2             34.9620615875      -32.0542099386        3.0870983134  W2        894             0.0000000000
      2683       895  TIP3      OH2            36.6857915875      -31.5221699386       -9.8136416866  W2        895             0.0000000000
      2684       895  TIP3      H1             37.3017815875      -30.8954499386       -9.4341616866  W2        895             0.0000000000
      2685       895  TIP3      H2             35.8240515875      -31.2061899386       -9.5419916866  W2        895             0.0000000000
      2686       896  TIP3      OH2            37.1980015875      -36.6884399386        3.0679583134  W2        896             0.0000000000
      2687       896  TIP3      H1             36.3052315875      -36.3498999386        3.0003583134  W2        896             0.0000000000
      2688       896  TIP3      H2             37.0992815875      -37.5438299386        3.4860383134  W2        896             0.0000000000
      2689       897  TIP3      OH2            36.8492015875      -24.8839999386        1.5028983134  W2        897             0.0000000000
      2690       897  TIP3      H1             37.0662315875      -25.8157599386        1.4718683134  W2        897             0.0000000000
      2691       897  TIP3      H2             37.0955515875      -24.6094999386        2.3861783134  W2        897             0.0000000000
      2692       898  TIP3      OH2            38.1008315875      -29.6097899386       -8.3210816866  W2        898             0.0000000000
      2693       898  TIP3      H1             37.4147615875      -29.2575399386       -7.7541116866  W2        898             0.0000000000
      2694       898  TIP3      H2             38.6236215875      -28.8468299386       -8.5676516866  W2        898             0.0000000000
      2695       899  TIP3      OH2            40.4581915875      -37.4231199386       -8.4847516866  W2        899             0.0000000000
      2696       899  TIP3      H1             40.3746715875      -36.5348099386       -8.1381116866  W2        899             0.0000000000
      2697       899  TIP3      H2             41.3482215875      -37.6884499386       -8.2530716866  W2        899             0.0000000000
      2698       900  TIP3      OH2            38.7167215875      -26.9958999386       -9.4243016866  W2        900             0.0000000000
      2699       900  TIP3      H1             39.3088715875      -26.2964199386       -9.1480616866  W2        900             0.0000000000
      2700       900  TIP3      H2             39.1760215875      -27.4289499386      -10.1438416866  W2        900             0.0000000000
      2701       901  TIP3      OH2            37.0326415875      -34.3315999386      -10.3083616866  W2        901             0.0000000000
      2702       901  TIP3      H1             36.9879015875      -33.3922899386      -10.1296616866  W2        901             0.0000000000
      2703       901  TIP3      H2             36.1449615875      -34.5671099386      -10.5781516866  W2        901             0.0000000000
      2704       902  TIP3      OH2            37.8408415875      -39.5499399386       -1.6352616866  W2        902             0.0000000000
      2705       902  TIP3      H1             37.6118215875      -39.4906899386       -2.5627616866  W2        902             0.0000000000
      2706       902  TIP3      H2             37.3981815875      -40.3413899386       -1.3288516866  W2        902             0.0000000000
      2707       903  TIP3      OH2            36.7711715875      -25.6092299386       -5.4746816866  W2        903             0.0000000000
      2708       903  TIP3      H1             35.9390315875      -25.1369599386       -5.4475416866  W2        903             0.0000000000
      2709       903  TIP3      H2             37.3170015875      -25.0994699386       -6.0733716866  W2        903             0.0000000000
      2710       904  TIP3      OH2            36.0595415875      -22.9968599386        5.8551183134  W2        904             0.0000000000
      2711       904  TIP3      H1             36.5997615875      -23.2134599386        6.6150383134  W2        904             0.0000000000
      2712       904  TIP3      H2             35.5783415875      -23.8022599386        5.6653683134  W2        904             0.0000000000
      2713       905  TIP3      OH2            35.9664915875      -29.1864499386        6.8095483134  W2        905             0.0000000000
      2714       905  TIP3      H1             36.1105415875      -30.0883799386        6.5232183134  W2        905             0.0000000000
      2715       905  TIP3      H2             35.1942315875      -28.9002399386        6.3217783134  W2        905             0.0000000000
      2716       906  TIP3      OH2            40.3078615875      -28.8428799386      -11.0579916866  W2        906             0.0000000000
      2717       906  TIP3      H1             40.3722715875      -29.6369199386      -10.5273516866  W2        906             0.0000000000
      2718       906  TIP3      H2             40.9607815875      -28.9615999386      -11.7477916866  W2        906             0.0000000000
      2719       907  TIP3      OH2            36.7991415875      -31.9861199386        6.2294783134  W2        907             0.0000000000
      2720       907  TIP3      H1             37.2072615875      -32.8434599386        6.1085383134  W2        907             0.0000000000
      2721       907  TIP3      H2             36.5389015875      -31.9719899386        7.1505083134  W2        907             0.0000000000
      2722       908  TIP3      OH2            39.5641715875      -34.4241199386        6.5976383134  W2        908             0.0000000000
      2723       908  TIP3      H1             38.7970715875      -34.9566399386        6.3873983134  W2        908             0.0000000000
      2724       908  TIP3      H2             40.2430715875      -34.7340799386        5.9982683134  W2        908             0.0000000000
      2725       909  TIP3      OH2            37.7444515875      -36.5037399386        6.3021083134  W2        909             0.0000000000
      2726       909  TIP3      H1             37.9561915875      -37.2101299386        5.6918583134  W2        909             0.0000000000
      2727       909  TIP3      H2             37.6332015875      -36.9411399386        7.1462283134  W2        909             0.0000000000
      2728       910  TIP3      OH2            35.9939415875      -27.3003299386      -10.0057016866  W2        910             0.0000000000
      2729       910  TIP3      H1             36.9078615875      -27.2214399386       -9.7323116866  W2        910             0.0000000000
      2730       910  TIP3      H2             36.0012515875      -27.9873699386      -10.6721416866  W2        910             0.0000000000
      2731       911  TIP3      OH2            34.6430015875      -21.9074799386       -4.9283116866  W2        911             0.0000000000
      2732       911  TIP3      H1             33.9957115875      -22.3693099386       -5.4611916866  W2        911             0.0000000000
      2733       911  TIP3      H2             34.9974615875      -22.5791499386       -4.3456916866  W2        911             0.0000000000
      2734       912  TIP3      OH2            35.5129215875      -23.8267799386       -3.1236916866  W2        912             0.0000000000
      2735       912  TIP3      H1             35.1786015875      -24.7070499386       -2.9516716866  W2        912             0.0000000000
      2736       912  TIP3      H2             35.7351615875      -23.4812799386       -2.2591316866  W2        912             0.0000000000
      2737       913  TIP3      OH2            35.5928715875      -30.7512399386       -0.6722016866  W2        913             0.0000000000
      2738       913  TIP3      H1             35.7771615875      -30.8330699386       -1.6079116866  W2        913             0.0000000000
      2739       913  TIP3      H2             36.4421615875      -30.8755399386       -0.2485616866  W2        913             0.0000000000
      2740       914  TIP3      OH2            35.1903515875      -35.4807399386        5.4686783134  W2        914             0.0000000000
      2741       914  TIP3      H1             36.1098415875      -35.6029099386        5.7049883134  W2        914             0.0000000000
      2742       914  TIP3      H2             34.7408015875      -36.2307699386        5.8580283134  W2        914             0.0000000000
      2743       915  TIP3      OH2            36.4116015875      -37.1685799386       -1.6400316866  W2        915             0.0000000000
      2744       915  TIP3      H1             36.8567615875      -37.9603299386       -1.3380616866  W2        915             0.0000000000
      2745       915  TIP3      H2             36.8779015875      -36.4520599386       -1.2094716866  W2        915             0.0000000000
      2746       916  TIP3      OH2            34.7156315875      -34.1692799386       -0.5710116866  W2        916             0.0000000000
      2747       916  TIP3      H1             35.2076115875      -34.3902299386       -1.3618116866  W2        916             0.0000000000
      2748       916  TIP3      H2             35.0777215875      -33.3289399386       -0.2900616866  W2        916             0.0000000000
      2749       917  TIP3      OH2            35.0292815875      -37.9113699386       -6.5167716866  W2        917             0.0000000000
      2750       917  TIP3      H1             34.1041215875      -37.7027099386       -6.6462216866  W2        917             0.0000000000
      2751       917  TIP3      H2             35.4832715875      -37.4272899386       -7.2065416866  W2        917             0.0000000000
      2752       918  TIP3      OH2            34.9928215875      -39.1734699386        1.8274783134  W2        918             0.0000000000
      2753       918  TIP3      H1             34.3278715875      -39.4194399386        2.4705683134  W2        918             0.0000000000
      2754       918  TIP3      H2             34.5499515875      -38.5514299386        1.2502783134  W2        918             0.0000000000
      2755       919  TIP3      OH2            37.1847515875      -25.9980599386        5.9720583134  W2        919             0.0000000000
      2756       919  TIP3      H1             36.3640015875      -25.8234099386        5.5115283134  W2        919             0.0000000000
      2757       919  TIP3      H2             36.9325315875      -26.0715899386        6.8924983134  W2        919             0.0000000000
      2758       920  TIP3      OH2            40.1390415875      -25.0239399386        2.2304583134  W2        920             0.0000000000
      2759       920  TIP3      H1             39.7141515875      -24.2140899386        1.9479183134  W2        920             0.0000000000
      2760       920  TIP3      H2             41.0433215875      -24.9385299386        1.9284383134  W2        920             0.0000000000
      2761       921  TIP3      OH2            37.5407115875      -21.7675499386        2.2779883134  W2        921             0.0000000000
      2762       921  TIP3      H1             36.8203515875      -21.3274499386        1.8267583134  W2        921             0.0000000000
      2763       921  TIP3      H2             37.1751115875      -22.0180799386        3.1263883134  W2        921             0.0000000000
      2764       922  TIP3      OH2            40.0079715875      -22.1671599386        1.3077083134  W2        922             0.0000000000
      2765       922  TIP3      H1             39.1431915875      -22.0953099386        1.7117183134  W2        922             0.0000000000
      2766       922  TIP3      H2             39.9528715875      -21.6204299386        0.5239583134  W2        922             0.0000000000
      2767       923  TIP3      OH2            36.9555215875      -23.1442999386       -0.8118316866  W2        923             0.0000000000
      2768       923  TIP3      H1             36.9371215875      -23.5697899386        0.0453983134  W2        923             0.0000000000
      2769       923  TIP3      H2             37.7603115875      -23.4627999386       -1.2206116866  W2        923             0.0000000000
      2770       924  TIP3      OH2            39.0968315875      -24.4344299386       -2.1568416866  W2        924             0.0000000000
      2771       924  TIP3      H1             38.8779015875      -25.3506899386       -1.9872416866  W2        924             0.0000000000
      2772       924  TIP3      H2             39.9210515875      -24.2943899386       -1.6907016866  W2        924             0.0000000000
      2773       925  TIP3      OH2            37.4692015875      -39.6664099386       -4.3417216866  W2        925             0.0000000000
      2774       925  TIP3      H1             36.6921815875      -39.9009199386       -4.8491316866  W2        925             0.0000000000
      2775       925  TIP3      H2             37.9995615875      -40.4631999386       -4.3329216866  W2        925             0.0000000000
      2776       926  TIP3      OH2            36.3055415875      -39.8685999386       -8.5381116866  W2        926             0.0000000000
      2777       926  TIP3      H1             36.7446115875      -39.2575499386       -9.1297616866  W2        926             0.0000000000
      2778       926  TIP3      H2             35.6717815875      -39.3301899386       -8.0641116866  W2        926             0.0000000000
      2779       927  TIP3      OH2            36.2064915875      -23.9203799386       -7.6406016866  W2        927             0.0000000000
      2780       927  TIP3      H1             35.5214815875      -23.9584899386       -8.3080916866  W2        927             0.0000000000
      2781       927  TIP3      H2             36.2102115875      -23.0076199386       -7.3523916866  W2        927             0.0000000000
      2782       928  TIP3      OH2            38.1664515875      -37.9524499386      -10.0957016866  W2        928             0.0000000000
      2783       928  TIP3      H1             38.6577915875      -38.5822099386      -10.6231516866  W2        928             0.0000000000
      2784       928  TIP3      H2             38.7900815875      -37.6565099386       -9.4325816866  W2        928             0.0000000000
      2785       929  TIP3      OH2            37.4270015875      -39.1522199386        5.1758983134  W2        929             0.0000000000
      2786       929  TIP3      H1             37.0608215875      -39.9179599386        5.6183683134  W2        929             0.0000000000
      2787       929  TIP3      H2             38.3398515875      -39.1231999386        5.4624083134  W2        929             0.0000000000
      2788       930  TIP3      OH2            39.4000815875      -39.8017799386        6.7116083134  W2        930             0.0000000000
      2789       930  TIP3      H1             40.2984415875      -40.0757599386        6.5269483134  W2        930             0.0000000000
      2790       930  TIP3      H2             39.0133915875      -40.5441799386        7.1758683134  W2        930             0.0000000000
      2791       931  TIP3      OH2            38.0246115875      -23.0002999386      -10.6153916866  W2        931             0.0000000000
      2792       931  TIP3      H1             37.7570715875      -22.7140099386       -9.7420816866  W2        931             0.0000000000
      2793       931  TIP3      H2             38.7958715875      -23.5463799386      -10.4631416866  W2        931             0.0000000000
      2794       932  TIP3      OH2           -28.8765384125      -11.6541799386       -4.3829716866  W2        932             0.0000000000
      2795       932  TIP3      H1            -28.7874284125      -10.7103599386       -4.5152616866  W2        932             0.0000000000
      2796       932  TIP3      H2            -29.5147784125      -11.9295399386       -5.0410316866  W2        932             0.0000000000
      2797       933  TIP3      OH2           -29.9434084125      -12.3991099386       -0.9641516866  W2        933             0.0000000000
      2798       933  TIP3      H1            -29.9816584125      -13.0454799386       -0.2591916866  W2        933             0.0000000000
      2799       933  TIP3      H2            -30.2657584125      -12.8656699386       -1.7352816866  W2        933             0.0000000000
      2800       934  TIP3      OH2           -37.5749084125      -12.7848999386        0.6288383134  W2        934             0.0000000000
      2801       934  TIP3      H1            -37.5336984125      -13.4105699386        1.3520783134  W2        934             0.0000000000
      2802       934  TIP3      H2            -36.8721384125      -12.1610399386        0.8108783134  W2        934             0.0000000000
      2803       935  TIP3      OH2           -26.2373884125       -9.4600699386       -2.6626416866  W2        935             0.0000000000
      2804       935  TIP3      H1            -26.6781184125      -10.1804699386       -2.2120816866  W2        935             0.0000000000
      2805       935  TIP3      H2            -26.2504184125       -8.7393499386       -2.0328716866  W2        935             0.0000000000
      2806       936  TIP3      OH2           -36.6515984125       -8.3350099386       -0.8362516866  W2        936             0.0000000000
      2807       936  TIP3      H1            -37.0210784125       -9.1369599386       -1.2058216866  W2        936             0.0000000000
      2808       936  TIP3      H2            -35.7104884125       -8.5035199386       -0.7899116866  W2        936             0.0000000000
      2809       937  TIP3      OH2           -40.0415484125      -14.6747499386       -5.4433716866  W2        937             0.0000000000
      2810       937  TIP3      H1            -40.4892084125      -13.8288799386       -5.4617216866  W2        937             0.0000000000
      2811       937  TIP3      H2            -40.6024284125      -15.2543299386       -5.9588616866  W2        937             0.0000000000
      2812       938  TIP3      OH2           -39.3309384125      -12.5127899386       -3.3175716866  W2        938             0.0000000000
      2813       938  TIP3      H1            -39.1175884125      -13.2826299386       -2.7902716866  W2        938             0.0000000000
      2814       938  TIP3      H2            -38.5931784125      -12.4231199386       -3.9208116866  W2        938             0.0000000000
      2815       939  TIP3      OH2           -29.1258384125       -4.3558999386       -2.4506016866  W2        939             0.0000000000
      2816       939  TIP3      H1            -28.5061984125       -5.0324299386       -2.7236816866  W2        939             0.0000000000
      2817       939  TIP3      H2            -29.3340984125       -4.5738199386       -1.5421116866  W2        939             0.0000000000
      2818       940  TIP3      OH2           -31.5539684125       -9.9669699386       -0.5580516866  W2        940             0.0000000000
      2819       940  TIP3      H1            -31.2501784125      -10.6528299386       -1.1526416866  W2        940             0.0000000000
      2820       940  TIP3      H2            -30.8325684125       -9.8480999386        0.0597483134  W2        940             0.0000000000
      2821       941  TIP3      OH2           -22.8909884125      -18.3654399386        0.3025683134  W2        941             0.0000000000
      2822       941  TIP3      H1            -22.8417684125      -17.7553199386        1.0384783134  W2        941             0.0000000000
      2823       941  TIP3      H2            -22.4654784125      -17.9043499386       -0.4203216866  W2        941             0.0000000000
      2824       942  TIP3      OH2           -28.4132684125      -15.5727299386       -0.2305716866  W2        942             0.0000000000
      2825       942  TIP3      H1            -28.2706784125      -16.5190299386       -0.2104116866  W2        942             0.0000000000
      2826       942  TIP3      H2            -28.5193684125      -15.3657499386       -1.1590816866  W2        942             0.0000000000
      2827       943  TIP3      OH2           -35.2584384125      -17.4710899386       -2.9580916866  W2        943             0.0000000000
      2828       943  TIP3      H1            -35.2153284125      -16.6112399386       -3.3764616866  W2        943             0.0000000000
      2829       943  TIP3      H2            -35.7160284125      -18.0236199386       -3.5917716866  W2        943             0.0000000000
      2830       944  TIP3      OH2           -27.5361684125      -17.3405299386       -4.5572616866  W2        944             0.0000000000
      2831       944  TIP3      H1            -26.8897384125      -17.6692099386       -3.9325016866  W2        944             0.0000000000
      2832       944  TIP3      H2            -27.0262284125      -16.8226299386       -5.1801216866  W2        944             0.0000000000
      2833       945  TIP3      OH2           -38.6382884125      -15.0745099386       -2.1959516866  W2        945             0.0000000000
      2834       945  TIP3      H1            -37.9846284125      -15.6243399386       -1.7639416866  W2        945             0.0000000000
      2835       945  TIP3      H2            -38.6143584125      -15.3486099386       -3.1127516866  W2        945             0.0000000000
      2836       946  TIP3      OH2           -33.4818384125      -13.5243799386       -2.9808016866  W2        946             0.0000000000
      2837       946  TIP3      H1            -32.8657384125      -14.0508399386       -2.4714016866  W2        946             0.0000000000
      2838       946  TIP3      H2            -34.0679584125      -14.1645099386       -3.3844416866  W2        946             0.0000000000
      2839       947  TIP3      OH2           -22.4995284125      -16.8875199386        2.5385483134  W2        947             0.0000000000
      2840       947  TIP3      H1            -23.1880684125      -16.2294499386        2.4432083134  W2        947             0.0000000000
      2841       947  TIP3      H2            -22.4840684125      -17.0847299386        3.4750883134  W2        947             0.0000000000
      2842       948  TIP3      OH2           -36.4482484125      -18.5532499386        1.1159883134  W2        948             0.0000000000
      2843       948  TIP3      H1            -36.6670784125      -18.0231899386        0.3495883134  W2        948             0.0000000000
      2844       948  TIP3      H2            -37.1161584125      -18.3266999386        1.7631283134  W2        948             0.0000000000
      2845       949  TIP3      OH2           -29.0792684125       -9.0531399386       -5.3401016866  W2        949             0.0000000000
      2846       949  TIP3      H1            -29.3747584125       -9.3759099386       -6.1914116866  W2        949             0.0000000000
      2847       949  TIP3      H2            -29.4034884125       -8.1534699386       -5.2988416866  W2        949             0.0000000000
      2848       950  TIP3      OH2           -33.8791084125      -10.8776799386        1.4033583134  W2        950             0.0000000000
      2849       950  TIP3      H1            -34.6191984125      -10.2795299386        1.5068783134  W2        950             0.0000000000
      2850       950  TIP3      H2            -33.1651584125      -10.3237199386        1.0877183134  W2        950             0.0000000000
      2851       951  TIP3      OH2           -25.7723284125      -18.0495999386       -2.5766716866  W2        951             0.0000000000
      2852       951  TIP3      H1            -25.9875284125      -18.8152599386       -2.0440716866  W2        951             0.0000000000
      2853       951  TIP3      H2            -25.1165884125      -17.5771399386       -2.0638216866  W2        951             0.0000000000
      2854       952  TIP3      OH2           -36.8545184125      -16.6610699386       -0.9317916866  W2        952             0.0000000000
      2855       952  TIP3      H1            -36.2408884125      -16.0283099386       -0.5585516866  W2        952             0.0000000000
      2856       952  TIP3      H2            -36.3424484125      -17.1335699386       -1.5881016866  W2        952             0.0000000000
      2857       953  TIP3      OH2           -35.4716784125       -8.9133799386        2.1905083134  W2        953             0.0000000000
      2858       953  TIP3      H1            -35.4769184125       -8.0340299386        1.8124383134  W2        953             0.0000000000
      2859       953  TIP3      H2            -36.3252684125       -8.9969699386        2.6154983134  W2        953             0.0000000000
      2860       954  TIP3      OH2           -39.3505884125       -9.2425899386       -7.0275616866  W2        954             0.0000000000
      2861       954  TIP3      H1            -39.6224984125       -9.0134899386       -7.9162716866  W2        954             0.0000000000
      2862       954  TIP3      H2            -39.3050184125       -8.4047099386       -6.5670316866  W2        954             0.0000000000
      2863       955  TIP3      OH2           -25.7256184125       -7.6209999386       -0.3147116866  W2        955             0.0000000000
      2864       955  TIP3      H1            -26.6672484125       -7.5626099386       -0.1530216866  W2        955             0.0000000000
      2865       955  TIP3      H2            -25.4490084125       -6.7149499386       -0.4517416866  W2        955             0.0000000000
      2866       956  TIP3      OH2           -25.4249184125      -19.3344699386        1.1026783134  W2        956             0.0000000000
      2867       956  TIP3      H1            -26.1609984125      -18.7237599386        1.0648083134  W2        956             0.0000000000
      2868       956  TIP3      H2            -24.7415184125      -18.9195699386        0.5763183134  W2        956             0.0000000000
      2869       957  TIP3      OH2           -32.4217784125      -21.2477399386       -1.4315216866  W2        957             0.0000000000
      2870       957  TIP3      H1            -32.5393584125      -22.1961399386       -1.4856916866  W2        957             0.0000000000
      2871       957  TIP3      H2            -33.2767684125      -20.9151299386       -1.1584116866  W2        957             0.0000000000
      2872       958  TIP3      OH2           -27.4734984125       -5.8396499386       -3.6895516866  W2        958             0.0000000000
      2873       958  TIP3      H1            -27.0482684125       -6.5468599386       -4.1745916866  W2        958             0.0000000000
      2874       958  TIP3      H2            -27.1564984125       -5.0383799386       -4.1063316866  W2        958             0.0000000000
      2875       959  TIP3      OH2           -26.3138484125       -7.9387999386       -5.1808916866  W2        959             0.0000000000
      2876       959  TIP3      H1            -26.5713684125       -8.6287899386       -5.7923016866  W2        959             0.0000000000
      2877       959  TIP3      H2            -26.2427684125       -8.3816799386       -4.3353016866  W2        959             0.0000000000
      2878       960  TIP3      OH2           -24.6278284125       -9.3721299386        3.2964583134  W2        960             0.0000000000
      2879       960  TIP3      H1            -24.4881984125       -9.9638799386        2.5571583134  W2        960             0.0000000000
      2880       960  TIP3      H2            -24.4605484125       -8.4995399386        2.9403383134  W2        960             0.0000000000
      2881       961  TIP3      OH2           -30.1552884125      -12.4101799386       -6.9309416866  W2        961             0.0000000000
      2882       961  TIP3      H1            -30.8667384125      -11.8752099386       -7.2828916866  W2        961             0.0000000000
      2883       961  TIP3      H2            -29.4643284125      -12.3549699386       -7.5910516866  W2        961             0.0000000000
      2884       962  TIP3      OH2           -30.1013684125      -13.9527499386       -9.8924416866  W2        962             0.0000000000
      2885       962  TIP3      H1            -29.4003784125      -13.9300599386       -9.2410416866  W2        962             0.0000000000
      2886       962  TIP3      H2            -29.7990784125      -14.5807799386      -10.5485116866  W2        962             0.0000000000
      2887       963  TIP3      OH2           -22.7858984125      -13.0323299386        1.3624983134  W2        963             0.0000000000
      2888       963  TIP3      H1            -23.4384884125      -12.3377699386        1.4515883134  W2        963             0.0000000000
      2889       963  TIP3      H2            -22.3208684125      -12.8222399386        0.5526583134  W2        963             0.0000000000
      2890       964  TIP3      OH2           -26.7495184125      -12.2008499386       -5.9793516866  W2        964             0.0000000000
      2891       964  TIP3      H1            -27.4814184125      -11.9724799386       -5.4062916866  W2        964             0.0000000000
      2892       964  TIP3      H2            -26.3022984125      -12.9145799386       -5.5246016866  W2        964             0.0000000000
      2893       965  TIP3      OH2           -26.8521684125      -14.0265899386        3.0883483134  W2        965             0.0000000000
      2894       965  TIP3      H1            -26.7722584125      -13.2631499386        3.6601983134  W2        965             0.0000000000
      2895       965  TIP3      H2            -27.4533984125      -13.7473499386        2.3978583134  W2        965             0.0000000000
      2896       966  TIP3      OH2           -35.1041484125      -11.5702299386       -4.0968516866  W2        966             0.0000000000
      2897       966  TIP3      H1            -35.4346284125      -11.9408899386       -4.9151516866  W2        966             0.0000000000
      2898       966  TIP3      H2            -34.5157384125      -12.2408299386       -3.7500216866  W2        966             0.0000000000
      2899       967  TIP3      OH2           -33.7373984125       -8.1421699386       -1.4156316866  W2        967             0.0000000000
      2900       967  TIP3      H1            -33.8322684125       -8.7208599386       -2.1721716866  W2        967             0.0000000000
      2901       967  TIP3      H2            -33.0080384125       -8.5135999386       -0.9193516866  W2        967             0.0000000000
      2902       968  TIP3      OH2           -34.7375984125      -12.8016699386       -0.4633516866  W2        968             0.0000000000
      2903       968  TIP3      H1            -34.1723484125      -12.6802499386       -1.2262316866  W2        968             0.0000000000
      2904       968  TIP3      H2            -34.4187084125      -12.1641699386        0.1754983134  W2        968             0.0000000000
      2905       969  TIP3      OH2           -28.4283784125       -7.2984799386        0.2706983134  W2        969             0.0000000000
      2906       969  TIP3      H1            -28.6687184125       -6.6361699386        0.9186183134  W2        969             0.0000000000
      2907       969  TIP3      H2            -28.6265584125       -8.1329599386        0.6956583134  W2        969             0.0000000000
      2908       970  TIP3      OH2           -33.8575284125       -8.4023999386        4.2538383134  W2        970             0.0000000000
      2909       970  TIP3      H1            -34.1687784125       -7.6200799386        4.7091583134  W2        970             0.0000000000
      2910       970  TIP3      H2            -34.5075084125       -8.5554899386        3.5680383134  W2        970             0.0000000000
      2911       971  TIP3      OH2           -27.8785684125      -13.0385599386       -8.2942316866  W2        971             0.0000000000
      2912       971  TIP3      H1            -27.2990184125      -12.8885299386       -7.5473416866  W2        971             0.0000000000
      2913       971  TIP3      H2            -27.4645684125      -12.5678199386       -9.0175916866  W2        971             0.0000000000
      2914       972  TIP3      OH2           -36.9375384125      -12.2042899386        3.4824083134  W2        972             0.0000000000
      2915       972  TIP3      H1            -36.8672184125      -11.5536099386        4.1809083134  W2        972             0.0000000000
      2916       972  TIP3      H2            -37.8283184125      -12.1015399386        3.1474983134  W2        972             0.0000000000
      2917       973  TIP3      OH2           -30.1520784125       -6.3017099386       -4.8589216866  W2        973             0.0000000000
      2918       973  TIP3      H1            -29.6783184125       -6.0060799386       -4.0815016866  W2        973             0.0000000000
      2919       973  TIP3      H2            -30.7151484125       -5.5635499386       -5.0919616866  W2        973             0.0000000000
      2920       974  TIP3      OH2           -35.6179384125       -6.3308999386        5.0172183134  W2        974             0.0000000000
      2921       974  TIP3      H1            -35.6104084125       -6.4669299386        4.0697683134  W2        974             0.0000000000
      2922       974  TIP3      H2            -36.5338984125       -6.4480899386        5.2692183134  W2        974             0.0000000000
      2923       975  TIP3      OH2           -24.1797284125      -21.2885199386       -8.4812616866  W2        975             0.0000000000
      2924       975  TIP3      H1            -25.0796584125      -21.1496199386       -8.1862016866  W2        975             0.0000000000
      2925       975  TIP3      H2            -23.9278884125      -20.4570599386       -8.8830916866  W2        975             0.0000000000
      2926       976  TIP3      OH2           -36.1138784125      -12.5007999386       -6.5075716866  W2        976             0.0000000000
      2927       976  TIP3      H1            -36.4057484125      -11.7326299386       -6.9984416866  W2        976             0.0000000000
      2928       976  TIP3      H2            -36.7883584125      -13.1601799386       -6.6704316866  W2        976             0.0000000000
      2929       977  TIP3      OH2           -22.9905884125       -6.9222799386      -10.1048716866  W2        977             0.0000000000
      2930       977  TIP3      H1            -22.9172384125       -5.9832599386       -9.9343416866  W2        977             0.0000000000
      2931       977  TIP3      H2            -22.0850784125       -7.2274199386      -10.1611416866  W2        977             0.0000000000
      2932       978  TIP3      OH2           -40.0208684125      -10.1378799386        2.3074083134  W2        978             0.0000000000
      2933       978  TIP3      H1            -40.5220284125      -10.1659399386        1.4923783134  W2        978             0.0000000000
      2934       978  TIP3      H2            -40.0154984125      -11.0435599386        2.6171383134  W2        978             0.0000000000
      2935       979  TIP3      OH2           -40.2705984125       -7.3574999386       -0.8085716866  W2        979             0.0000000000
      2936       979  TIP3      H1            -39.3245384125       -7.5017999386       -0.8276216866  W2        979             0.0000000000
      2937       979  TIP3      H2            -40.3829684125       -6.5732199386       -0.2714516866  W2        979             0.0000000000
      2938       980  TIP3      OH2           -22.0727484125       -6.6915299386        4.8737983134  W2        980             0.0000000000
      2939       980  TIP3      H1            -22.1220684125       -7.6467199386        4.8365583134  W2        980             0.0000000000
      2940       980  TIP3      H2            -22.8995184125       -6.4239999386        5.2751783134  W2        980             0.0000000000
      2941       981  TIP3      OH2           -31.0943484125       -7.1176099386        3.7499383134  W2        981             0.0000000000
      2942       981  TIP3      H1            -31.0068884125       -6.2911499386        4.2248483134  W2        981             0.0000000000
      2943       981  TIP3      H2            -31.9578384125       -7.4472299386        3.9988683134  W2        981             0.0000000000
      2944       982  TIP3      OH2           -30.6797684125       -3.3452399386       -6.4440016866  W2        982             0.0000000000
      2945       982  TIP3      H1            -30.7551684125       -3.4665199386       -7.3904816866  W2        982             0.0000000000
      2946       982  TIP3      H2            -30.6468984125       -2.3959699386       -6.3255416866  W2        982             0.0000000000
      2947       983  TIP3      OH2           -37.0263884125       -4.5565399386       -4.6631016866  W2        983             0.0000000000
      2948       983  TIP3      H1            -36.8743484125       -4.9044999386       -3.7844516866  W2        983             0.0000000000
      2949       983  TIP3      H2            -37.8773484125       -4.9128099386       -4.9183816866  W2        983             0.0000000000
      2950       984  TIP3      OH2           -27.5781684125       -4.1912199386       -9.4417616866  W2        984             0.0000000000
      2951       984  TIP3      H1            -27.2033284125       -4.9356099386       -9.9125016866  W2        984             0.0000000000
      2952       984  TIP3      H2            -27.5737984125       -4.4611599386       -8.5234316866  W2        984             0.0000000000
      2953       985  TIP3      OH2           -27.9093584125       -4.2655099386       -6.6925416866  W2        985             0.0000000000
      2954       985  TIP3      H1            -28.8443784125       -4.1653199386       -6.5138416866  W2        985             0.0000000000
      2955       985  TIP3      H2            -27.6291684125       -4.9749099386       -6.1142216866  W2        985             0.0000000000
      2956       986  TIP3      OH2           -24.9207684125      -15.1982799386        5.3540183134  W2        986             0.0000000000
      2957       986  TIP3      H1            -25.3280884125      -14.7177199386        4.6333483134  W2        986             0.0000000000
      2958       986  TIP3      H2            -24.8801984125      -16.1036799386        5.0460983134  W2        986             0.0000000000
      2959       987  TIP3      OH2           -37.7718184125       -8.8143399386        3.3506883134  W2        987             0.0000000000
      2960       987  TIP3      H1            -37.5556884125       -9.1757799386        4.2102683134  W2        987             0.0000000000
      2961       987  TIP3      H2            -38.6273484125       -9.1889599386        3.1410383134  W2        987             0.0000000000
      2962       988  TIP3      OH2           -35.1530184125      -20.3442899386       -0.6538916866  W2        988             0.0000000000
      2963       988  TIP3      H1            -36.0146484125      -20.4314699386       -1.0616016866  W2        988             0.0000000000
      2964       988  TIP3      H2            -35.1754484125      -19.4882799386       -0.2261316866  W2        988             0.0000000000
      2965       989  TIP3      OH2           -30.4902384125      -20.6222499386        2.7208083134  W2        989             0.0000000000
      2966       989  TIP3      H1            -30.0699284125      -21.0375399386        3.4738683134  W2        989             0.0000000000
      2967       989  TIP3      H2            -31.4232784125      -20.8009199386        2.8380083134  W2        989             0.0000000000
      2968       990  TIP3      OH2           -27.1637484125      -16.8667299386        3.5742583134  W2        990             0.0000000000
      2969       990  TIP3      H1            -27.6777984125      -16.9925099386        4.3718583134  W2        990             0.0000000000
      2970       990  TIP3      H2            -27.3192784125      -15.9544199386        3.3298783134  W2        990             0.0000000000
      2971       991  TIP3      OH2           -26.4012584125      -12.0057299386      -10.6644416866  W2        991             0.0000000000
      2972       991  TIP3      H1            -26.3591784125      -12.2283399386      -11.5944416866  W2        991             0.0000000000
      2973       991  TIP3      H2            -25.5520484125      -11.6070199386      -10.4744516866  W2        991             0.0000000000
      2974       992  TIP3      OH2           -30.8285084125      -18.1299099386       -9.9941116866  W2        992             0.0000000000
      2975       992  TIP3      H1            -31.0820284125      -18.1107499386       -9.0713016866  W2        992             0.0000000000
      2976       992  TIP3      H2            -31.0852984125      -19.0013699386      -10.2954916866  W2        992             0.0000000000
      2977       993  TIP3      OH2           -35.0620084125      -15.3788399386        0.4411283134  W2        993             0.0000000000
      2978       993  TIP3      H1            -35.7037984125      -15.4191099386        1.1501383134  W2        993             0.0000000000
      2979       993  TIP3      H2            -35.0248084125      -14.4523699386        0.2034283134  W2        993             0.0000000000
      2980       994  TIP3      OH2           -35.0650984125      -15.1578299386       -4.6468716866  W2        994             0.0000000000
      2981       994  TIP3      H1            -35.9578084125      -15.4982199386       -4.7054916866  W2        994             0.0000000000
      2982       994  TIP3      H2            -34.6144384125      -15.5347399386       -5.4025516866  W2        994             0.0000000000
      2983       995  TIP3      OH2           -29.5295484125      -14.7417999386       -5.8297916866  W2        995             0.0000000000
      2984       995  TIP3      H1            -29.9385184125      -13.9269399386       -6.1213116866  W2        995             0.0000000000
      2985       995  TIP3      H2            -28.8089284125      -14.8817899386       -6.4440816866  W2        995             0.0000000000
      2986       996  TIP3      OH2           -30.4273884125      -14.5661599386        5.6582783134  W2        996             0.0000000000
      2987       996  TIP3      H1            -30.9900084125      -15.2709999386        5.9790583134  W2        996             0.0000000000
      2988       996  TIP3      H2            -29.6010484125      -14.6869699386        6.1260383134  W2        996             0.0000000000
      2989       997  TIP3      OH2           -28.5247784125      -15.2957599386       -3.0158216866  W2        997             0.0000000000
      2990       997  TIP3      H1            -28.7203284125      -14.6900799386       -3.7307616866  W2        997             0.0000000000
      2991       997  TIP3      H2            -28.3435184125      -16.1292399386       -3.4501916866  W2        997             0.0000000000
      2992       998  TIP3      OH2           -37.3119584125      -15.0584899386        2.3083283134  W2        998             0.0000000000
      2993       998  TIP3      H1            -37.3500184125      -14.6583299386        3.1770383134  W2        998             0.0000000000
      2994       998  TIP3      H2            -37.8028484125      -15.8752499386        2.3986183134  W2        998             0.0000000000
      2995       999  TIP3      OH2           -33.9462184125      -17.6842599386      -10.8930716866  W2        999             0.0000000000
      2996       999  TIP3      H1            -34.3771484125      -18.1292499386      -10.1633316866  W2        999             0.0000000000
      2997       999  TIP3      H2            -34.6643484125      -17.3126299386      -11.4053216866  W2        999             0.0000000000
      2998      1000  TIP3      OH2           -40.7038784125      -17.9423099386       -3.8412016866  W2        1000            0.0000000000
      2999      1000  TIP3      H1            -40.0731084125      -17.9710999386       -3.1218116866  W2        1000            0.0000000000
      3000      1000  TIP3      H2            -40.2544484125      -18.3674399386       -4.5716116866  W2        1000            0.0000000000
      3001      1001  TIP3      OH2           -39.4296684125      -17.1961099386       -8.4171616866  W2        1001            0.0000000000
      3002      1001  TIP3      H1            -38.9554984125      -16.6051199386       -9.0020716866  W2        1001            0.0000000000
      3003      1001  TIP3      H2            -40.1470284125      -16.6658199386       -8.0701516866  W2        1001            0.0000000000
      3004      1002  TIP3      OH2           -29.2608584125      -13.6576299386        1.6554183134  W2        1002            0.0000000000
      3005      1002  TIP3      H1            -28.9373784125      -14.2886599386        1.0124683134  W2        1002            0.0000000000
      3006      1002  TIP3      H2            -29.7009284125      -14.1924099386        2.3161583134  W2        1002            0.0000000000
      3007      1003  TIP3      OH2           -32.4835684125      -17.7300799386       -3.5604616866  W2        1003            0.0000000000
      3008      1003  TIP3      H1            -33.3944584125      -17.6733999386       -3.2718616866  W2        1003            0.0000000000
      3009      1003  TIP3      H2            -31.9782784125      -17.7905299386       -2.7497416866  W2        1003            0.0000000000
      3010      1004  TIP3      OH2           -37.6552284125      -16.1014499386       -4.7337016866  W2        1004            0.0000000000
      3011      1004  TIP3      H1            -38.5444284125      -16.0018999386       -5.0737416866  W2        1004            0.0000000000
      3012      1004  TIP3      H2            -37.3587384125      -16.9431499386       -5.0799116866  W2        1004            0.0000000000
      3013      1005  TIP3      OH2           -34.0020484125      -16.1011899386       -7.0772416866  W2        1005            0.0000000000
      3014      1005  TIP3      H1            -33.0704984125      -15.9721899386       -6.8989316866  W2        1005            0.0000000000
      3015      1005  TIP3      H2            -34.2170184125      -15.4317599386       -7.7267716866  W2        1005            0.0000000000
      3016      1006  TIP3      OH2           -28.0783784125      -18.4954499386       -0.2962816866  W2        1006            0.0000000000
      3017      1006  TIP3      H1            -28.7552184125      -18.3641399386        0.3676883134  W2        1006            0.0000000000
      3018      1006  TIP3      H2            -28.5638884125      -18.6504999386       -1.1065116866  W2        1006            0.0000000000
      3019      1007  TIP3      OH2           -35.3280284125      -14.9069699386       -9.5106316866  W2        1007            0.0000000000
      3020      1007  TIP3      H1            -35.8705184125      -15.2865899386      -10.2018716866  W2        1007            0.0000000000
      3021      1007  TIP3      H2            -34.4945384125      -14.7124999386       -9.9392216866  W2        1007            0.0000000000
      3022      1008  TIP3      OH2           -24.7908684125       -2.8239099386        5.9804783134  W2        1008            0.0000000000
      3023      1008  TIP3      H1            -24.5909984125       -2.3997199386        5.1460083134  W2        1008            0.0000000000
      3024      1008  TIP3      H2            -24.1354984125       -2.4800899386        6.5875183134  W2        1008            0.0000000000
      3025      1009  TIP3      OH2           -37.1928884125      -10.3497799386        5.5885283134  W2        1009            0.0000000000
      3026      1009  TIP3      H1            -36.4606484125      -10.0951899386        6.1499783134  W2        1009            0.0000000000
      3027      1009  TIP3      H2            -37.9730184125      -10.1452399386        6.1040683134  W2        1009            0.0000000000
      3028      1010  TIP3      OH2           -31.1635984125      -14.9427799386       -1.6735016866  W2        1010            0.0000000000
      3029      1010  TIP3      H1            -30.5992584125      -15.4891199386       -2.2205416866  W2        1010            0.0000000000
      3030      1010  TIP3      H2            -31.3112584125      -15.4645899386       -0.8847416866  W2        1010            0.0000000000
      3031      1011  TIP3      OH2           -36.1616284125      -18.8061699386       -5.2550216866  W2        1011            0.0000000000
      3032      1011  TIP3      H1            -36.4786784125      -19.7086399386       -5.2904816866  W2        1011            0.0000000000
      3033      1011  TIP3      H2            -35.3802184125      -18.8044299386       -5.8078616866  W2        1011            0.0000000000
      3034      1012  TIP3      OH2           -32.5370084125      -16.5541699386        0.7405383134  W2        1012            0.0000000000
      3035      1012  TIP3      H1            -33.3724784125      -16.1002199386        0.8507783134  W2        1012            0.0000000000
      3036      1012  TIP3      H2            -32.0129484125      -16.2783199386        1.4925283134  W2        1012            0.0000000000
      3037      1013  TIP3      OH2           -31.9927484125      -10.3413999386       -7.5748216866  W2        1013            0.0000000000
      3038      1013  TIP3      H1            -32.7376484125      -10.8488699386       -7.8970316866  W2        1013            0.0000000000
      3039      1013  TIP3      H2            -32.1270284125      -10.2925999386       -6.6283416866  W2        1013            0.0000000000
      3040      1014  TIP3      OH2           -24.8428584125      -11.2085799386        1.2119383134  W2        1014            0.0000000000
      3041      1014  TIP3      H1            -24.2009784125      -10.7519499386        0.6681583134  W2        1014            0.0000000000
      3042      1014  TIP3      H2            -25.6731684125      -11.0953399386        0.7493483134  W2        1014            0.0000000000
      3043      1015  TIP3      OH2           -28.0950684125      -17.5274099386       -9.3755616866  W2        1015            0.0000000000
      3044      1015  TIP3      H1            -29.0336484125      -17.4158499386       -9.5266816866  W2        1015            0.0000000000
      3045      1015  TIP3      H2            -27.7978584125      -16.6707199386       -9.0689916866  W2        1015            0.0000000000
      3046      1016  TIP3      OH2           -30.4735384125      -10.1570699386        3.6620883134  W2        1016            0.0000000000
      3047      1016  TIP3      H1            -30.8189284125      -10.5388299386        4.4690483134  W2        1016            0.0000000000
      3048      1016  TIP3      H2            -30.6735284125       -9.2237099386        3.7333783134  W2        1016            0.0000000000
      3049      1017  TIP3      OH2           -27.3767184125      -15.6601399386       -7.7148216866  W2        1017            0.0000000000
      3050      1017  TIP3      H1            -26.4848184125      -15.7976399386       -7.3957016866  W2        1017            0.0000000000
      3051      1017  TIP3      H2            -27.3203584125      -14.8695299386       -8.2514716866  W2        1017            0.0000000000
      3052      1018  TIP3      OH2           -36.8679184125      -11.0463999386       -1.8050316866  W2        1018            0.0000000000
      3053      1018  TIP3      H1            -36.1231984125      -11.0488299386       -2.4063816866  W2        1018            0.0000000000
      3054      1018  TIP3      H2            -36.7902584125      -11.8700199386       -1.3235216866  W2        1018            0.0000000000
      3055      1019  TIP3      OH2           -29.8673384125       -8.8829699386       -8.5493616866  W2        1019            0.0000000000
      3056      1019  TIP3      H1            -30.1624984125       -8.0561799386       -8.1678816866  W2        1019            0.0000000000
      3057      1019  TIP3      H2            -30.5703384125       -9.5022799386       -8.3532216866  W2        1019            0.0000000000
      3058      1020  TIP3      OH2           -39.8599484125      -12.5857099386        3.5098183134  W2        1020            0.0000000000
      3059      1020  TIP3      H1            -39.6370884125      -13.0037499386        4.3415683134  W2        1020            0.0000000000
      3060      1020  TIP3      H2            -40.4619384125      -13.1982099386        3.0870983134  W2        1020            0.0000000000
      3061      1021  TIP3      OH2           -32.8434584125      -13.0687199386        5.7227883134  W2        1021            0.0000000000
      3062      1021  TIP3      H1            -33.1393784125      -13.2344199386        4.8276983134  W2        1021            0.0000000000
      3063      1021  TIP3      H2            -31.9119384125      -13.2886899386        5.7121783134  W2        1021            0.0000000000
      3064      1022  TIP3      OH2           -28.2231784125       -7.6955199386        3.6125883134  W2        1022            0.0000000000
      3065      1022  TIP3      H1            -29.1237484125       -7.5122599386        3.3449783134  W2        1022            0.0000000000
      3066      1022  TIP3      H2            -28.1890684125       -7.4365899386        4.5334683134  W2        1022            0.0000000000
      3067      1023  TIP3      OH2           -22.4918484125      -15.4507299386       -8.0201516866  W2        1023            0.0000000000
      3068      1023  TIP3      H1            -23.0462184125      -15.8469299386       -8.6924016866  W2        1023            0.0000000000
      3069      1023  TIP3      H2            -22.3914884125      -14.5402099386       -8.2978216866  W2        1023            0.0000000000
      3070      1024  TIP3      OH2           -22.5286484125       -9.6505599386        4.8169983134  W2        1024            0.0000000000
      3071      1024  TIP3      H1            -23.3797984125       -9.4121799386        4.4496383134  W2        1024            0.0000000000
      3072      1024  TIP3      H2            -21.9383084125       -9.6672399386        4.0637083134  W2        1024            0.0000000000
      3073      1025  TIP3      OH2           -24.1966784125       -6.6646899386       -7.5549416866  W2        1025            0.0000000000
      3074      1025  TIP3      H1            -24.5695684125       -7.4903099386       -7.2458816866  W2        1025            0.0000000000
      3075      1025  TIP3      H2            -23.9193284125       -6.8477499386       -8.4526016866  W2        1025            0.0000000000
      3076      1026  TIP3      OH2           -27.0362884125      -11.8567399386       -0.5337516866  W2        1026            0.0000000000
      3077      1026  TIP3      H1            -27.9645984125      -12.0885499386       -0.5608216866  W2        1026            0.0000000000
      3078      1026  TIP3      H2            -26.5851784125      -12.6337599386       -0.8638716866  W2        1026            0.0000000000
      3079      1027  TIP3      OH2           -34.4929784125       -7.5285799386       -4.4008816866  W2        1027            0.0000000000
      3080      1027  TIP3      H1            -33.9657584125       -6.7551399386       -4.6010016866  W2        1027            0.0000000000
      3081      1027  TIP3      H2            -35.3731284125       -7.3036599386       -4.7024816866  W2        1027            0.0000000000
      3082      1028  TIP3      OH2           -38.7382084125      -12.6661699386       -9.8136416866  W2        1028            0.0000000000
      3083      1028  TIP3      H1            -38.1222184125      -12.0394499386       -9.4341616866  W2        1028            0.0000000000
      3084      1028  TIP3      H2            -39.5999484125      -12.3501899386       -9.5419916866  W2        1028            0.0000000000
      3085      1029  TIP3      OH2           -33.0657484125       -9.8655899386       -4.8244516866  W2        1029            0.0000000000
      3086      1029  TIP3      H1            -33.3067484125       -8.9401499386       -4.7829216866  W2        1029            0.0000000000
      3087      1029  TIP3      H2            -33.8063884125      -10.3244599386       -4.4280616866  W2        1029            0.0000000000
      3088      1030  TIP3      OH2           -32.5510884125       -5.7162299386        1.4906583134  W2        1030            0.0000000000
      3089      1030  TIP3      H1            -32.1886184125       -4.8616699386        1.2570983134  W2        1030            0.0000000000
      3090      1030  TIP3      H2            -32.0195684125       -6.0080699386        2.2312883134  W2        1030            0.0000000000
      3091      1031  TIP3      OH2           -34.3826684125       -4.8438299386       -5.2792316866  W2        1031            0.0000000000
      3092      1031  TIP3      H1            -35.3326184125       -4.7380899386       -5.2279016866  W2        1031            0.0000000000
      3093      1031  TIP3      H2            -34.0308584125       -4.0230899386       -4.9344816866  W2        1031            0.0000000000
      3094      1032  TIP3      OH2           -29.0070084125       -9.6171599386        1.1912183134  W2        1032            0.0000000000
      3095      1032  TIP3      H1            -29.4328784125       -9.8449899386        2.0176183134  W2        1032            0.0000000000
      3096      1032  TIP3      H2            -28.4264284125      -10.3559799386        1.0087483134  W2        1032            0.0000000000
      3097      1033  TIP3      OH2           -26.8041184125       -8.6881099386       -9.7348816866  W2        1033            0.0000000000
      3098      1033  TIP3      H1            -26.4508084125       -9.0681299386       -8.9305316866  W2        1033            0.0000000000
      3099      1033  TIP3      H2            -27.7527684125       -8.7816299386       -9.6479516866  W2        1033            0.0000000000
      3100      1034  TIP3      OH2           -26.3485884125       -5.0652099386        3.6606983134  W2        1034            0.0000000000
      3101      1034  TIP3      H1            -26.9502684125       -5.6209199386        3.1653283134  W2        1034            0.0000000000
      3102      1034  TIP3      H2            -26.0672184125       -4.3982299386        3.0344383134  W2        1034            0.0000000000
      3103      1035  TIP3      OH2           -22.3006784125       -4.2088599386       -9.5338616866  W2        1035            0.0000000000
      3104      1035  TIP3      H1            -21.5568884125       -3.6228099386       -9.6737016866  W2        1035            0.0000000000
      3105      1035  TIP3      H2            -22.9948684125       -3.6402799386       -9.2006216866  W2        1035            0.0000000000
      3106      1036  TIP3      OH2           -38.2259984125      -17.8324399386        3.0679583134  W2        1036            0.0000000000
      3107      1036  TIP3      H1            -39.1187684125      -17.4938999386        3.0003583134  W2        1036            0.0000000000
      3108      1036  TIP3      H2            -38.3247184125      -18.6878299386        3.4860383134  W2        1036            0.0000000000
      3109      1037  TIP3      OH2           -25.9381884125      -10.0159099386       -7.5080916866  W2        1037            0.0000000000
      3110      1037  TIP3      H1            -26.2154284125      -10.7439799386       -6.9519816866  W2        1037            0.0000000000
      3111      1037  TIP3      H2            -25.0108884125       -9.8967099386       -7.3028316866  W2        1037            0.0000000000
      3112      1038  TIP3      OH2           -38.5747984125       -6.0279999386        1.5028983134  W2        1038            0.0000000000
      3113      1038  TIP3      H1            -38.3577684125       -6.9597599386        1.4718683134  W2        1038            0.0000000000
      3114      1038  TIP3      H2            -38.3284484125       -5.7534999386        2.3861783134  W2        1038            0.0000000000
      3115      1039  TIP3      OH2           -32.7133384125       -7.5764999386      -11.2878816866  W2        1039            0.0000000000
      3116      1039  TIP3      H1            -32.4743584125       -8.3246899386      -11.8349916866  W2        1039            0.0000000000
      3117      1039  TIP3      H2            -32.9822084125       -7.9643299386      -10.4551016866  W2        1039            0.0000000000
      3118      1040  TIP3      OH2           -33.7762784125       -8.0061199386       -8.8316216866  W2        1040            0.0000000000
      3119      1040  TIP3      H1            -33.6294784125       -8.5261399386       -8.0415316866  W2        1040            0.0000000000
      3120      1040  TIP3      H2            -33.7791084125       -7.0993599386       -8.5250316866  W2        1040            0.0000000000
      3121      1041  TIP3      OH2           -37.3231684125      -10.7537899386       -8.3210816866  W2        1041            0.0000000000
      3122      1041  TIP3      H1            -38.0092384125      -10.4015399386       -7.7541116866  W2        1041            0.0000000000
      3123      1041  TIP3      H2            -36.8003784125       -9.9908299386       -8.5676516866  W2        1041            0.0000000000
      3124      1042  TIP3      OH2           -29.4916584125      -18.0914099386        1.9578183134  W2        1042            0.0000000000
      3125      1042  TIP3      H1            -28.7928684125      -18.0175399386        2.6077883134  W2        1042            0.0000000000
      3126      1042  TIP3      H2            -29.8725184125      -18.9559099386        2.1121083134  W2        1042            0.0000000000
      3127      1043  TIP3      OH2           -28.7071684125      -18.4392399386       -6.9449516866  W2        1043            0.0000000000
      3128      1043  TIP3      H1            -28.4873384125      -17.9676999386       -7.7484116866  W2        1043            0.0000000000
      3129      1043  TIP3      H2            -28.1487684125      -18.0449799386       -6.2748916866  W2        1043            0.0000000000
      3130      1044  TIP3      OH2           -31.0385584125       -6.3087599386       -8.0822016866  W2        1044            0.0000000000
      3131      1044  TIP3      H1            -31.8549484125       -5.8117899386       -8.0297716866  W2        1044            0.0000000000
      3132      1044  TIP3      H2            -30.5089284125       -5.8334099386       -8.7223216866  W2        1044            0.0000000000
      3133      1045  TIP3      OH2           -31.5071784125      -16.7113599386       -6.1101116866  W2        1045            0.0000000000
      3134      1045  TIP3      H1            -30.6949184125      -16.2070399386       -6.0639416866  W2        1045            0.0000000000
      3135      1045  TIP3      H2            -31.7518784125      -16.8563899386       -5.1961516866  W2        1045            0.0000000000
      3136      1046  TIP3      OH2           -30.9715384125      -15.7250899386        3.0745483134  W2        1046            0.0000000000
      3137      1046  TIP3      H1            -30.8525084125      -15.1515499386        3.8315883134  W2        1046            0.0000000000
      3138      1046  TIP3      H2            -30.3160784125      -16.4131499386        3.1893283134  W2        1046            0.0000000000
      3139      1047  TIP3      OH2           -30.6235084125      -19.6300599386       -5.1720016866  W2        1047            0.0000000000
      3140      1047  TIP3      H1            -30.9701584125      -19.0129999386       -4.5275716866  W2        1047            0.0000000000
      3141      1047  TIP3      H2            -29.9648184125      -19.1294899386       -5.6534516866  W2        1047            0.0000000000
      3142      1048  TIP3      OH2           -33.7002484125       -5.2650399386       -8.1005116866  W2        1048            0.0000000000
      3143      1048  TIP3      H1            -33.5393784125       -4.4652899386       -8.6012516866  W2        1048            0.0000000000
      3144      1048  TIP3      H2            -33.8974684125       -4.9584399386       -7.2154516866  W2        1048            0.0000000000
      3145      1049  TIP3      OH2           -34.9658084125      -18.5671199386       -8.4847516866  W2        1049            0.0000000000
      3146      1049  TIP3      H1            -35.0493284125      -17.6788099386       -8.1381116866  W2        1049            0.0000000000
      3147      1049  TIP3      H2            -34.0757784125      -18.8324499386       -8.2530716866  W2        1049            0.0000000000
      3148      1050  TIP3      OH2           -24.7669584125      -17.8180599386        3.9095183134  W2        1050            0.0000000000
      3149      1050  TIP3      H1            -25.6833784125      -17.5558899386        3.8218883134  W2        1050            0.0000000000
      3150      1050  TIP3      H2            -24.4314584125      -17.8211599386        3.0130483134  W2        1050            0.0000000000
      3151      1051  TIP3      OH2           -26.1648584125      -14.0679599386       -1.9947516866  W2        1051            0.0000000000
      3152      1051  TIP3      H1            -26.9624184125      -14.4829399386       -2.3232516866  W2        1051            0.0000000000
      3153      1051  TIP3      H2            -25.7197484125      -14.7585899386       -1.5037016866  W2        1051            0.0000000000
      3154      1052  TIP3      OH2           -36.7072784125       -8.1398999386       -9.4243016866  W2        1052            0.0000000000
      3155      1052  TIP3      H1            -36.1151284125       -7.4404199386       -9.1480616866  W2        1052            0.0000000000
      3156      1052  TIP3      H2            -36.2479784125       -8.5729499386      -10.1438416866  W2        1052            0.0000000000
      3157      1053  TIP3      OH2           -38.3913584125      -15.4755999386      -10.3083616866  W2        1053            0.0000000000
      3158      1053  TIP3      H1            -38.4360984125      -14.5362899386      -10.1296616866  W2        1053            0.0000000000
      3159      1053  TIP3      H2            -39.2790384125      -15.7111099386      -10.5781516866  W2        1053            0.0000000000
      3160      1054  TIP3      OH2           -25.0783984125       -4.8117099386       -0.3724016866  W2        1054            0.0000000000
      3161      1054  TIP3      H1            -25.2339684125       -4.1332699386       -1.0294716866  W2        1054            0.0000000000
      3162      1054  TIP3      H2            -24.1457584125       -4.7397799386       -0.1693416866  W2        1054            0.0000000000
      3163      1055  TIP3      OH2           -37.5831584125      -20.6939399386       -1.6352616866  W2        1055            0.0000000000
      3164      1055  TIP3      H1            -37.8121784125      -20.6346899386       -2.5627616866  W2        1055            0.0000000000
      3165      1055  TIP3      H2            -38.0258184125      -21.4853899386       -1.3288516866  W2        1055            0.0000000000
      3166      1056  TIP3      OH2           -38.6528284125       -6.7532299386       -5.4746816866  W2        1056            0.0000000000
      3167      1056  TIP3      H1            -39.4849684125       -6.2809599386       -5.4475416866  W2        1056            0.0000000000
      3168      1056  TIP3      H2            -38.1069984125       -6.2434699386       -6.0733716866  W2        1056            0.0000000000
      3169      1057  TIP3      OH2           -39.3644584125       -4.1408599386        5.8551183134  W2        1057            0.0000000000
      3170      1057  TIP3      H1            -38.8242384125       -4.3574599386        6.6150383134  W2        1057            0.0000000000
      3171      1057  TIP3      H2            -39.8456584125       -4.9462599386        5.6653683134  W2        1057            0.0000000000
      3172      1058  TIP3      OH2           -34.7671184125       -5.2214199386        7.4755383134  W2        1058            0.0000000000
      3173      1058  TIP3      H1            -33.9993984125       -5.6803399386        7.8164583134  W2        1058            0.0000000000
      3174      1058  TIP3      H2            -34.7884984125       -5.4474399386        6.5456583134  W2        1058            0.0000000000
      3175      1059  TIP3      OH2           -30.6751584125       -5.7133599386      -11.1492816866  W2        1059            0.0000000000
      3176      1059  TIP3      H1            -31.3190584125       -6.3444999386      -10.8279116866  W2        1059            0.0000000000
      3177      1059  TIP3      H2            -29.9133284125       -6.2445599386      -11.3809316866  W2        1059            0.0000000000
      3178      1060  TIP3      OH2           -28.1902484125       -6.8413099386        6.2046883134  W2        1060            0.0000000000
      3179      1060  TIP3      H1            -28.5412984125       -7.6980099386        6.4477283134  W2        1060            0.0000000000
      3180      1060  TIP3      H2            -27.4639284125       -6.6986399386        6.8115883134  W2        1060            0.0000000000
      3181      1061  TIP3      OH2           -26.0708684125       -5.8963699386      -10.9154816866  W2        1061            0.0000000000
      3182      1061  TIP3      H1            -25.7878284125       -6.6908499386      -10.4627916866  W2        1061            0.0000000000
      3183      1061  TIP3      H2            -25.3310784125       -5.6632699386      -11.4763716866  W2        1061            0.0000000000
      3184      1062  TIP3      OH2           -39.4575084125      -10.3304499386        6.8095483134  W2        1062            0.0000000000
      3185      1062  TIP3      H1            -39.3134584125      -11.2323799386        6.5232183134  W2        1062            0.0000000000
      3186      1062  TIP3      H2            -40.2297684125      -10.0442399386        6.3217783134  W2        1062            0.0000000000
      3187      1063  TIP3      OH2           -35.1161384125       -9.9868799386      -11.0579916866  W2        1063            0.0000000000
      3188      1063  TIP3      H1            -35.0517284125      -10.7809199386      -10.5273516866  W2        1063            0.0000000000
      3189      1063  TIP3      H2            -34.4632184125      -10.1055999386      -11.7477916866  W2        1063            0.0000000000
      3190      1064  TIP3      OH2           -32.8018984125      -10.3606399386        6.2421883134  W2        1064            0.0000000000
      3191      1064  TIP3      H1            -33.1305184125      -10.0898299386        5.3849283134  W2        1064            0.0000000000
      3192      1064  TIP3      H2            -32.6500784125      -11.3016599386        6.1546883134  W2        1064            0.0000000000
      3193      1065  TIP3      OH2           -29.7637984125       -8.9397099386      -11.3221916866  W2        1065            0.0000000000
      3194      1065  TIP3      H1            -30.0323884125       -8.7594999386      -10.4213016866  W2        1065            0.0000000000
      3195      1065  TIP3      H2            -29.9702384125       -9.8650899386      -11.4536116866  W2        1065            0.0000000000
      3196      1066  TIP3      OH2           -27.0673784125      -10.4449099386        3.6254183134  W2        1066            0.0000000000
      3197      1066  TIP3      H1            -26.3218984125       -9.8565399386        3.5058183134  W2        1066            0.0000000000
      3198      1066  TIP3      H2            -27.8246984125       -9.8629399386        3.6887283134  W2        1066            0.0000000000
      3199      1067  TIP3      OH2           -38.6248584125      -13.1301199386        6.2294783134  W2        1067            0.0000000000
      3200      1067  TIP3      H1            -38.2167384125      -13.9874599386        6.1085383134  W2        1067            0.0000000000
      3201      1067  TIP3      H2            -38.8850984125      -13.1159899386        7.1505083134  W2        1067            0.0000000000
      3202      1068  TIP3      OH2           -33.9667584125      -12.0142599386       -8.7521916866  W2        1068            0.0000000000
      3203      1068  TIP3      H1            -34.4265584125      -12.4984299386       -8.0663416866  W2        1068            0.0000000000
      3204      1068  TIP3      H2            -33.7118884125      -12.6827199386       -9.3881416866  W2        1068            0.0000000000
      3205      1069  TIP3      OH2           -34.6778284125      -14.1215499386        3.6037683134  W2        1069            0.0000000000
      3206      1069  TIP3      H1            -35.2962184125      -13.4468899386        3.8842383134  W2        1069            0.0000000000
      3207      1069  TIP3      H2            -34.3337084125      -13.8001599386        2.7703883134  W2        1069            0.0000000000
      3208      1070  TIP3      OH2           -32.8957184125      -13.7710799386      -10.4898716866  W2        1070            0.0000000000
      3209      1070  TIP3      H1            -33.0762184125      -13.9259599386      -11.4170416866  W2        1070            0.0000000000
      3210      1070  TIP3      H2            -31.9456684125      -13.6632099386      -10.4450816866  W2        1070            0.0000000000
      3211      1071  TIP3      OH2           -29.6580084125      -11.6500199386        6.8812483134  W2        1071            0.0000000000
      3212      1071  TIP3      H1            -28.7048884125      -11.5661099386        6.8538483134  W2        1071            0.0000000000
      3213      1071  TIP3      H2            -29.8185484125      -12.3618399386        7.5007383134  W2        1071            0.0000000000
      3214      1072  TIP3      OH2           -23.5058884125      -11.4166599386      -11.0440616866  W2        1072            0.0000000000
      3215      1072  TIP3      H1            -23.7794084125      -11.8411099386      -11.8572316866  W2        1072            0.0000000000
      3216      1072  TIP3      H2            -23.4664784125      -10.4852099386      -11.2610216866  W2        1072            0.0000000000
      3217      1073  TIP3      OH2           -34.3384584125      -16.7664699386        4.6860783134  W2        1073            0.0000000000
      3218      1073  TIP3      H1            -34.1883684125      -17.4953399386        4.0840483134  W2        1073            0.0000000000
      3219      1073  TIP3      H2            -34.3362184125      -15.9892999386        4.1272983134  W2        1073            0.0000000000
      3220      1074  TIP3      OH2           -33.9258884125      -18.3968899386        2.1788183134  W2        1074            0.0000000000
      3221      1074  TIP3      H1            -33.3901384125      -17.9452199386        1.5267483134  W2        1074            0.0000000000
      3222      1074  TIP3      H2            -34.7779284125      -18.5049099386        1.7562283134  W2        1074            0.0000000000
      3223      1075  TIP3      OH2           -32.3440484125      -12.9572699386        2.4183383134  W2        1075            0.0000000000
      3224      1075  TIP3      H1            -31.5935684125      -13.1135199386        1.8451183134  W2        1075            0.0000000000
      3225      1075  TIP3      H2            -32.6832184125      -12.1056099386        2.1428883134  W2        1075            0.0000000000
      3226      1076  TIP3      OH2           -27.9284284125      -15.1420899386        7.4468683134  W2        1076            0.0000000000
      3227      1076  TIP3      H1            -27.7362984125      -16.0731499386        7.3353183134  W2        1076            0.0000000000
      3228      1076  TIP3      H2            -27.0707984125      -14.7171399386        7.4364083134  W2        1076            0.0000000000
      3229      1077  TIP3      OH2           -26.6117084125      -12.3535699386        5.5241383134  W2        1077            0.0000000000
      3230      1077  TIP3      H1            -26.8932084125      -11.6441099386        4.9465183134  W2        1077            0.0000000000
      3231      1077  TIP3      H2            -25.6692784125      -12.4262699386        5.3732583134  W2        1077            0.0000000000
      3232      1078  TIP3      OH2           -35.8598284125      -15.5681199386        6.5976383134  W2        1078            0.0000000000
      3233      1078  TIP3      H1            -36.6269284125      -16.1006399386        6.3873983134  W2        1078            0.0000000000
      3234      1078  TIP3      H2            -35.1809284125      -15.8780799386        5.9982683134  W2        1078            0.0000000000
      3235      1079  TIP3      OH2           -33.1203384125      -20.9403199386        2.6101783134  W2        1079            0.0000000000
      3236      1079  TIP3      H1            -33.2183784125      -19.9939999386        2.5047983134  W2        1079            0.0000000000
      3237      1079  TIP3      H2            -33.8627184125      -21.3129399386        2.1345283134  W2        1079            0.0000000000
      3238      1080  TIP3      OH2           -31.8562884125      -16.6187799386        6.1740183134  W2        1080            0.0000000000
      3239      1080  TIP3      H1            -32.0917484125      -16.8381099386        7.0755083134  W2        1080            0.0000000000
      3240      1080  TIP3      H2            -32.6395984125      -16.8256599386        5.6642683134  W2        1080            0.0000000000
      3241      1081  TIP3      OH2           -29.1406284125      -17.4914299386        5.2493683134  W2        1081            0.0000000000
      3242      1081  TIP3      H1            -30.0880884125      -17.4594599386        5.3816983134  W2        1081            0.0000000000
      3243      1081  TIP3      H2            -28.8279584125      -18.1167199386        5.9031883134  W2        1081            0.0000000000
      3244      1082  TIP3      OH2           -27.5064784125      -18.8573199386        7.2545583134  W2        1082            0.0000000000
      3245      1082  TIP3      H1            -27.6032984125      -19.8095899386        7.2487483134  W2        1082            0.0000000000
      3246      1082  TIP3      H2            -27.8281684125      -18.5886399386        8.1151083134  W2        1082            0.0000000000
      3247      1083  TIP3      OH2           -37.6795484125      -17.6477399386        6.3021083134  W2        1083            0.0000000000
      3248      1083  TIP3      H1            -37.4678084125      -18.3541299386        5.6918583134  W2        1083            0.0000000000
      3249      1083  TIP3      H2            -37.7907984125      -18.0851399386        7.1462283134  W2        1083            0.0000000000
      3250      1084  TIP3      OH2           -32.8985284125      -21.6465799386        5.2814583134  W2        1084            0.0000000000
      3251      1084  TIP3      H1            -32.1866884125      -22.2863599386        5.2673683134  W2        1084            0.0000000000
      3252      1084  TIP3      H2            -32.9994884125      -21.3797499386        4.3677683134  W2        1084            0.0000000000
      3253      1085  TIP3      OH2           -32.5447784125      -19.9637399386        7.3350883134  W2        1085            0.0000000000
      3254      1085  TIP3      H1            -32.6765584125      -20.4393599386        6.5149383134  W2        1085            0.0000000000
      3255      1085  TIP3      H2            -33.1440384125      -19.2193799386        7.2797983134  W2        1085            0.0000000000
      3256      1086  TIP3      OH2           -32.9985484125       -3.0807099386       -9.4885116866  W2        1086            0.0000000000
      3257      1086  TIP3      H1            -32.0654784125       -2.9228399386       -9.3446716866  W2        1086            0.0000000000
      3258      1086  TIP3      H2            -33.2626684125       -2.4054099386      -10.1133616866  W2        1086            0.0000000000
      3259      1087  TIP3      OH2           -39.4300584125       -8.4443299386      -10.0057016866  W2        1087            0.0000000000
      3260      1087  TIP3      H1            -38.5161384125       -8.3654399386       -9.7323116866  W2        1087            0.0000000000
      3261      1087  TIP3      H2            -39.4227484125       -9.1313699386      -10.6721416866  W2        1087            0.0000000000
      3262      1088  TIP3      OH2           -40.7809984125       -3.0514799386       -4.9283116866  W2        1088            0.0000000000
      3263      1088  TIP3      H1            -41.4282884125       -3.5133099386       -5.4611916866  W2        1088            0.0000000000
      3264      1088  TIP3      H2            -40.4265384125       -3.7231499386       -4.3456916866  W2        1088            0.0000000000
      3265      1089  TIP3      OH2           -39.9110784125       -4.9707799386       -3.1236916866  W2        1089            0.0000000000
      3266      1089  TIP3      H1            -40.2453984125       -5.8510499386       -2.9516716866  W2        1089            0.0000000000
      3267      1089  TIP3      H2            -39.6888384125       -4.6252799386       -2.2591316866  W2        1089            0.0000000000
      3268      1090  TIP3      OH2           -22.3625984125       -4.1611399386       -0.1432116866  W2        1090            0.0000000000
      3269      1090  TIP3      H1            -22.3839284125       -3.9762999386        0.7957283134  W2        1090            0.0000000000
      3270      1090  TIP3      H2            -21.6719784125       -3.5927399386       -0.4840716866  W2        1090            0.0000000000
      3271      1091  TIP3      OH2           -22.7993084125       -4.5940299386        2.7786983134  W2        1091            0.0000000000
      3272      1091  TIP3      H1            -23.2864384125       -5.3296199386        2.4074383134  W2        1091            0.0000000000
      3273      1091  TIP3      H2            -22.2500384125       -4.9876399386        3.4566383134  W2        1091            0.0000000000
      3274      1092  TIP3      OH2           -24.3485784125       -8.8042199386        7.4167283134  W2        1092            0.0000000000
      3275      1092  TIP3      H1            -25.2144684125       -8.9092499386        7.8109583134  W2        1092            0.0000000000
      3276      1092  TIP3      H2            -23.9719884125       -8.0458899386        7.8631983134  W2        1092            0.0000000000
      3277      1093  TIP3      OH2           -23.0476084125      -10.5478499386       -7.0690216866  W2        1093            0.0000000000
      3278      1093  TIP3      H1            -22.1974684125      -10.1267599386       -6.9418616866  W2        1093            0.0000000000
      3279      1093  TIP3      H2            -23.0420984125      -11.2878399386       -6.4618816866  W2        1093            0.0000000000
      3280      1094  TIP3      OH2           -22.6530484125      -12.4941099386       -5.2454516866  W2        1094            0.0000000000
      3281      1094  TIP3      H1            -23.3795884125      -12.9738499386       -4.8476916866  W2        1094            0.0000000000
      3282      1094  TIP3      H2            -22.0717184125      -12.2886399386       -4.5132916866  W2        1094            0.0000000000
      3283      1095  TIP3      OH2           -22.8939284125       -9.7093599386       -0.2976916866  W2        1095            0.0000000000
      3284      1095  TIP3      H1            -22.0605084125      -10.0873599386       -0.5783316866  W2        1095            0.0000000000
      3285      1095  TIP3      H2            -22.7818984125       -8.7662399386       -0.4167816866  W2        1095            0.0000000000
      3286      1096  TIP3      OH2           -24.4076984125       -6.8316099386        2.0091483134  W2        1096            0.0000000000
      3287      1096  TIP3      H1            -25.0551684125       -6.5064599386        2.6346683134  W2        1096            0.0000000000
      3288      1096  TIP3      H2            -24.9252984125       -7.2718399386        1.3349783134  W2        1096            0.0000000000
      3289      1097  TIP3      OH2           -22.3847384125      -12.5932599386       -8.8543216866  W2        1097            0.0000000000
      3290      1097  TIP3      H1            -22.9066284125      -12.2368499386       -9.5732316866  W2        1097            0.0000000000
      3291      1097  TIP3      H2            -22.4178184125      -11.9184799386       -8.1762316866  W2        1097            0.0000000000
      3292      1098  TIP3      OH2           -24.0358384125      -15.3536999386      -10.3036116866  W2        1098            0.0000000000
      3293      1098  TIP3      H1            -23.9393984125      -14.6869999386      -10.9836416866  W2        1098            0.0000000000
      3294      1098  TIP3      H2            -24.1758784125      -16.1690699386      -10.7850616866  W2        1098            0.0000000000
      3295      1099  TIP3      OH2           -24.8663684125      -13.9734599386       -4.6825816866  W2        1099            0.0000000000
      3296      1099  TIP3      H1            -25.0164884125      -14.9185999386       -4.7028016866  W2        1099            0.0000000000
      3297      1099  TIP3      H2            -25.2199184125      -13.6923199386       -3.8386716866  W2        1099            0.0000000000
      3298      1100  TIP3      OH2           -39.8311284125      -11.8952399386       -0.6722016866  W2        1100            0.0000000000
      3299      1100  TIP3      H1            -39.6468384125      -11.9770699386       -1.6079116866  W2        1100            0.0000000000
      3300      1100  TIP3      H2            -38.9818384125      -12.0195399386       -0.2485616866  W2        1100            0.0000000000
      3301      1101  TIP3      OH2           -24.0100784125      -12.0031299386        4.9562483134  W2        1101            0.0000000000
      3302      1101  TIP3      H1            -23.4273484125      -12.7378999386        5.1479683134  W2        1101            0.0000000000
      3303      1101  TIP3      H2            -23.4461484125      -11.2310999386        5.0028283134  W2        1101            0.0000000000
      3304      1102  TIP3      OH2           -22.5133684125      -14.1005499386        5.6407883134  W2        1102            0.0000000000
      3305      1102  TIP3      H1            -23.3766984125      -14.4793399386        5.4752583134  W2        1102            0.0000000000
      3306      1102  TIP3      H2            -21.9089984125      -14.8390699386        5.5663683134  W2        1102            0.0000000000
      3307      1103  TIP3      OH2           -24.7884584125      -17.9457199386      -11.1860616866  W2        1103            0.0000000000
      3308      1103  TIP3      H1            -24.1778784125      -18.3170399386      -10.5492416866  W2        1103            0.0000000000
      3309      1103  TIP3      H2            -25.6253084125      -18.3670299386      -10.9900616866  W2        1103            0.0000000000
      3310      1104  TIP3      OH2           -25.1558884125      -16.3908799386       -6.2200716866  W2        1104            0.0000000000
      3311      1104  TIP3      H1            -24.8761784125      -17.2978399386       -6.0959016866  W2        1104            0.0000000000
      3312      1104  TIP3      H2            -24.3967184125      -15.9567299386       -6.6091516866  W2        1104            0.0000000000
      3313      1105  TIP3      OH2           -24.5440584125      -15.8091399386       -0.7841816866  W2        1105            0.0000000000
      3314      1105  TIP3      H1            -23.6112584125      -15.5971499386       -0.8185816866  W2        1105            0.0000000000
      3315      1105  TIP3      H2            -24.7793084125      -15.7079299386        0.1381183134  W2        1105            0.0000000000
      3316      1106  TIP3      OH2           -24.5148684125      -15.0726099386        1.9917583134  W2        1106            0.0000000000
      3317      1106  TIP3      H1            -25.3577384125      -14.8045699386        2.3577383134  W2        1106            0.0000000000
      3318      1106  TIP3      H2            -24.0724384125      -14.2504199386        1.7808683134  W2        1106            0.0000000000
      3319      1107  TIP3      OH2           -40.2336484125      -16.6247399386        5.4686783134  W2        1107            0.0000000000
      3320      1107  TIP3      H1            -39.3141584125      -16.7469099386        5.7049883134  W2        1107            0.0000000000
      3321      1107  TIP3      H2            -40.6831984125      -17.3747699386        5.8580283134  W2        1107            0.0000000000
      3322      1108  TIP3      OH2           -22.2317084125      -21.0925899386        7.3452583134  W2        1108            0.0000000000
      3323      1108  TIP3      H1            -21.8820084125      -21.7462399386        6.7397283134  W2        1108            0.0000000000
      3324      1108  TIP3      H2            -22.0847584125      -20.2551799386        6.9055183134  W2        1108            0.0000000000
      3325      1109  TIP3      OH2           -24.5424084125      -19.1279499386       -6.1718716866  W2        1109            0.0000000000
      3326      1109  TIP3      H1            -24.3599084125      -19.5767999386       -5.3463716866  W2        1109            0.0000000000
      3327      1109  TIP3      H2            -25.1421184125      -19.7125099386       -6.6354116866  W2        1109            0.0000000000
      3328      1110  TIP3      OH2           -39.0123984125      -18.3125799386       -1.6400316866  W2        1110            0.0000000000
      3329      1110  TIP3      H1            -38.5672384125      -19.1043299386       -1.3380616866  W2        1110            0.0000000000
      3330      1110  TIP3      H2            -38.5460984125      -17.5960599386       -1.2094716866  W2        1110            0.0000000000
      3331      1111  TIP3      OH2           -40.7083684125      -15.3132799386       -0.5710116866  W2        1111            0.0000000000
      3332      1111  TIP3      H1            -40.2163884125      -15.5342299386       -1.3618116866  W2        1111            0.0000000000
      3333      1111  TIP3      H2            -40.3462784125      -14.4729399386       -0.2900616866  W2        1111            0.0000000000
      3334      1112  TIP3      OH2           -22.7119884125      -18.9831299386        5.6943883134  W2        1112            0.0000000000
      3335      1112  TIP3      H1            -23.6294184125      -18.7124199386        5.6587383134  W2        1112            0.0000000000
      3336      1112  TIP3      H2            -22.5890484125      -19.5182899386        4.9103583134  W2        1112            0.0000000000
      3337      1113  TIP3      OH2           -22.6757884125      -19.0601399386       -9.6438416866  W2        1113            0.0000000000
      3338      1113  TIP3      H1            -22.2635284125      -19.7815699386      -10.1190416866  W2        1113            0.0000000000
      3339      1113  TIP3      H2            -21.9941384125      -18.3906799386       -9.5854116866  W2        1113            0.0000000000
      3340      1114  TIP3      OH2           -40.3947184125      -19.0553699386       -6.5167716866  W2        1114            0.0000000000
      3341      1114  TIP3      H1            -41.3198784125      -18.8467099386       -6.6462216866  W2        1114            0.0000000000
      3342      1114  TIP3      H2            -39.9407284125      -18.5712899386       -7.2065416866  W2        1114            0.0000000000
      3343      1115  TIP3      OH2           -25.6239984125       -4.0711999386       -4.5710316866  W2        1115            0.0000000000
      3344      1115  TIP3      H1            -24.9717084125       -4.4189899386       -5.1791216866  W2        1115            0.0000000000
      3345      1115  TIP3      H2            -25.1136184125       -3.5828799386       -3.9250616866  W2        1115            0.0000000000
      3346      1116  TIP3      OH2           -40.4311784125      -20.3174699386        1.8274783134  W2        1116            0.0000000000
      3347      1116  TIP3      H1            -41.0961284125      -20.5634399386        2.4705683134  W2        1116            0.0000000000
      3348      1116  TIP3      H2            -40.8740484125      -19.6954299386        1.2502783134  W2        1116            0.0000000000
      3349      1117  TIP3      OH2           -38.2392484125       -7.1420599386        5.9720583134  W2        1117            0.0000000000
      3350      1117  TIP3      H1            -39.0599984125       -6.9674099386        5.5115283134  W2        1117            0.0000000000
      3351      1117  TIP3      H2            -38.4914684125       -7.2155899386        6.8924983134  W2        1117            0.0000000000
      3352      1118  TIP3      OH2           -35.2849584125       -6.1679399386        2.2304583134  W2        1118            0.0000000000
      3353      1118  TIP3      H1            -35.7098484125       -5.3580899386        1.9479183134  W2        1118            0.0000000000
      3354      1118  TIP3      H2            -34.3806784125       -6.0825299386        1.9284383134  W2        1118            0.0000000000
      3355      1119  TIP3      OH2           -30.9738184125       -4.7689399386        5.1898283134  W2        1119            0.0000000000
      3356      1119  TIP3      H1            -30.7890684125       -5.1023299386        6.0678583134  W2        1119            0.0000000000
      3357      1119  TIP3      H2            -30.1273684125       -4.4590799386        4.8677483134  W2        1119            0.0000000000
      3358      1120  TIP3      OH2           -28.6287784125       -3.4830499386        4.4339683134  W2        1120            0.0000000000
      3359      1120  TIP3      H1            -27.9518884125       -4.1158199386        4.1938883134  W2        1120            0.0000000000
      3360      1120  TIP3      H2            -28.3068984125       -3.0819999386        5.2412983134  W2        1120            0.0000000000
      3361      1121  TIP3      OH2           -23.7113984125      -20.8934999386        3.5134683134  W2        1121            0.0000000000
      3362      1121  TIP3      H1            -24.5240484125      -20.5684699386        3.1259383134  W2        1121            0.0000000000
      3363      1121  TIP3      H2            -23.4785484125      -21.6536499386        2.9803783134  W2        1121            0.0000000000
      3364      1122  TIP3      OH2           -37.8832884125       -2.9115499386        2.2779883134  W2        1122            0.0000000000
      3365      1122  TIP3      H1            -38.6036484125       -2.4714499386        1.8267583134  W2        1122            0.0000000000
      3366      1122  TIP3      H2            -38.2488884125       -3.1620799386        3.1263883134  W2        1122            0.0000000000
      3367      1123  TIP3      OH2           -35.4160284125       -3.3111599386        1.3077083134  W2        1123            0.0000000000
      3368      1123  TIP3      H1            -36.2808084125       -3.2393099386        1.7117183134  W2        1123            0.0000000000
      3369      1123  TIP3      H2            -35.4711284125       -2.7644299386        0.5239583134  W2        1123            0.0000000000
      3370      1124  TIP3      OH2           -30.7054684125       -3.4232699386        0.4833083134  W2        1124            0.0000000000
      3371      1124  TIP3      H1            -31.1620684125       -2.8942999386       -0.1708516866  W2        1124            0.0000000000
      3372      1124  TIP3      H2            -30.5426684125       -2.8201299386        1.2085383134  W2        1124            0.0000000000
      3373      1125  TIP3      OH2           -28.3778384125       -4.5453099386        1.4283383134  W2        1125            0.0000000000
      3374      1125  TIP3      H1            -29.2824684125       -4.3802899386        1.1625483134  W2        1125            0.0000000000
      3375      1125  TIP3      H2            -27.9489784125       -3.6920899386        1.3626783134  W2        1125            0.0000000000
      3376      1126  TIP3      OH2           -25.7736484125       -2.9753999386        1.7231183134  W2        1126            0.0000000000
      3377      1126  TIP3      H1            -25.9554484125       -2.0595099386        1.5126083134  W2        1126            0.0000000000
      3378      1126  TIP3      H2            -25.5968684125       -3.3856899386        0.8765783134  W2        1126            0.0000000000
      3379      1127  TIP3      OH2           -38.4684784125       -4.2882999386       -0.8118316866  W2        1127            0.0000000000
      3380      1127  TIP3      H1            -38.4868784125       -4.7137899386        0.0453983134  W2        1127            0.0000000000
      3381      1127  TIP3      H2            -37.6636884125       -4.6067999386       -1.2206116866  W2        1127            0.0000000000
      3382      1128  TIP3      OH2           -36.3271684125       -5.5784299386       -2.1568416866  W2        1128            0.0000000000
      3383      1128  TIP3      H1            -36.5460984125       -6.4946899386       -1.9872416866  W2        1128            0.0000000000
      3384      1128  TIP3      H2            -35.5029484125       -5.4383899386       -1.6907016866  W2        1128            0.0000000000
      3385      1129  TIP3      OH2           -33.7899184125       -5.1084999386       -1.3080416866  W2        1129            0.0000000000
      3386      1129  TIP3      H1            -33.5773484125       -5.9965999386       -1.5949516866  W2        1129            0.0000000000
      3387      1129  TIP3      H2            -33.7254084125       -5.1427299386       -0.3536416866  W2        1129            0.0000000000
      3388      1130  TIP3      OH2           -30.2815484125      -19.4444399386       -2.1637116866  W2        1130            0.0000000000
      3389      1130  TIP3      H1            -30.9558684125      -20.0738799386       -1.9081316866  W2        1130            0.0000000000
      3390      1130  TIP3      H2            -29.7176284125      -19.9285499386       -2.7669216866  W2        1130            0.0000000000
      3391      1131  TIP3      OH2           -25.1388284125      -21.3370399386       -2.0510016866  W2        1131            0.0000000000
      3392      1131  TIP3      H1            -24.5350684125      -20.7894999386       -2.5529016866  W2        1131            0.0000000000
      3393      1131  TIP3      H2            -26.0086284125      -21.0179999386       -2.2915916866  W2        1131            0.0000000000
      3394      1132  TIP3      OH2           -23.4117884125      -20.1981699386       -3.7179116866  W2        1132            0.0000000000
      3395      1132  TIP3      H1            -22.8000384125      -20.7125999386       -4.2445516866  W2        1132            0.0000000000
      3396      1132  TIP3      H2            -23.0294484125      -19.3209599386       -3.6944716866  W2        1132            0.0000000000
      3397      1133  TIP3      OH2           -37.9547984125      -20.8104099386       -4.3417216866  W2        1133            0.0000000000
      3398      1133  TIP3      H1            -38.7318184125      -21.0449199386       -4.8491316866  W2        1133            0.0000000000
      3399      1133  TIP3      H2            -37.4244384125      -21.6071999386       -4.3329216866  W2        1133            0.0000000000
      3400      1134  TIP3      OH2           -39.1184584125      -21.0125999386       -8.5381116866  W2        1134            0.0000000000
      3401      1134  TIP3      H1            -38.6793884125      -20.4015499386       -9.1297616866  W2        1134            0.0000000000
      3402      1134  TIP3      H2            -39.7522184125      -20.4741899386       -8.0641116866  W2        1134            0.0000000000
      3403      1135  TIP3      OH2           -33.3755384125      -20.8836999386       -4.5284116866  W2        1135            0.0000000000
      3404      1135  TIP3      H1            -32.5011984125      -20.4952699386       -4.5579816866  W2        1135            0.0000000000
      3405      1135  TIP3      H2            -33.5114584125      -21.0989199386       -3.6056916866  W2        1135            0.0000000000
      3406      1136  TIP3      OH2           -27.8186984125      -20.8537199386       -2.8792416866  W2        1136            0.0000000000
      3407      1136  TIP3      H1            -27.7425384125      -20.7585599386       -3.8286416866  W2        1136            0.0000000000
      3408      1136  TIP3      H2            -28.0937784125      -21.7614299386       -2.7503316866  W2        1136            0.0000000000
      3409      1137  TIP3      OH2           -26.4654384125      -20.8279399386       -7.1867416866  W2        1137            0.0000000000
      3410      1137  TIP3      H1            -27.1683284125      -20.2130199386       -7.3966016866  W2        1137            0.0000000000
      3411      1137  TIP3      H2            -26.9102984125      -21.6652699386       -7.0556516866  W2        1137            0.0000000000
      3412      1138  TIP3      OH2           -39.2175084125       -5.0643799386       -7.6406016866  W2        1138            0.0000000000
      3413      1138  TIP3      H1            -39.9025184125       -5.1024899386       -8.3080916866  W2        1138            0.0000000000
      3414      1138  TIP3      H2            -39.2137884125       -4.1516199386       -7.3523916866  W2        1138            0.0000000000
      3415      1139  TIP3      OH2           -37.2575484125      -19.0964499386      -10.0957016866  W2        1139            0.0000000000
      3416      1139  TIP3      H1            -36.7662084125      -19.7262099386      -10.6231516866  W2        1139            0.0000000000
      3417      1139  TIP3      H2            -36.6339184125      -18.8005099386       -9.4325816866  W2        1139            0.0000000000
      3418      1140  TIP3      OH2           -32.2315384125      -18.8032999386       -7.6386516866  W2        1140            0.0000000000
      3419      1140  TIP3      H1            -32.0534084125      -19.4499799386       -6.9557916866  W2        1140            0.0000000000
      3420      1140  TIP3      H2            -32.2849184125      -17.9695299386       -7.1715416866  W2        1140            0.0000000000
      3421      1141  TIP3      OH2           -30.3531584125       -3.8548899386       -9.2429816866  W2        1141            0.0000000000
      3422      1141  TIP3      H1            -29.4871384125       -3.4881499386       -9.4211616866  W2        1141            0.0000000000
      3423      1141  TIP3      H2            -30.5998784125       -4.2940899386      -10.0569016866  W2        1141            0.0000000000
      3424      1142  TIP3      OH2           -23.6441984125       -4.2918599386       -6.5638716866  W2        1142            0.0000000000
      3425      1142  TIP3      H1            -23.8384884125       -5.0396499386       -7.1289116866  W2        1142            0.0000000000
      3426      1142  TIP3      H2            -23.6831884125       -3.5338499386       -7.1470816866  W2        1142            0.0000000000
      3427      1143  TIP3      OH2           -37.9969984125      -20.2962199386        5.1758983134  W2        1143            0.0000000000
      3428      1143  TIP3      H1            -38.3631784125      -21.0619599386        5.6183683134  W2        1143            0.0000000000
      3429      1143  TIP3      H2            -37.0841484125      -20.2671999386        5.4624083134  W2        1143            0.0000000000
      3430      1144  TIP3      OH2           -36.0239184125      -20.9457799386        6.7116083134  W2        1144            0.0000000000
      3431      1144  TIP3      H1            -35.1255584125      -21.2197599386        6.5269483134  W2        1144            0.0000000000
      3432      1144  TIP3      H2            -36.4106084125      -21.6881799386        7.1758683134  W2        1144            0.0000000000
      3433      1145  TIP3      OH2           -37.3993884125       -4.1442999386      -10.6153916866  W2        1145            0.0000000000
      3434      1145  TIP3      H1            -37.6669284125       -3.8580099386       -9.7420816866  W2        1145            0.0000000000
      3435      1145  TIP3      H2            -36.6281284125       -4.6903799386      -10.4631416866  W2        1145            0.0000000000
      3436      1146  TIP3      OH2           -27.6026884125      -21.6132499386        6.8938883134  W2        1146            0.0000000000
      3437      1146  TIP3      H1            -27.5259684125      -22.0391799386        7.7476583134  W2        1146            0.0000000000
      3438      1146  TIP3      H2            -26.7090284125      -21.5997799386        6.5512383134  W2        1146            0.0000000000
      3439      1147  TIP3      OH2           -24.4265784125       -5.5406199386        5.5863083134  W2        1147            0.0000000000
      3440      1147  TIP3      H1            -25.2083884125       -5.7268199386        5.0663683134  W2        1147            0.0000000000
      3441      1147  TIP3      H2            -24.4985884125       -4.6111899386        5.8035583134  W2        1147            0.0000000000
      3442      1148  TIP3      OH2           -10.0205384125      -11.6541799386       -4.3829716866  W2        1148            0.0000000000
      3443      1148  TIP3      H1             -9.9314284125      -10.7103599386       -4.5152616866  W2        1148            0.0000000000
      3444      1148  TIP3      H2            -10.6587784125      -11.9295399386       -5.0410316866  W2        1148            0.0000000000
      3445      1149  TIP3      OH2           -11.0874084125      -12.3991099386       -0.9641516866  W2        1149            0.0000000000
      3446      1149  TIP3      H1            -11.1256584125      -13.0454799386       -0.2591916866  W2        1149            0.0000000000
      3447      1149  TIP3      H2            -11.4097584125      -12.8656699386       -1.7352816866  W2        1149            0.0000000000
      3448      1150  TIP3      OH2           -18.7189084125      -12.7848999386        0.6288383134  W2        1150            0.0000000000
      3449      1150  TIP3      H1            -18.6776984125      -13.4105699386        1.3520783134  W2        1150            0.0000000000
      3450      1150  TIP3      H2            -18.0161384125      -12.1610399386        0.8108783134  W2        1150            0.0000000000
      3451      1151  TIP3      OH2            -7.3813884125       -9.4600699386       -2.6626416866  W2        1151            0.0000000000
      3452      1151  TIP3      H1             -7.8221184125      -10.1804699386       -2.2120816866  W2        1151            0.0000000000
      3453      1151  TIP3      H2             -7.3944184125       -8.7393499386       -2.0328716866  W2        1151            0.0000000000
      3454      1152  TIP3      OH2           -17.7955984125       -8.3350099386       -0.8362516866  W2        1152            0.0000000000
      3455      1152  TIP3      H1            -18.1650784125       -9.1369599386       -1.2058216866  W2        1152            0.0000000000
      3456      1152  TIP3      H2            -16.8544884125       -8.5035199386       -0.7899116866  W2        1152            0.0000000000
      3457      1153  TIP3      OH2           -21.1855484125      -14.6747499386       -5.4433716866  W2        1153            0.0000000000
      3458      1153  TIP3      H1            -21.6332084125      -13.8288799386       -5.4617216866  W2        1153            0.0000000000
      3459      1153  TIP3      H2            -21.7464284125      -15.2543299386       -5.9588616866  W2        1153            0.0000000000
      3460      1154  TIP3      OH2           -20.4749384125      -12.5127899386       -3.3175716866  W2        1154            0.0000000000
      3461      1154  TIP3      H1            -20.2615884125      -13.2826299386       -2.7902716866  W2        1154            0.0000000000
      3462      1154  TIP3      H2            -19.7371784125      -12.4231199386       -3.9208116866  W2        1154            0.0000000000
      3463      1155  TIP3      OH2           -10.2698384125       -4.3558999386       -2.4506016866  W2        1155            0.0000000000
      3464      1155  TIP3      H1             -9.6501984125       -5.0324299386       -2.7236816866  W2        1155            0.0000000000
      3465      1155  TIP3      H2            -10.4780984125       -4.5738199386       -1.5421116866  W2        1155            0.0000000000
      3466      1156  TIP3      OH2           -12.6979684125       -9.9669699386       -0.5580516866  W2        1156            0.0000000000
      3467      1156  TIP3      H1            -12.3941784125      -10.6528299386       -1.1526416866  W2        1156            0.0000000000
      3468      1156  TIP3      H2            -11.9765684125       -9.8480999386        0.0597483134  W2        1156            0.0000000000
      3469      1157  TIP3      OH2            -4.0349884125      -18.3654399386        0.3025683134  W2        1157            0.0000000000
      3470      1157  TIP3      H1             -3.9857684125      -17.7553199386        1.0384783134  W2        1157            0.0000000000
      3471      1157  TIP3      H2             -3.6094784125      -17.9043499386       -0.4203216866  W2        1157            0.0000000000
      3472      1158  TIP3      OH2            -9.5572684125      -15.5727299386       -0.2305716866  W2        1158            0.0000000000
      3473      1158  TIP3      H1             -9.4146784125      -16.5190299386       -0.2104116866  W2        1158            0.0000000000
      3474      1158  TIP3      H2             -9.6633684125      -15.3657499386       -1.1590816866  W2        1158            0.0000000000
      3475      1159  TIP3      OH2           -16.4024384125      -17.4710899386       -2.9580916866  W2        1159            0.0000000000
      3476      1159  TIP3      H1            -16.3593284125      -16.6112399386       -3.3764616866  W2        1159            0.0000000000
      3477      1159  TIP3      H2            -16.8600284125      -18.0236199386       -3.5917716866  W2        1159            0.0000000000
      3478      1160  TIP3      OH2            -8.6801684125      -17.3405299386       -4.5572616866  W2        1160            0.0000000000
      3479      1160  TIP3      H1             -8.0337384125      -17.6692099386       -3.9325016866  W2        1160            0.0000000000
      3480      1160  TIP3      H2             -8.1702284125      -16.8226299386       -5.1801216866  W2        1160            0.0000000000
      3481      1161  TIP3      OH2           -19.7822884125      -15.0745099386       -2.1959516866  W2        1161            0.0000000000
      3482      1161  TIP3      H1            -19.1286284125      -15.6243399386       -1.7639416866  W2        1161            0.0000000000
      3483      1161  TIP3      H2            -19.7583584125      -15.3486099386       -3.1127516866  W2        1161            0.0000000000
      3484      1162  TIP3      OH2           -14.6258384125      -13.5243799386       -2.9808016866  W2        1162            0.0000000000
      3485      1162  TIP3      H1            -14.0097384125      -14.0508399386       -2.4714016866  W2        1162            0.0000000000
      3486      1162  TIP3      H2            -15.2119584125      -14.1645099386       -3.3844416866  W2        1162            0.0000000000
      3487      1163  TIP3      OH2            -3.6435284125      -16.8875199386        2.5385483134  W2        1163            0.0000000000
      3488      1163  TIP3      H1             -4.3320684125      -16.2294499386        2.4432083134  W2        1163            0.0000000000
      3489      1163  TIP3      H2             -3.6280684125      -17.0847299386        3.4750883134  W2        1163            0.0000000000
      3490      1164  TIP3      OH2           -17.5922484125      -18.5532499386        1.1159883134  W2        1164            0.0000000000
      3491      1164  TIP3      H1            -17.8110784125      -18.0231899386        0.3495883134  W2        1164            0.0000000000
      3492      1164  TIP3      H2            -18.2601584125      -18.3266999386        1.7631283134  W2        1164            0.0000000000
      3493      1165  TIP3      OH2           -10.2232684125       -9.0531399386       -5.3401016866  W2        1165            0.0000000000
      3494      1165  TIP3      H1            -10.5187584125       -9.3759099386       -6.1914116866  W2        1165            0.0000000000
      3495      1165  TIP3      H2            -10.5474884125       -8.1534699386       -5.2988416866  W2        1165            0.0000000000
      3496      1166  TIP3      OH2           -15.0231084125      -10.8776799386        1.4033583134  W2        1166            0.0000000000
      3497      1166  TIP3      H1            -15.7631984125      -10.2795299386        1.5068783134  W2        1166            0.0000000000
      3498      1166  TIP3      H2            -14.3091584125      -10.3237199386        1.0877183134  W2        1166            0.0000000000
      3499      1167  TIP3      OH2            -6.9163284125      -18.0495999386       -2.5766716866  W2        1167            0.0000000000
      3500      1167  TIP3      H1             -7.1315284125      -18.8152599386       -2.0440716866  W2        1167            0.0000000000
      3501      1167  TIP3      H2             -6.2605884125      -17.5771399386       -2.0638216866  W2        1167            0.0000000000
      3502      1168  TIP3      OH2           -17.9985184125      -16.6610699386       -0.9317916866  W2        1168            0.0000000000
      3503      1168  TIP3      H1            -17.3848884125      -16.0283099386       -0.5585516866  W2        1168            0.0000000000
      3504      1168  TIP3      H2            -17.4864484125      -17.1335699386       -1.5881016866  W2        1168            0.0000000000
      3505      1169  TIP3      OH2           -16.6156784125       -8.9133799386        2.1905083134  W2        1169            0.0000000000
      3506      1169  TIP3      H1            -16.6209184125       -8.0340299386        1.8124383134  W2        1169            0.0000000000
      3507      1169  TIP3      H2            -17.4692684125       -8.9969699386        2.6154983134  W2        1169            0.0000000000
      3508      1170  TIP3      OH2           -20.4945884125       -9.2425899386       -7.0275616866  W2        1170            0.0000000000
      3509      1170  TIP3      H1            -20.7664984125       -9.0134899386       -7.9162716866  W2        1170            0.0000000000
      3510      1170  TIP3      H2            -20.4490184125       -8.4047099386       -6.5670316866  W2        1170            0.0000000000
      3511      1171  TIP3      OH2            -6.8696184125       -7.6209999386       -0.3147116866  W2        1171            0.0000000000
      3512      1171  TIP3      H1             -7.8112484125       -7.5626099386       -0.1530216866  W2        1171            0.0000000000
      3513      1171  TIP3      H2             -6.5930084125       -6.7149499386       -0.4517416866  W2        1171            0.0000000000
      3514      1172  TIP3      OH2            -6.5689184125      -19.3344699386        1.1026783134  W2        1172            0.0000000000
      3515      1172  TIP3      H1             -7.3049984125      -18.7237599386        1.0648083134  W2        1172            0.0000000000
      3516      1172  TIP3      H2             -5.8855184125      -18.9195699386        0.5763183134  W2        1172            0.0000000000
      3517      1173  TIP3      OH2           -13.5657784125      -21.2477399386       -1.4315216866  W2        1173            0.0000000000
      3518      1173  TIP3      H1            -13.6833584125      -22.1961399386       -1.4856916866  W2        1173            0.0000000000
      3519      1173  TIP3      H2            -14.4207684125      -20.9151299386       -1.1584116866  W2        1173            0.0000000000
      3520      1174  TIP3      OH2            -8.6174984125       -5.8396499386       -3.6895516866  W2        1174            0.0000000000
      3521      1174  TIP3      H1             -8.1922684125       -6.5468599386       -4.1745916866  W2        1174            0.0000000000
      3522      1174  TIP3      H2             -8.3004984125       -5.0383799386       -4.1063316866  W2        1174            0.0000000000
      3523      1175  TIP3      OH2            -7.4578484125       -7.9387999386       -5.1808916866  W2        1175            0.0000000000
      3524      1175  TIP3      H1             -7.7153684125       -8.6287899386       -5.7923016866  W2        1175            0.0000000000
      3525      1175  TIP3      H2             -7.3867684125       -8.3816799386       -4.3353016866  W2        1175            0.0000000000
      3526      1176  TIP3      OH2            -5.7718284125       -9.3721299386        3.2964583134  W2        1176            0.0000000000
      3527      1176  TIP3      H1             -5.6321984125       -9.9638799386        2.5571583134  W2        1176            0.0000000000
      3528      1176  TIP3      H2             -5.6045484125       -8.4995399386        2.9403383134  W2        1176            0.0000000000
      3529      1177  TIP3      OH2           -11.2992884125      -12.4101799386       -6.9309416866  W2        1177            0.0000000000
      3530      1177  TIP3      H1            -12.0107384125      -11.8752099386       -7.2828916866  W2        1177            0.0000000000
      3531      1177  TIP3      H2            -10.6083284125      -12.3549699386       -7.5910516866  W2        1177            0.0000000000
      3532      1178  TIP3      OH2           -11.2453684125      -13.9527499386       -9.8924416866  W2        1178            0.0000000000
      3533      1178  TIP3      H1            -10.5443784125      -13.9300599386       -9.2410416866  W2        1178            0.0000000000
      3534      1178  TIP3      H2            -10.9430784125      -14.5807799386      -10.5485116866  W2        1178            0.0000000000
      3535      1179  TIP3      OH2            -3.9298984125      -13.0323299386        1.3624983134  W2        1179            0.0000000000
      3536      1179  TIP3      H1             -4.5824884125      -12.3377699386        1.4515883134  W2        1179            0.0000000000
      3537      1179  TIP3      H2             -3.4648684125      -12.8222399386        0.5526583134  W2        1179            0.0000000000
      3538      1180  TIP3      OH2            -7.8935184125      -12.2008499386       -5.9793516866  W2        1180            0.0000000000
      3539      1180  TIP3      H1             -8.6254184125      -11.9724799386       -5.4062916866  W2        1180            0.0000000000
      3540      1180  TIP3      H2             -7.4462984125      -12.9145799386       -5.5246016866  W2        1180            0.0000000000
      3541      1181  TIP3      OH2            -7.9961684125      -14.0265899386        3.0883483134  W2        1181            0.0000000000
      3542      1181  TIP3      H1             -7.9162584125      -13.2631499386        3.6601983134  W2        1181            0.0000000000
      3543      1181  TIP3      H2             -8.5973984125      -13.7473499386        2.3978583134  W2        1181            0.0000000000
      3544      1182  TIP3      OH2           -16.2481484125      -11.5702299386       -4.0968516866  W2        1182            0.0000000000
      3545      1182  TIP3      H1            -16.5786284125      -11.9408899386       -4.9151516866  W2        1182            0.0000000000
      3546      1182  TIP3      H2            -15.6597384125      -12.2408299386       -3.7500216866  W2        1182            0.0000000000
      3547      1183  TIP3      OH2           -14.8813984125       -8.1421699386       -1.4156316866  W2        1183            0.0000000000
      3548      1183  TIP3      H1            -14.9762684125       -8.7208599386       -2.1721716866  W2        1183            0.0000000000
      3549      1183  TIP3      H2            -14.1520384125       -8.5135999386       -0.9193516866  W2        1183            0.0000000000
      3550      1184  TIP3      OH2           -15.8815984125      -12.8016699386       -0.4633516866  W2        1184            0.0000000000
      3551      1184  TIP3      H1            -15.3163484125      -12.6802499386       -1.2262316866  W2        1184            0.0000000000
      3552      1184  TIP3      H2            -15.5627084125      -12.1641699386        0.1754983134  W2        1184            0.0000000000
      3553      1185  TIP3      OH2            -9.5723784125       -7.2984799386        0.2706983134  W2        1185            0.0000000000
      3554      1185  TIP3      H1             -9.8127184125       -6.6361699386        0.9186183134  W2        1185            0.0000000000
      3555      1185  TIP3      H2             -9.7705584125       -8.1329599386        0.6956583134  W2        1185            0.0000000000
      3556      1186  TIP3      OH2           -15.0015284125       -8.4023999386        4.2538383134  W2        1186            0.0000000000
      3557      1186  TIP3      H1            -15.3127784125       -7.6200799386        4.7091583134  W2        1186            0.0000000000
      3558      1186  TIP3      H2            -15.6515084125       -8.5554899386        3.5680383134  W2        1186            0.0000000000
      3559      1187  TIP3      OH2            -9.0225684125      -13.0385599386       -8.2942316866  W2        1187            0.0000000000
      3560      1187  TIP3      H1             -8.4430184125      -12.8885299386       -7.5473416866  W2        1187            0.0000000000
      3561      1187  TIP3      H2             -8.6085684125      -12.5678199386       -9.0175916866  W2        1187            0.0000000000
      3562      1188  TIP3      OH2           -18.0815384125      -12.2042899386        3.4824083134  W2        1188            0.0000000000
      3563      1188  TIP3      H1            -18.0112184125      -11.5536099386        4.1809083134  W2        1188            0.0000000000
      3564      1188  TIP3      H2            -18.9723184125      -12.1015399386        3.1474983134  W2        1188            0.0000000000
      3565      1189  TIP3      OH2           -11.2960784125       -6.3017099386       -4.8589216866  W2        1189            0.0000000000
      3566      1189  TIP3      H1            -10.8223184125       -6.0060799386       -4.0815016866  W2        1189            0.0000000000
      3567      1189  TIP3      H2            -11.8591484125       -5.5635499386       -5.0919616866  W2        1189            0.0000000000
      3568      1190  TIP3      OH2           -16.7619384125       -6.3308999386        5.0172183134  W2        1190            0.0000000000
      3569      1190  TIP3      H1            -16.7544084125       -6.4669299386        4.0697683134  W2        1190            0.0000000000
      3570      1190  TIP3      H2            -17.6778984125       -6.4480899386        5.2692183134  W2        1190            0.0000000000
      3571      1191  TIP3      OH2            -5.3237284125      -21.2885199386       -8.4812616866  W2        1191            0.0000000000
      3572      1191  TIP3      H1             -6.2236584125      -21.1496199386       -8.1862016866  W2        1191            0.0000000000
      3573      1191  TIP3      H2             -5.0718884125      -20.4570599386       -8.8830916866  W2        1191            0.0000000000
      3574      1192  TIP3      OH2           -17.2578784125      -12.5007999386       -6.5075716866  W2        1192            0.0000000000
      3575      1192  TIP3      H1            -17.5497484125      -11.7326299386       -6.9984416866  W2        1192            0.0000000000
      3576      1192  TIP3      H2            -17.9323584125      -13.1601799386       -6.6704316866  W2        1192            0.0000000000
      3577      1193  TIP3      OH2            -4.1345884125       -6.9222799386      -10.1048716866  W2        1193            0.0000000000
      3578      1193  TIP3      H1             -4.0612384125       -5.9832599386       -9.9343416866  W2        1193            0.0000000000
      3579      1193  TIP3      H2             -3.2290784125       -7.2274199386      -10.1611416866  W2        1193            0.0000000000
      3580      1194  TIP3      OH2           -21.1648684125      -10.1378799386        2.3074083134  W2        1194            0.0000000000
      3581      1194  TIP3      H1            -21.6660284125      -10.1659399386        1.4923783134  W2        1194            0.0000000000
      3582      1194  TIP3      H2            -21.1594984125      -11.0435599386        2.6171383134  W2        1194            0.0000000000
      3583      1195  TIP3      OH2           -21.4145984125       -7.3574999386       -0.8085716866  W2        1195            0.0000000000
      3584      1195  TIP3      H1            -20.4685384125       -7.5017999386       -0.8276216866  W2        1195            0.0000000000
      3585      1195  TIP3      H2            -21.5269684125       -6.5732199386       -0.2714516866  W2        1195            0.0000000000
      3586      1196  TIP3      OH2            -3.2167484125       -6.6915299386        4.8737983134  W2        1196            0.0000000000
      3587      1196  TIP3      H1             -3.2660684125       -7.6467199386        4.8365583134  W2        1196            0.0000000000
      3588      1196  TIP3      H2             -4.0435184125       -6.4239999386        5.2751783134  W2        1196            0.0000000000
      3589      1197  TIP3      OH2           -12.2383484125       -7.1176099386        3.7499383134  W2        1197            0.0000000000
      3590      1197  TIP3      H1            -12.1508884125       -6.2911499386        4.2248483134  W2        1197            0.0000000000
      3591      1197  TIP3      H2            -13.1018384125       -7.4472299386        3.9988683134  W2        1197            0.0000000000
      3592      1198  TIP3      OH2           -11.8237684125       -3.3452399386       -6.4440016866  W2        1198            0.0000000000
      3593      1198  TIP3      H1            -11.8991684125       -3.4665199386       -7.3904816866  W2        1198            0.0000000000
      3594      1198  TIP3      H2            -11.7908984125       -2.3959699386       -6.3255416866  W2        1198            0.0000000000
      3595      1199  TIP3      OH2           -18.1703884125       -4.5565399386       -4.6631016866  W2        1199            0.0000000000
      3596      1199  TIP3      H1            -18.0183484125       -4.9044999386       -3.7844516866  W2        1199            0.0000000000
      3597      1199  TIP3      H2            -19.0213484125       -4.9128099386       -4.9183816866  W2        1199            0.0000000000
      3598      1200  TIP3      OH2            -8.7221684125       -4.1912199386       -9.4417616866  W2        1200            0.0000000000
      3599      1200  TIP3      H1             -8.3473284125       -4.9356099386       -9.9125016866  W2        1200            0.0000000000
      3600      1200  TIP3      H2             -8.7177984125       -4.4611599386       -8.5234316866  W2        1200            0.0000000000
      3601      1201  TIP3      OH2            -9.0533584125       -4.2655099386       -6.6925416866  W2        1201            0.0000000000
      3602      1201  TIP3      H1             -9.9883784125       -4.1653199386       -6.5138416866  W2        1201            0.0000000000
      3603      1201  TIP3      H2             -8.7731684125       -4.9749099386       -6.1142216866  W2        1201            0.0000000000
      3604      1202  TIP3      OH2            -6.0647684125      -15.1982799386        5.3540183134  W2        1202            0.0000000000
      3605      1202  TIP3      H1             -6.4720884125      -14.7177199386        4.6333483134  W2        1202            0.0000000000
      3606      1202  TIP3      H2             -6.0241984125      -16.1036799386        5.0460983134  W2        1202            0.0000000000
      3607      1203  TIP3      OH2           -18.9158184125       -8.8143399386        3.3506883134  W2        1203            0.0000000000
      3608      1203  TIP3      H1            -18.6996884125       -9.1757799386        4.2102683134  W2        1203            0.0000000000
      3609      1203  TIP3      H2            -19.7713484125       -9.1889599386        3.1410383134  W2        1203            0.0000000000
      3610      1204  TIP3      OH2           -16.2970184125      -20.3442899386       -0.6538916866  W2        1204            0.0000000000
      3611      1204  TIP3      H1            -17.1586484125      -20.4314699386       -1.0616016866  W2        1204            0.0000000000
      3612      1204  TIP3      H2            -16.3194484125      -19.4882799386       -0.2261316866  W2        1204            0.0000000000
      3613      1205  TIP3      OH2           -11.6342384125      -20.6222499386        2.7208083134  W2        1205            0.0000000000
      3614      1205  TIP3      H1            -11.2139284125      -21.0375399386        3.4738683134  W2        1205            0.0000000000
      3615      1205  TIP3      H2            -12.5672784125      -20.8009199386        2.8380083134  W2        1205            0.0000000000
      3616      1206  TIP3      OH2            -8.3077484125      -16.8667299386        3.5742583134  W2        1206            0.0000000000
      3617      1206  TIP3      H1             -8.8217984125      -16.9925099386        4.3718583134  W2        1206            0.0000000000
      3618      1206  TIP3      H2             -8.4632784125      -15.9544199386        3.3298783134  W2        1206            0.0000000000
      3619      1207  TIP3      OH2            -7.5452584125      -12.0057299386      -10.6644416866  W2        1207            0.0000000000
      3620      1207  TIP3      H1             -7.5031784125      -12.2283399386      -11.5944416866  W2        1207            0.0000000000
      3621      1207  TIP3      H2             -6.6960484125      -11.6070199386      -10.4744516866  W2        1207            0.0000000000
      3622      1208  TIP3      OH2           -11.9725084125      -18.1299099386       -9.9941116866  W2        1208            0.0000000000
      3623      1208  TIP3      H1            -12.2260284125      -18.1107499386       -9.0713016866  W2        1208            0.0000000000
      3624      1208  TIP3      H2            -12.2292984125      -19.0013699386      -10.2954916866  W2        1208            0.0000000000
      3625      1209  TIP3      OH2           -16.2060084125      -15.3788399386        0.4411283134  W2        1209            0.0000000000
      3626      1209  TIP3      H1            -16.8477984125      -15.4191099386        1.1501383134  W2        1209            0.0000000000
      3627      1209  TIP3      H2            -16.1688084125      -14.4523699386        0.2034283134  W2        1209            0.0000000000
      3628      1210  TIP3      OH2           -16.2090984125      -15.1578299386       -4.6468716866  W2        1210            0.0000000000
      3629      1210  TIP3      H1            -17.1018084125      -15.4982199386       -4.7054916866  W2        1210            0.0000000000
      3630      1210  TIP3      H2            -15.7584384125      -15.5347399386       -5.4025516866  W2        1210            0.0000000000
      3631      1211  TIP3      OH2           -10.6735484125      -14.7417999386       -5.8297916866  W2        1211            0.0000000000
      3632      1211  TIP3      H1            -11.0825184125      -13.9269399386       -6.1213116866  W2        1211            0.0000000000
      3633      1211  TIP3      H2             -9.9529284125      -14.8817899386       -6.4440816866  W2        1211            0.0000000000
      3634      1212  TIP3      OH2           -11.5713884125      -14.5661599386        5.6582783134  W2        1212            0.0000000000
      3635      1212  TIP3      H1            -12.1340084125      -15.2709999386        5.9790583134  W2        1212            0.0000000000
      3636      1212  TIP3      H2            -10.7450484125      -14.6869699386        6.1260383134  W2        1212            0.0000000000
      3637      1213  TIP3      OH2            -9.6687784125      -15.2957599386       -3.0158216866  W2        1213            0.0000000000
      3638      1213  TIP3      H1             -9.8643284125      -14.6900799386       -3.7307616866  W2        1213            0.0000000000
      3639      1213  TIP3      H2             -9.4875184125      -16.1292399386       -3.4501916866  W2        1213            0.0000000000
      3640      1214  TIP3      OH2           -18.4559584125      -15.0584899386        2.3083283134  W2        1214            0.0000000000
      3641      1214  TIP3      H1            -18.4940184125      -14.6583299386        3.1770383134  W2        1214            0.0000000000
      3642      1214  TIP3      H2            -18.9468484125      -15.8752499386        2.3986183134  W2        1214            0.0000000000
      3643      1215  TIP3      OH2           -15.0902184125      -17.6842599386      -10.8930716866  W2        1215            0.0000000000
      3644      1215  TIP3      H1            -15.5211484125      -18.1292499386      -10.1633316866  W2        1215            0.0000000000
      3645      1215  TIP3      H2            -15.8083484125      -17.3126299386      -11.4053216866  W2        1215            0.0000000000
      3646      1216  TIP3      OH2           -21.8478784125      -17.9423099386       -3.8412016866  W2        1216            0.0000000000
      3647      1216  TIP3      H1            -21.2171084125      -17.9710999386       -3.1218116866  W2        1216            0.0000000000
      3648      1216  TIP3      H2            -21.3984484125      -18.3674399386       -4.5716116866  W2        1216            0.0000000000
      3649      1217  TIP3      OH2           -20.5736684125      -17.1961099386       -8.4171616866  W2        1217            0.0000000000
      3650      1217  TIP3      H1            -20.0994984125      -16.6051199386       -9.0020716866  W2        1217            0.0000000000
      3651      1217  TIP3      H2            -21.2910284125      -16.6658199386       -8.0701516866  W2        1217            0.0000000000
      3652      1218  TIP3      OH2           -10.4048584125      -13.6576299386        1.6554183134  W2        1218            0.0000000000
      3653      1218  TIP3      H1            -10.0813784125      -14.2886599386        1.0124683134  W2        1218            0.0000000000
      3654      1218  TIP3      H2            -10.8449284125      -14.1924099386        2.3161583134  W2        1218            0.0000000000
      3655      1219  TIP3      OH2           -13.6275684125      -17.7300799386       -3.5604616866  W2        1219            0.0000000000
      3656      1219  TIP3      H1            -14.5384584125      -17.6733999386       -3.2718616866  W2        1219            0.0000000000
      3657      1219  TIP3      H2            -13.1222784125      -17.7905299386       -2.7497416866  W2        1219            0.0000000000
      3658      1220  TIP3      OH2           -18.7992284125      -16.1014499386       -4.7337016866  W2        1220            0.0000000000
      3659      1220  TIP3      H1            -19.6884284125      -16.0018999386       -5.0737416866  W2        1220            0.0000000000
      3660      1220  TIP3      H2            -18.5027384125      -16.9431499386       -5.0799116866  W2        1220            0.0000000000
      3661      1221  TIP3      OH2           -15.1460484125      -16.1011899386       -7.0772416866  W2        1221            0.0000000000
      3662      1221  TIP3      H1            -14.2144984125      -15.9721899386       -6.8989316866  W2        1221            0.0000000000
      3663      1221  TIP3      H2            -15.3610184125      -15.4317599386       -7.7267716866  W2        1221            0.0000000000
      3664      1222  TIP3      OH2            -9.2223784125      -18.4954499386       -0.2962816866  W2        1222            0.0000000000
      3665      1222  TIP3      H1             -9.8992184125      -18.3641399386        0.3676883134  W2        1222            0.0000000000
      3666      1222  TIP3      H2             -9.7078884125      -18.6504999386       -1.1065116866  W2        1222            0.0000000000
      3667      1223  TIP3      OH2           -16.4720284125      -14.9069699386       -9.5106316866  W2        1223            0.0000000000
      3668      1223  TIP3      H1            -17.0145184125      -15.2865899386      -10.2018716866  W2        1223            0.0000000000
      3669      1223  TIP3      H2            -15.6385384125      -14.7124999386       -9.9392216866  W2        1223            0.0000000000
      3670      1224  TIP3      OH2            -5.9348684125       -2.8239099386        5.9804783134  W2        1224            0.0000000000
      3671      1224  TIP3      H1             -5.7349984125       -2.3997199386        5.1460083134  W2        1224            0.0000000000
      3672      1224  TIP3      H2             -5.2794984125       -2.4800899386        6.5875183134  W2        1224            0.0000000000
      3673      1225  TIP3      OH2           -18.3368884125      -10.3497799386        5.5885283134  W2        1225            0.0000000000
      3674      1225  TIP3      H1            -17.6046484125      -10.0951899386        6.1499783134  W2        1225            0.0000000000
      3675      1225  TIP3      H2            -19.1170184125      -10.1452399386        6.1040683134  W2        1225            0.0000000000
      3676      1226  TIP3      OH2           -12.3075984125      -14.9427799386       -1.6735016866  W2        1226            0.0000000000
      3677      1226  TIP3      H1            -11.7432584125      -15.4891199386       -2.2205416866  W2        1226            0.0000000000
      3678      1226  TIP3      H2            -12.4552584125      -15.4645899386       -0.8847416866  W2        1226            0.0000000000
      3679      1227  TIP3      OH2           -17.3056284125      -18.8061699386       -5.2550216866  W2        1227            0.0000000000
      3680      1227  TIP3      H1            -17.6226784125      -19.7086399386       -5.2904816866  W2        1227            0.0000000000
      3681      1227  TIP3      H2            -16.5242184125      -18.8044299386       -5.8078616866  W2        1227            0.0000000000
      3682      1228  TIP3      OH2           -13.6810084125      -16.5541699386        0.7405383134  W2        1228            0.0000000000
      3683      1228  TIP3      H1            -14.5164784125      -16.1002199386        0.8507783134  W2        1228            0.0000000000
      3684      1228  TIP3      H2            -13.1569484125      -16.2783199386        1.4925283134  W2        1228            0.0000000000
      3685      1229  TIP3      OH2           -13.1367484125      -10.3413999386       -7.5748216866  W2        1229            0.0000000000
      3686      1229  TIP3      H1            -13.8816484125      -10.8488699386       -7.8970316866  W2        1229            0.0000000000
      3687      1229  TIP3      H2            -13.2710284125      -10.2925999386       -6.6283416866  W2        1229            0.0000000000
      3688      1230  TIP3      OH2            -5.9868584125      -11.2085799386        1.2119383134  W2        1230            0.0000000000
      3689      1230  TIP3      H1             -5.3449784125      -10.7519499386        0.6681583134  W2        1230            0.0000000000
      3690      1230  TIP3      H2             -6.8171684125      -11.0953399386        0.7493483134  W2        1230            0.0000000000
      3691      1231  TIP3      OH2            -9.2390684125      -17.5274099386       -9.3755616866  W2        1231            0.0000000000
      3692      1231  TIP3      H1            -10.1776484125      -17.4158499386       -9.5266816866  W2        1231            0.0000000000
      3693      1231  TIP3      H2             -8.9418584125      -16.6707199386       -9.0689916866  W2        1231            0.0000000000
      3694      1232  TIP3      OH2           -11.6175384125      -10.1570699386        3.6620883134  W2        1232            0.0000000000
      3695      1232  TIP3      H1            -11.9629284125      -10.5388299386        4.4690483134  W2        1232            0.0000000000
      3696      1232  TIP3      H2            -11.8175284125       -9.2237099386        3.7333783134  W2        1232            0.0000000000
      3697      1233  TIP3      OH2            -8.5207184125      -15.6601399386       -7.7148216866  W2        1233            0.0000000000
      3698      1233  TIP3      H1             -7.6288184125      -15.7976399386       -7.3957016866  W2        1233            0.0000000000
      3699      1233  TIP3      H2             -8.4643584125      -14.8695299386       -8.2514716866  W2        1233            0.0000000000
      3700      1234  TIP3      OH2           -18.0119184125      -11.0463999386       -1.8050316866  W2        1234            0.0000000000
      3701      1234  TIP3      H1            -17.2671984125      -11.0488299386       -2.4063816866  W2        1234            0.0000000000
      3702      1234  TIP3      H2            -17.9342584125      -11.8700199386       -1.3235216866  W2        1234            0.0000000000
      3703      1235  TIP3      OH2           -11.0113384125       -8.8829699386       -8.5493616866  W2        1235            0.0000000000
      3704      1235  TIP3      H1            -11.3064984125       -8.0561799386       -8.1678816866  W2        1235            0.0000000000
      3705      1235  TIP3      H2            -11.7143384125       -9.5022799386       -8.3532216866  W2        1235            0.0000000000
      3706      1236  TIP3      OH2           -21.0039484125      -12.5857099386        3.5098183134  W2        1236            0.0000000000
      3707      1236  TIP3      H1            -20.7810884125      -13.0037499386        4.3415683134  W2        1236            0.0000000000
      3708      1236  TIP3      H2            -21.6059384125      -13.1982099386        3.0870983134  W2        1236            0.0000000000
      3709      1237  TIP3      OH2           -13.9874584125      -13.0687199386        5.7227883134  W2        1237            0.0000000000
      3710      1237  TIP3      H1            -14.2833784125      -13.2344199386        4.8276983134  W2        1237            0.0000000000
      3711      1237  TIP3      H2            -13.0559384125      -13.2886899386        5.7121783134  W2        1237            0.0000000000
      3712      1238  TIP3      OH2            -9.3671784125       -7.6955199386        3.6125883134  W2        1238            0.0000000000
      3713      1238  TIP3      H1            -10.2677484125       -7.5122599386        3.3449783134  W2        1238            0.0000000000
      3714      1238  TIP3      H2             -9.3330684125       -7.4365899386        4.5334683134  W2        1238            0.0000000000
      3715      1239  TIP3      OH2            -3.6358484125      -15.4507299386       -8.0201516866  W2        1239            0.0000000000
      3716      1239  TIP3      H1             -4.1902184125      -15.8469299386       -8.6924016866  W2        1239            0.0000000000
      3717      1239  TIP3      H2             -3.5354884125      -14.5402099386       -8.2978216866  W2        1239            0.0000000000
      3718      1240  TIP3      OH2            -3.6726484125       -9.6505599386        4.8169983134  W2        1240            0.0000000000
      3719      1240  TIP3      H1             -4.5237984125       -9.4121799386        4.4496383134  W2        1240            0.0000000000
      3720      1240  TIP3      H2             -3.0823084125       -9.6672399386        4.0637083134  W2        1240            0.0000000000
      3721      1241  TIP3      OH2            -5.3406784125       -6.6646899386       -7.5549416866  W2        1241            0.0000000000
      3722      1241  TIP3      H1             -5.7135684125       -7.4903099386       -7.2458816866  W2        1241            0.0000000000
      3723      1241  TIP3      H2             -5.0633284125       -6.8477499386       -8.4526016866  W2        1241            0.0000000000
      3724      1242  TIP3      OH2            -8.1802884125      -11.8567399386       -0.5337516866  W2        1242            0.0000000000
      3725      1242  TIP3      H1             -9.1085984125      -12.0885499386       -0.5608216866  W2        1242            0.0000000000
      3726      1242  TIP3      H2             -7.7291784125      -12.6337599386       -0.8638716866  W2        1242            0.0000000000
      3727      1243  TIP3      OH2           -15.6369784125       -7.5285799386       -4.4008816866  W2        1243            0.0000000000
      3728      1243  TIP3      H1            -15.1097584125       -6.7551399386       -4.6010016866  W2        1243            0.0000000000
      3729      1243  TIP3      H2            -16.5171284125       -7.3036599386       -4.7024816866  W2        1243            0.0000000000
      3730      1244  TIP3      OH2           -19.8822084125      -12.6661699386       -9.8136416866  W2        1244            0.0000000000
      3731      1244  TIP3      H1            -19.2662184125      -12.0394499386       -9.4341616866  W2        1244            0.0000000000
      3732      1244  TIP3      H2            -20.7439484125      -12.3501899386       -9.5419916866  W2        1244            0.0000000000
      3733      1245  TIP3      OH2           -14.2097484125       -9.8655899386       -4.8244516866  W2        1245            0.0000000000
      3734      1245  TIP3      H1            -14.4507484125       -8.9401499386       -4.7829216866  W2        1245            0.0000000000
      3735      1245  TIP3      H2            -14.9503884125      -10.3244599386       -4.4280616866  W2        1245            0.0000000000
      3736      1246  TIP3      OH2           -13.6950884125       -5.7162299386        1.4906583134  W2        1246            0.0000000000
      3737      1246  TIP3      H1            -13.3326184125       -4.8616699386        1.2570983134  W2        1246            0.0000000000
      3738      1246  TIP3      H2            -13.1635684125       -6.0080699386        2.2312883134  W2        1246            0.0000000000
      3739      1247  TIP3      OH2           -15.5266684125       -4.8438299386       -5.2792316866  W2        1247            0.0000000000
      3740      1247  TIP3      H1            -16.4766184125       -4.7380899386       -5.2279016866  W2        1247            0.0000000000
      3741      1247  TIP3      H2            -15.1748584125       -4.0230899386       -4.9344816866  W2        1247            0.0000000000
      3742      1248  TIP3      OH2           -10.1510084125       -9.6171599386        1.1912183134  W2        1248            0.0000000000
      3743      1248  TIP3      H1            -10.5768784125       -9.8449899386        2.0176183134  W2        1248            0.0000000000
      3744      1248  TIP3      H2             -9.5704284125      -10.3559799386        1.0087483134  W2        1248            0.0000000000
      3745      1249  TIP3      OH2            -7.9481184125       -8.6881099386       -9.7348816866  W2        1249            0.0000000000
      3746      1249  TIP3      H1             -7.5948084125       -9.0681299386       -8.9305316866  W2        1249            0.0000000000
      3747      1249  TIP3      H2             -8.8967684125       -8.7816299386       -9.6479516866  W2        1249            0.0000000000
      3748      1250  TIP3      OH2            -7.4925884125       -5.0652099386        3.6606983134  W2        1250            0.0000000000
      3749      1250  TIP3      H1             -8.0942684125       -5.6209199386        3.1653283134  W2        1250            0.0000000000
      3750      1250  TIP3      H2             -7.2112184125       -4.3982299386        3.0344383134  W2        1250            0.0000000000
      3751      1251  TIP3      OH2            -3.4446784125       -4.2088599386       -9.5338616866  W2        1251            0.0000000000
      3752      1251  TIP3      H1             -2.7008884125       -3.6228099386       -9.6737016866  W2        1251            0.0000000000
      3753      1251  TIP3      H2             -4.1388684125       -3.6402799386       -9.2006216866  W2        1251            0.0000000000
      3754      1252  TIP3      OH2           -19.3699984125      -17.8324399386        3.0679583134  W2        1252            0.0000000000
      3755      1252  TIP3      H1            -20.2627684125      -17.4938999386        3.0003583134  W2        1252            0.0000000000
      3756      1252  TIP3      H2            -19.4687184125      -18.6878299386        3.4860383134  W2        1252            0.0000000000
      3757      1253  TIP3      OH2            -7.0821884125      -10.0159099386       -7.5080916866  W2        1253            0.0000000000
      3758      1253  TIP3      H1             -7.3594284125      -10.7439799386       -6.9519816866  W2        1253            0.0000000000
      3759      1253  TIP3      H2             -6.1548884125       -9.8967099386       -7.3028316866  W2        1253            0.0000000000
      3760      1254  TIP3      OH2           -19.7187984125       -6.0279999386        1.5028983134  W2        1254            0.0000000000
      3761      1254  TIP3      H1            -19.5017684125       -6.9597599386        1.4718683134  W2        1254            0.0000000000
      3762      1254  TIP3      H2            -19.4724484125       -5.7534999386        2.3861783134  W2        1254            0.0000000000
      3763      1255  TIP3      OH2           -13.8573384125       -7.5764999386      -11.2878816866  W2        1255            0.0000000000
      3764      1255  TIP3      H1            -13.6183584125       -8.3246899386      -11.8349916866  W2        1255            0.0000000000
      3765      1255  TIP3      H2            -14.1262084125       -7.9643299386      -10.4551016866  W2        1255            0.0000000000
      3766      1256  TIP3      OH2           -14.9202784125       -8.0061199386       -8.8316216866  W2        1256            0.0000000000
      3767      1256  TIP3      H1            -14.7734784125       -8.5261399386       -8.0415316866  W2        1256            0.0000000000
      3768      1256  TIP3      H2            -14.9231084125       -7.0993599386       -8.5250316866  W2        1256            0.0000000000
      3769      1257  TIP3      OH2           -18.4671684125      -10.7537899386       -8.3210816866  W2        1257            0.0000000000
      3770      1257  TIP3      H1            -19.1532384125      -10.4015399386       -7.7541116866  W2        1257            0.0000000000
      3771      1257  TIP3      H2            -17.9443784125       -9.9908299386       -8.5676516866  W2        1257            0.0000000000
      3772      1258  TIP3      OH2           -10.6356584125      -18.0914099386        1.9578183134  W2        1258            0.0000000000
      3773      1258  TIP3      H1             -9.9368684125      -18.0175399386        2.6077883134  W2        1258            0.0000000000
      3774      1258  TIP3      H2            -11.0165184125      -18.9559099386        2.1121083134  W2        1258            0.0000000000
      3775      1259  TIP3      OH2            -9.8511684125      -18.4392399386       -6.9449516866  W2        1259            0.0000000000
      3776      1259  TIP3      H1             -9.6313384125      -17.9676999386       -7.7484116866  W2        1259            0.0000000000
      3777      1259  TIP3      H2             -9.2927684125      -18.0449799386       -6.2748916866  W2        1259            0.0000000000
      3778      1260  TIP3      OH2           -12.1825584125       -6.3087599386       -8.0822016866  W2        1260            0.0000000000
      3779      1260  TIP3      H1            -12.9989484125       -5.8117899386       -8.0297716866  W2        1260            0.0000000000
      3780      1260  TIP3      H2            -11.6529284125       -5.8334099386       -8.7223216866  W2        1260            0.0000000000
      3781      1261  TIP3      OH2           -12.6511784125      -16.7113599386       -6.1101116866  W2        1261            0.0000000000
      3782      1261  TIP3      H1            -11.8389184125      -16.2070399386       -6.0639416866  W2        1261            0.0000000000
      3783      1261  TIP3      H2            -12.8958784125      -16.8563899386       -5.1961516866  W2        1261            0.0000000000
      3784      1262  TIP3      OH2           -12.1155384125      -15.7250899386        3.0745483134  W2        1262            0.0000000000
      3785      1262  TIP3      H1            -11.9965084125      -15.1515499386        3.8315883134  W2        1262            0.0000000000
      3786      1262  TIP3      H2            -11.4600784125      -16.4131499386        3.1893283134  W2        1262            0.0000000000
      3787      1263  TIP3      OH2           -11.7675084125      -19.6300599386       -5.1720016866  W2        1263            0.0000000000
      3788      1263  TIP3      H1            -12.1141584125      -19.0129999386       -4.5275716866  W2        1263            0.0000000000
      3789      1263  TIP3      H2            -11.1088184125      -19.1294899386       -5.6534516866  W2        1263            0.0000000000
      3790      1264  TIP3      OH2           -14.8442484125       -5.2650399386       -8.1005116866  W2        1264            0.0000000000
      3791      1264  TIP3      H1            -14.6833784125       -4.4652899386       -8.6012516866  W2        1264            0.0000000000
      3792      1264  TIP3      H2            -15.0414684125       -4.9584399386       -7.2154516866  W2        1264            0.0000000000
      3793      1265  TIP3      OH2           -16.1098084125      -18.5671199386       -8.4847516866  W2        1265            0.0000000000
      3794      1265  TIP3      H1            -16.1933284125      -17.6788099386       -8.1381116866  W2        1265            0.0000000000
      3795      1265  TIP3      H2            -15.2197784125      -18.8324499386       -8.2530716866  W2        1265            0.0000000000
      3796      1266  TIP3      OH2            -5.9109584125      -17.8180599386        3.9095183134  W2        1266            0.0000000000
      3797      1266  TIP3      H1             -6.8273784125      -17.5558899386        3.8218883134  W2        1266            0.0000000000
      3798      1266  TIP3      H2             -5.5754584125      -17.8211599386        3.0130483134  W2        1266            0.0000000000
      3799      1267  TIP3      OH2            -7.3088584125      -14.0679599386       -1.9947516866  W2        1267            0.0000000000
      3800      1267  TIP3      H1             -8.1064184125      -14.4829399386       -2.3232516866  W2        1267            0.0000000000
      3801      1267  TIP3      H2             -6.8637484125      -14.7585899386       -1.5037016866  W2        1267            0.0000000000
      3802      1268  TIP3      OH2           -17.8512784125       -8.1398999386       -9.4243016866  W2        1268            0.0000000000
      3803      1268  TIP3      H1            -17.2591284125       -7.4404199386       -9.1480616866  W2        1268            0.0000000000
      3804      1268  TIP3      H2            -17.3919784125       -8.5729499386      -10.1438416866  W2        1268            0.0000000000
      3805      1269  TIP3      OH2           -19.5353584125      -15.4755999386      -10.3083616866  W2        1269            0.0000000000
      3806      1269  TIP3      H1            -19.5800984125      -14.5362899386      -10.1296616866  W2        1269            0.0000000000
      3807      1269  TIP3      H2            -20.4230384125      -15.7111099386      -10.5781516866  W2        1269            0.0000000000
      3808      1270  TIP3      OH2            -6.2223984125       -4.8117099386       -0.3724016866  W2        1270            0.0000000000
      3809      1270  TIP3      H1             -6.3779684125       -4.1332699386       -1.0294716866  W2        1270            0.0000000000
      3810      1270  TIP3      H2             -5.2897584125       -4.7397799386       -0.1693416866  W2        1270            0.0000000000
      3811      1271  TIP3      OH2           -18.7271584125      -20.6939399386       -1.6352616866  W2        1271            0.0000000000
      3812      1271  TIP3      H1            -18.9561784125      -20.6346899386       -2.5627616866  W2        1271            0.0000000000
      3813      1271  TIP3      H2            -19.1698184125      -21.4853899386       -1.3288516866  W2        1271            0.0000000000
      3814      1272  TIP3      OH2           -19.7968284125       -6.7532299386       -5.4746816866  W2        1272            0.0000000000
      3815      1272  TIP3      H1            -20.6289684125       -6.2809599386       -5.4475416866  W2        1272            0.0000000000
      3816      1272  TIP3      H2            -19.2509984125       -6.2434699386       -6.0733716866  W2        1272            0.0000000000
      3817      1273  TIP3      OH2           -20.5084584125       -4.1408599386        5.8551183134  W2        1273            0.0000000000
      3818      1273  TIP3      H1            -19.9682384125       -4.3574599386        6.6150383134  W2        1273            0.0000000000
      3819      1273  TIP3      H2            -20.9896584125       -4.9462599386        5.6653683134  W2        1273            0.0000000000
      3820      1274  TIP3      OH2           -15.9111184125       -5.2214199386        7.4755383134  W2        1274            0.0000000000
      3821      1274  TIP3      H1            -15.1433984125       -5.6803399386        7.8164583134  W2        1274            0.0000000000
      3822      1274  TIP3      H2            -15.9324984125       -5.4474399386        6.5456583134  W2        1274            0.0000000000
      3823      1275  TIP3      OH2           -11.8191584125       -5.7133599386      -11.1492816866  W2        1275            0.0000000000
      3824      1275  TIP3      H1            -12.4630584125       -6.3444999386      -10.8279116866  W2        1275            0.0000000000
      3825      1275  TIP3      H2            -11.0573284125       -6.2445599386      -11.3809316866  W2        1275            0.0000000000
      3826      1276  TIP3      OH2            -9.3342484125       -6.8413099386        6.2046883134  W2        1276            0.0000000000
      3827      1276  TIP3      H1             -9.6852984125       -7.6980099386        6.4477283134  W2        1276            0.0000000000
      3828      1276  TIP3      H2             -8.6079284125       -6.6986399386        6.8115883134  W2        1276            0.0000000000
      3829      1277  TIP3      OH2            -7.2148684125       -5.8963699386      -10.9154816866  W2        1277            0.0000000000
      3830      1277  TIP3      H1             -6.9318284125       -6.6908499386      -10.4627916866  W2        1277            0.0000000000
      3831      1277  TIP3      H2             -6.4750784125       -5.6632699386      -11.4763716866  W2        1277            0.0000000000
      3832      1278  TIP3      OH2           -20.6015084125      -10.3304499386        6.8095483134  W2        1278            0.0000000000
      3833      1278  TIP3      H1            -20.4574584125      -11.2323799386        6.5232183134  W2        1278            0.0000000000
      3834      1278  TIP3      H2            -21.3737684125      -10.0442399386        6.3217783134  W2        1278            0.0000000000
      3835      1279  TIP3      OH2           -16.2601384125       -9.9868799386      -11.0579916866  W2        1279            0.0000000000
      3836      1279  TIP3      H1            -16.1957284125      -10.7809199386      -10.5273516866  W2        1279            0.0000000000
      3837      1279  TIP3      H2            -15.6072184125      -10.1055999386      -11.7477916866  W2        1279            0.0000000000
      3838      1280  TIP3      OH2           -13.9458984125      -10.3606399386        6.2421883134  W2        1280            0.0000000000
      3839      1280  TIP3      H1            -14.2745184125      -10.0898299386        5.3849283134  W2        1280            0.0000000000
      3840      1280  TIP3      H2            -13.7940784125      -11.3016599386        6.1546883134  W2        1280            0.0000000000
      3841      1281  TIP3      OH2           -10.9077984125       -8.9397099386      -11.3221916866  W2        1281            0.0000000000
      3842      1281  TIP3      H1            -11.1763884125       -8.7594999386      -10.4213016866  W2        1281            0.0000000000
      3843      1281  TIP3      H2            -11.1142384125       -9.8650899386      -11.4536116866  W2        1281            0.0000000000
      3844      1282  TIP3      OH2            -8.2113784125      -10.4449099386        3.6254183134  W2        1282            0.0000000000
      3845      1282  TIP3      H1             -7.4658984125       -9.8565399386        3.5058183134  W2        1282            0.0000000000
      3846      1282  TIP3      H2             -8.9686984125       -9.8629399386        3.6887283134  W2        1282            0.0000000000
      3847      1283  TIP3      OH2           -19.7688584125      -13.1301199386        6.2294783134  W2        1283            0.0000000000
      3848      1283  TIP3      H1            -19.3607384125      -13.9874599386        6.1085383134  W2        1283            0.0000000000
      3849      1283  TIP3      H2            -20.0290984125      -13.1159899386        7.1505083134  W2        1283            0.0000000000
      3850      1284  TIP3      OH2           -15.1107584125      -12.0142599386       -8.7521916866  W2        1284            0.0000000000
      3851      1284  TIP3      H1            -15.5705584125      -12.4984299386       -8.0663416866  W2        1284            0.0000000000
      3852      1284  TIP3      H2            -14.8558884125      -12.6827199386       -9.3881416866  W2        1284            0.0000000000
      3853      1285  TIP3      OH2           -15.8218284125      -14.1215499386        3.6037683134  W2        1285            0.0000000000
      3854      1285  TIP3      H1            -16.4402184125      -13.4468899386        3.8842383134  W2        1285            0.0000000000
      3855      1285  TIP3      H2            -15.4777084125      -13.8001599386        2.7703883134  W2        1285            0.0000000000
      3856      1286  TIP3      OH2           -14.0397184125      -13.7710799386      -10.4898716866  W2        1286            0.0000000000
      3857      1286  TIP3      H1            -14.2202184125      -13.9259599386      -11.4170416866  W2        1286            0.0000000000
      3858      1286  TIP3      H2            -13.0896684125      -13.6632099386      -10.4450816866  W2        1286            0.0000000000
      3859      1287  TIP3      OH2           -10.8020084125      -11.6500199386        6.8812483134  W2        1287            0.0000000000
      3860      1287  TIP3      H1             -9.8488884125      -11.5661099386        6.8538483134  W2        1287            0.0000000000
      3861      1287  TIP3      H2            -10.9625484125      -12.3618399386        7.5007383134  W2        1287            0.0000000000
      3862      1288  TIP3      OH2            -4.6498884125      -11.4166599386      -11.0440616866  W2        1288            0.0000000000
      3863      1288  TIP3      H1             -4.9234084125      -11.8411099386      -11.8572316866  W2        1288            0.0000000000
      3864      1288  TIP3      H2             -4.6104784125      -10.4852099386      -11.2610216866  W2        1288            0.0000000000
      3865      1289  TIP3      OH2           -15.4824584125      -16.7664699386        4.6860783134  W2        1289            0.0000000000
      3866      1289  TIP3      H1            -15.3323684125      -17.4953399386        4.0840483134  W2        1289            0.0000000000
      3867      1289  TIP3      H2            -15.4802184125      -15.9892999386        4.1272983134  W2        1289            0.0000000000
      3868      1290  TIP3      OH2           -15.0698884125      -18.3968899386        2.1788183134  W2        1290            0.0000000000
      3869      1290  TIP3      H1            -14.5341384125      -17.9452199386        1.5267483134  W2        1290            0.0000000000
      3870      1290  TIP3      H2            -15.9219284125      -18.5049099386        1.7562283134  W2        1290            0.0000000000
      3871      1291  TIP3      OH2           -13.4880484125      -12.9572699386        2.4183383134  W2        1291            0.0000000000
      3872      1291  TIP3      H1            -12.7375684125      -13.1135199386        1.8451183134  W2        1291            0.0000000000
      3873      1291  TIP3      H2            -13.8272184125      -12.1056099386        2.1428883134  W2        1291            0.0000000000
      3874      1292  TIP3      OH2            -9.0724284125      -15.1420899386        7.4468683134  W2        1292            0.0000000000
      3875      1292  TIP3      H1             -8.8802984125      -16.0731499386        7.3353183134  W2        1292            0.0000000000
      3876      1292  TIP3      H2             -8.2147984125      -14.7171399386        7.4364083134  W2        1292            0.0000000000
      3877      1293  TIP3      OH2            -7.7557084125      -12.3535699386        5.5241383134  W2        1293            0.0000000000
      3878      1293  TIP3      H1             -8.0372084125      -11.6441099386        4.9465183134  W2        1293            0.0000000000
      3879      1293  TIP3      H2             -6.8132784125      -12.4262699386        5.3732583134  W2        1293            0.0000000000
      3880      1294  TIP3      OH2           -17.0038284125      -15.5681199386        6.5976383134  W2        1294            0.0000000000
      3881      1294  TIP3      H1            -17.7709284125      -16.1006399386        6.3873983134  W2        1294            0.0000000000
      3882      1294  TIP3      H2            -16.3249284125      -15.8780799386        5.9982683134  W2        1294            0.0000000000
      3883      1295  TIP3      OH2           -14.2643384125      -20.9403199386        2.6101783134  W2        1295            0.0000000000
      3884      1295  TIP3      H1            -14.3623784125      -19.9939999386        2.5047983134  W2        1295            0.0000000000
      3885      1295  TIP3      H2            -15.0067184125      -21.3129399386        2.1345283134  W2        1295            0.0000000000
      3886      1296  TIP3      OH2           -13.0002884125      -16.6187799386        6.1740183134  W2        1296            0.0000000000
      3887      1296  TIP3      H1            -13.2357484125      -16.8381099386        7.0755083134  W2        1296            0.0000000000
      3888      1296  TIP3      H2            -13.7835984125      -16.8256599386        5.6642683134  W2        1296            0.0000000000
      3889      1297  TIP3      OH2           -10.2846284125      -17.4914299386        5.2493683134  W2        1297            0.0000000000
      3890      1297  TIP3      H1            -11.2320884125      -17.4594599386        5.3816983134  W2        1297            0.0000000000
      3891      1297  TIP3      H2             -9.9719584125      -18.1167199386        5.9031883134  W2        1297            0.0000000000
      3892      1298  TIP3      OH2            -8.6504784125      -18.8573199386        7.2545583134  W2        1298            0.0000000000
      3893      1298  TIP3      H1             -8.7472984125      -19.8095899386        7.2487483134  W2        1298            0.0000000000
      3894      1298  TIP3      H2             -8.9721684125      -18.5886399386        8.1151083134  W2        1298            0.0000000000
      3895      1299  TIP3      OH2           -18.8235484125      -17.6477399386        6.3021083134  W2        1299            0.0000000000
      3896      1299  TIP3      H1            -18.6118084125      -18.3541299386        5.6918583134  W2        1299            0.0000000000
      3897      1299  TIP3      H2            -18.9347984125      -18.0851399386        7.1462283134  W2        1299            0.0000000000
      3898      1300  TIP3      OH2           -14.0425284125      -21.6465799386        5.2814583134  W2        1300            0.0000000000
      3899      1300  TIP3      H1            -13.3306884125      -22.2863599386        5.2673683134  W2        1300            0.0000000000
      3900      1300  TIP3      H2            -14.1434884125      -21.3797499386        4.3677683134  W2        1300            0.0000000000
      3901      1301  TIP3      OH2           -13.6887784125      -19.9637399386        7.3350883134  W2        1301            0.0000000000
      3902      1301  TIP3      H1            -13.8205584125      -20.4393599386        6.5149383134  W2        1301            0.0000000000
      3903      1301  TIP3      H2            -14.2880384125      -19.2193799386        7.2797983134  W2        1301            0.0000000000
      3904      1302  TIP3      OH2           -14.1425484125       -3.0807099386       -9.4885116866  W2        1302            0.0000000000
      3905      1302  TIP3      H1            -13.2094784125       -2.9228399386       -9.3446716866  W2        1302            0.0000000000
      3906      1302  TIP3      H2            -14.4066684125       -2.4054099386      -10.1133616866  W2        1302            0.0000000000
      3907      1303  TIP3      OH2           -20.5740584125       -8.4443299386      -10.0057016866  W2        1303            0.0000000000
      3908      1303  TIP3      H1            -19.6601384125       -8.3654399386       -9.7323116866  W2        1303            0.0000000000
      3909      1303  TIP3      H2            -20.5667484125       -9.1313699386      -10.6721416866  W2        1303            0.0000000000
      3910      1304  TIP3      OH2           -21.9249984125       -3.0514799386       -4.9283116866  W2        1304            0.0000000000
      3911      1304  TIP3      H1            -22.5722884125       -3.5133099386       -5.4611916866  W2        1304            0.0000000000
      3912      1304  TIP3      H2            -21.5705384125       -3.7231499386       -4.3456916866  W2        1304            0.0000000000
      3913      1305  TIP3      OH2           -21.0550784125       -4.9707799386       -3.1236916866  W2        1305            0.0000000000
      3914      1305  TIP3      H1            -21.3893984125       -5.8510499386       -2.9516716866  W2        1305            0.0000000000
      3915      1305  TIP3      H2            -20.8328384125       -4.6252799386       -2.2591316866  W2        1305            0.0000000000
      3916      1306  TIP3      OH2            -3.5065984125       -4.1611399386       -0.1432116866  W2        1306            0.0000000000
      3917      1306  TIP3      H1             -3.5279284125       -3.9762999386        0.7957283134  W2        1306            0.0000000000
      3918      1306  TIP3      H2             -2.8159784125       -3.5927399386       -0.4840716866  W2        1306            0.0000000000
      3919      1307  TIP3      OH2            -3.9433084125       -4.5940299386        2.7786983134  W2        1307            0.0000000000
      3920      1307  TIP3      H1             -4.4304384125       -5.3296199386        2.4074383134  W2        1307            0.0000000000
      3921      1307  TIP3      H2             -3.3940384125       -4.9876399386        3.4566383134  W2        1307            0.0000000000
      3922      1308  TIP3      OH2            -5.4925784125       -8.8042199386        7.4167283134  W2        1308            0.0000000000
      3923      1308  TIP3      H1             -6.3584684125       -8.9092499386        7.8109583134  W2        1308            0.0000000000
      3924      1308  TIP3      H2             -5.1159884125       -8.0458899386        7.8631983134  W2        1308            0.0000000000
      3925      1309  TIP3      OH2            -4.1916084125      -10.5478499386       -7.0690216866  W2        1309            0.0000000000
      3926      1309  TIP3      H1             -3.3414684125      -10.1267599386       -6.9418616866  W2        1309            0.0000000000
      3927      1309  TIP3      H2             -4.1860984125      -11.2878399386       -6.4618816866  W2        1309            0.0000000000
      3928      1310  TIP3      OH2            -3.7970484125      -12.4941099386       -5.2454516866  W2        1310            0.0000000000
      3929      1310  TIP3      H1             -4.5235884125      -12.9738499386       -4.8476916866  W2        1310            0.0000000000
      3930      1310  TIP3      H2             -3.2157184125      -12.2886399386       -4.5132916866  W2        1310            0.0000000000
      3931      1311  TIP3      OH2            -4.0379284125       -9.7093599386       -0.2976916866  W2        1311            0.0000000000
      3932      1311  TIP3      H1             -3.2045084125      -10.0873599386       -0.5783316866  W2        1311            0.0000000000
      3933      1311  TIP3      H2             -3.9258984125       -8.7662399386       -0.4167816866  W2        1311            0.0000000000
      3934      1312  TIP3      OH2            -5.5516984125       -6.8316099386        2.0091483134  W2        1312            0.0000000000
      3935      1312  TIP3      H1             -6.1991684125       -6.5064599386        2.6346683134  W2        1312            0.0000000000
      3936      1312  TIP3      H2             -6.0692984125       -7.2718399386        1.3349783134  W2        1312            0.0000000000
      3937      1313  TIP3      OH2            -3.5287384125      -12.5932599386       -8.8543216866  W2        1313            0.0000000000
      3938      1313  TIP3      H1             -4.0506284125      -12.2368499386       -9.5732316866  W2        1313            0.0000000000
      3939      1313  TIP3      H2             -3.5618184125      -11.9184799386       -8.1762316866  W2        1313            0.0000000000
      3940      1314  TIP3      OH2            -5.1798384125      -15.3536999386      -10.3036116866  W2        1314            0.0000000000
      3941      1314  TIP3      H1             -5.0833984125      -14.6869999386      -10.9836416866  W2        1314            0.0000000000
      3942      1314  TIP3      H2             -5.3198784125      -16.1690699386      -10.7850616866  W2        1314            0.0000000000
      3943      1315  TIP3      OH2            -6.0103684125      -13.9734599386       -4.6825816866  W2        1315            0.0000000000
      3944      1315  TIP3      H1             -6.1604884125      -14.9185999386       -4.7028016866  W2        1315            0.0000000000
      3945      1315  TIP3      H2             -6.3639184125      -13.6923199386       -3.8386716866  W2        1315            0.0000000000
      3946      1316  TIP3      OH2           -20.9751284125      -11.8952399386       -0.6722016866  W2        1316            0.0000000000
      3947      1316  TIP3      H1            -20.7908384125      -11.9770699386       -1.6079116866  W2        1316            0.0000000000
      3948      1316  TIP3      H2            -20.1258384125      -12.0195399386       -0.2485616866  W2        1316            0.0000000000
      3949      1317  TIP3      OH2            -5.1540784125      -12.0031299386        4.9562483134  W2        1317            0.0000000000
      3950      1317  TIP3      H1             -4.5713484125      -12.7378999386        5.1479683134  W2        1317            0.0000000000
      3951      1317  TIP3      H2             -4.5901484125      -11.2310999386        5.0028283134  W2        1317            0.0000000000
      3952      1318  TIP3      OH2            -3.6573684125      -14.1005499386        5.6407883134  W2        1318            0.0000000000
      3953      1318  TIP3      H1             -4.5206984125      -14.4793399386        5.4752583134  W2        1318            0.0000000000
      3954      1318  TIP3      H2             -3.0529984125      -14.8390699386        5.5663683134  W2        1318            0.0000000000
      3955      1319  TIP3      OH2            -5.9324584125      -17.9457199386      -11.1860616866  W2        1319            0.0000000000
      3956      1319  TIP3      H1             -5.3218784125      -18.3170399386      -10.5492416866  W2        1319            0.0000000000
      3957      1319  TIP3      H2             -6.7693084125      -18.3670299386      -10.9900616866  W2        1319            0.0000000000
      3958      1320  TIP3      OH2            -6.2998884125      -16.3908799386       -6.2200716866  W2        1320            0.0000000000
      3959      1320  TIP3      H1             -6.0201784125      -17.2978399386       -6.0959016866  W2        1320            0.0000000000
      3960      1320  TIP3      H2             -5.5407184125      -15.9567299386       -6.6091516866  W2        1320            0.0000000000
      3961      1321  TIP3      OH2            -5.6880584125      -15.8091399386       -0.7841816866  W2        1321            0.0000000000
      3962      1321  TIP3      H1             -4.7552584125      -15.5971499386       -0.8185816866  W2        1321            0.0000000000
      3963      1321  TIP3      H2             -5.9233084125      -15.7079299386        0.1381183134  W2        1321            0.0000000000
      3964      1322  TIP3      OH2            -5.6588684125      -15.0726099386        1.9917583134  W2        1322            0.0000000000
      3965      1322  TIP3      H1             -6.5017384125      -14.8045699386        2.3577383134  W2        1322            0.0000000000
      3966      1322  TIP3      H2             -5.2164384125      -14.2504199386        1.7808683134  W2        1322            0.0000000000
      3967      1323  TIP3      OH2           -21.3776484125      -16.6247399386        5.4686783134  W2        1323            0.0000000000
      3968      1323  TIP3      H1            -20.4581584125      -16.7469099386        5.7049883134  W2        1323            0.0000000000
      3969      1323  TIP3      H2            -21.8271984125      -17.3747699386        5.8580283134  W2        1323            0.0000000000
      3970      1324  TIP3      OH2            -3.3757084125      -21.0925899386        7.3452583134  W2        1324            0.0000000000
      3971      1324  TIP3      H1             -3.0260084125      -21.7462399386        6.7397283134  W2        1324            0.0000000000
      3972      1324  TIP3      H2             -3.2287584125      -20.2551799386        6.9055183134  W2        1324            0.0000000000
      3973      1325  TIP3      OH2            -5.6864084125      -19.1279499386       -6.1718716866  W2        1325            0.0000000000
      3974      1325  TIP3      H1             -5.5039084125      -19.5767999386       -5.3463716866  W2        1325            0.0000000000
      3975      1325  TIP3      H2             -6.2861184125      -19.7125099386       -6.6354116866  W2        1325            0.0000000000
      3976      1326  TIP3      OH2           -20.1563984125      -18.3125799386       -1.6400316866  W2        1326            0.0000000000
      3977      1326  TIP3      H1            -19.7112384125      -19.1043299386       -1.3380616866  W2        1326            0.0000000000
      3978      1326  TIP3      H2            -19.6900984125      -17.5960599386       -1.2094716866  W2        1326            0.0000000000
      3979      1327  TIP3      OH2           -21.8523684125      -15.3132799386       -0.5710116866  W2        1327            0.0000000000
      3980      1327  TIP3      H1            -21.3603884125      -15.5342299386       -1.3618116866  W2        1327            0.0000000000
      3981      1327  TIP3      H2            -21.4902784125      -14.4729399386       -0.2900616866  W2        1327            0.0000000000
      3982      1328  TIP3      OH2            -3.8559884125      -18.9831299386        5.6943883134  W2        1328            0.0000000000
      3983      1328  TIP3      H1             -4.7734184125      -18.7124199386        5.6587383134  W2        1328            0.0000000000
      3984      1328  TIP3      H2             -3.7330484125      -19.5182899386        4.9103583134  W2        1328            0.0000000000
      3985      1329  TIP3      OH2            -3.8197884125      -19.0601399386       -9.6438416866  W2        1329            0.0000000000
      3986      1329  TIP3      H1             -3.4075284125      -19.7815699386      -10.1190416866  W2        1329            0.0000000000
      3987      1329  TIP3      H2             -3.1381384125      -18.3906799386       -9.5854116866  W2        1329            0.0000000000
      3988      1330  TIP3      OH2           -21.5387184125      -19.0553699386       -6.5167716866  W2        1330            0.0000000000
      3989      1330  TIP3      H1            -22.4638784125      -18.8467099386       -6.6462216866  W2        1330            0.0000000000
      3990      1330  TIP3      H2            -21.0847284125      -18.5712899386       -7.2065416866  W2        1330            0.0000000000
      3991      1331  TIP3      OH2            -6.7679984125       -4.0711999386       -4.5710316866  W2        1331            0.0000000000
      3992      1331  TIP3      H1             -6.1157084125       -4.4189899386       -5.1791216866  W2        1331            0.0000000000
      3993      1331  TIP3      H2             -6.2576184125       -3.5828799386       -3.9250616866  W2        1331            0.0000000000
      3994      1332  TIP3      OH2           -21.5751784125      -20.3174699386        1.8274783134  W2        1332            0.0000000000
      3995      1332  TIP3      H1            -22.2401284125      -20.5634399386        2.4705683134  W2        1332            0.0000000000
      3996      1332  TIP3      H2            -22.0180484125      -19.6954299386        1.2502783134  W2        1332            0.0000000000
      3997      1333  TIP3      OH2           -19.3832484125       -7.1420599386        5.9720583134  W2        1333            0.0000000000
      3998      1333  TIP3      H1            -20.2039984125       -6.9674099386        5.5115283134  W2        1333            0.0000000000
      3999      1333  TIP3      H2            -19.6354684125       -7.2155899386        6.8924983134  W2        1333            0.0000000000
      4000      1334  TIP3      OH2           -16.4289584125       -6.1679399386        2.2304583134  W2        1334            0.0000000000
      4001      1334  TIP3      H1            -16.8538484125       -5.3580899386        1.9479183134  W2        1334            0.0000000000
      4002      1334  TIP3      H2            -15.5246784125       -6.0825299386        1.9284383134  W2        1334            0.0000000000
      4003      1335  TIP3      OH2           -12.1178184125       -4.7689399386        5.1898283134  W2        1335            0.0000000000
      4004      1335  TIP3      H1            -11.9330684125       -5.1023299386        6.0678583134  W2        1335            0.0000000000
      4005      1335  TIP3      H2            -11.2713684125       -4.4590799386        4.8677483134  W2        1335            0.0000000000
      4006      1336  TIP3      OH2            -9.7727784125       -3.4830499386        4.4339683134  W2        1336            0.0000000000
      4007      1336  TIP3      H1             -9.0958884125       -4.1158199386        4.1938883134  W2        1336            0.0000000000
      4008      1336  TIP3      H2             -9.4508984125       -3.0819999386        5.2412983134  W2        1336            0.0000000000
      4009      1337  TIP3      OH2            -4.8553984125      -20.8934999386        3.5134683134  W2        1337            0.0000000000
      4010      1337  TIP3      H1             -5.6680484125      -20.5684699386        3.1259383134  W2        1337            0.0000000000
      4011      1337  TIP3      H2             -4.6225484125      -21.6536499386        2.9803783134  W2        1337            0.0000000000
      4012      1338  TIP3      OH2           -19.0272884125       -2.9115499386        2.2779883134  W2        1338            0.0000000000
      4013      1338  TIP3      H1            -19.7476484125       -2.4714499386        1.8267583134  W2        1338            0.0000000000
      4014      1338  TIP3      H2            -19.3928884125       -3.1620799386        3.1263883134  W2        1338            0.0000000000
      4015      1339  TIP3      OH2           -16.5600284125       -3.3111599386        1.3077083134  W2        1339            0.0000000000
      4016      1339  TIP3      H1            -17.4248084125       -3.2393099386        1.7117183134  W2        1339            0.0000000000
      4017      1339  TIP3      H2            -16.6151284125       -2.7644299386        0.5239583134  W2        1339            0.0000000000
      4018      1340  TIP3      OH2           -11.8494684125       -3.4232699386        0.4833083134  W2        1340            0.0000000000
      4019      1340  TIP3      H1            -12.3060684125       -2.8942999386       -0.1708516866  W2        1340            0.0000000000
      4020      1340  TIP3      H2            -11.6866684125       -2.8201299386        1.2085383134  W2        1340            0.0000000000
      4021      1341  TIP3      OH2            -9.5218384125       -4.5453099386        1.4283383134  W2        1341            0.0000000000
      4022      1341  TIP3      H1            -10.4264684125       -4.3802899386        1.1625483134  W2        1341            0.0000000000
      4023      1341  TIP3      H2             -9.0929784125       -3.6920899386        1.3626783134  W2        1341            0.0000000000
      4024      1342  TIP3      OH2            -6.9176484125       -2.9753999386        1.7231183134  W2        1342            0.0000000000
      4025      1342  TIP3      H1             -7.0994484125       -2.0595099386        1.5126083134  W2        1342            0.0000000000
      4026      1342  TIP3      H2             -6.7408684125       -3.3856899386        0.8765783134  W2        1342            0.0000000000
      4027      1343  TIP3      OH2           -19.6124784125       -4.2882999386       -0.8118316866  W2        1343            0.0000000000
      4028      1343  TIP3      H1            -19.6308784125       -4.7137899386        0.0453983134  W2        1343            0.0000000000
      4029      1343  TIP3      H2            -18.8076884125       -4.6067999386       -1.2206116866  W2        1343            0.0000000000
      4030      1344  TIP3      OH2           -17.4711684125       -5.5784299386       -2.1568416866  W2        1344            0.0000000000
      4031      1344  TIP3      H1            -17.6900984125       -6.4946899386       -1.9872416866  W2        1344            0.0000000000
      4032      1344  TIP3      H2            -16.6469484125       -5.4383899386       -1.6907016866  W2        1344            0.0000000000
      4033      1345  TIP3      OH2           -14.9339184125       -5.1084999386       -1.3080416866  W2        1345            0.0000000000
      4034      1345  TIP3      H1            -14.7213484125       -5.9965999386       -1.5949516866  W2        1345            0.0000000000
      4035      1345  TIP3      H2            -14.8694084125       -5.1427299386       -0.3536416866  W2        1345            0.0000000000
      4036      1346  TIP3      OH2           -11.4255484125      -19.4444399386       -2.1637116866  W2        1346            0.0000000000
      4037      1346  TIP3      H1            -12.0998684125      -20.0738799386       -1.9081316866  W2        1346            0.0000000000
      4038      1346  TIP3      H2            -10.8616284125      -19.9285499386       -2.7669216866  W2        1346            0.0000000000
      4039      1347  TIP3      OH2            -6.2828284125      -21.3370399386       -2.0510016866  W2        1347            0.0000000000
      4040      1347  TIP3      H1             -5.6790684125      -20.7894999386       -2.5529016866  W2        1347            0.0000000000
      4041      1347  TIP3      H2             -7.1526284125      -21.0179999386       -2.2915916866  W2        1347            0.0000000000
      4042      1348  TIP3      OH2            -4.5557884125      -20.1981699386       -3.7179116866  W2        1348            0.0000000000
      4043      1348  TIP3      H1             -3.9440384125      -20.7125999386       -4.2445516866  W2        1348            0.0000000000
      4044      1348  TIP3      H2             -4.1734484125      -19.3209599386       -3.6944716866  W2        1348            0.0000000000
      4045      1349  TIP3      OH2           -19.0987984125      -20.8104099386       -4.3417216866  W2        1349            0.0000000000
      4046      1349  TIP3      H1            -19.8758184125      -21.0449199386       -4.8491316866  W2        1349            0.0000000000
      4047      1349  TIP3      H2            -18.5684384125      -21.6071999386       -4.3329216866  W2        1349            0.0000000000
      4048      1350  TIP3      OH2           -20.2624584125      -21.0125999386       -8.5381116866  W2        1350            0.0000000000
      4049      1350  TIP3      H1            -19.8233884125      -20.4015499386       -9.1297616866  W2        1350            0.0000000000
      4050      1350  TIP3      H2            -20.8962184125      -20.4741899386       -8.0641116866  W2        1350            0.0000000000
      4051      1351  TIP3      OH2           -14.5195384125      -20.8836999386       -4.5284116866  W2        1351            0.0000000000
      4052      1351  TIP3      H1            -13.6451984125      -20.4952699386       -4.5579816866  W2        1351            0.0000000000
      4053      1351  TIP3      H2            -14.6554584125      -21.0989199386       -3.6056916866  W2        1351            0.0000000000
      4054      1352  TIP3      OH2            -8.9626984125      -20.8537199386       -2.8792416866  W2        1352            0.0000000000
      4055      1352  TIP3      H1             -8.8865384125      -20.7585599386       -3.8286416866  W2        1352            0.0000000000
      4056      1352  TIP3      H2             -9.2377784125      -21.7614299386       -2.7503316866  W2        1352            0.0000000000
      4057      1353  TIP3      OH2            -7.6094384125      -20.8279399386       -7.1867416866  W2        1353            0.0000000000
      4058      1353  TIP3      H1             -8.3123284125      -20.2130199386       -7.3966016866  W2        1353            0.0000000000
      4059      1353  TIP3      H2             -8.0542984125      -21.6652699386       -7.0556516866  W2        1353            0.0000000000
      4060      1354  TIP3      OH2           -20.3615084125       -5.0643799386       -7.6406016866  W2        1354            0.0000000000
      4061      1354  TIP3      H1            -21.0465184125       -5.1024899386       -8.3080916866  W2        1354            0.0000000000
      4062      1354  TIP3      H2            -20.3577884125       -4.1516199386       -7.3523916866  W2        1354            0.0000000000
      4063      1355  TIP3      OH2           -18.4015484125      -19.0964499386      -10.0957016866  W2        1355            0.0000000000
      4064      1355  TIP3      H1            -17.9102084125      -19.7262099386      -10.6231516866  W2        1355            0.0000000000
      4065      1355  TIP3      H2            -17.7779184125      -18.8005099386       -9.4325816866  W2        1355            0.0000000000
      4066      1356  TIP3      OH2           -13.3755384125      -18.8032999386       -7.6386516866  W2        1356            0.0000000000
      4067      1356  TIP3      H1            -13.1974084125      -19.4499799386       -6.9557916866  W2        1356            0.0000000000
      4068      1356  TIP3      H2            -13.4289184125      -17.9695299386       -7.1715416866  W2        1356            0.0000000000
      4069      1357  TIP3      OH2           -11.4971584125       -3.8548899386       -9.2429816866  W2        1357            0.0000000000
      4070      1357  TIP3      H1            -10.6311384125       -3.4881499386       -9.4211616866  W2        1357            0.0000000000
      4071      1357  TIP3      H2            -11.7438784125       -4.2940899386      -10.0569016866  W2        1357            0.0000000000
      4072      1358  TIP3      OH2            -4.7881984125       -4.2918599386       -6.5638716866  W2        1358            0.0000000000
      4073      1358  TIP3      H1             -4.9824884125       -5.0396499386       -7.1289116866  W2        1358            0.0000000000
      4074      1358  TIP3      H2             -4.8271884125       -3.5338499386       -7.1470816866  W2        1358            0.0000000000
      4075      1359  TIP3      OH2           -19.1409984125      -20.2962199386        5.1758983134  W2        1359            0.0000000000
      4076      1359  TIP3      H1            -19.5071784125      -21.0619599386        5.6183683134  W2        1359            0.0000000000
      4077      1359  TIP3      H2            -18.2281484125      -20.2671999386        5.4624083134  W2        1359            0.0000000000
      4078      1360  TIP3      OH2           -17.1679184125      -20.9457799386        6.7116083134  W2        1360            0.0000000000
      4079      1360  TIP3      H1            -16.2695584125      -21.2197599386        6.5269483134  W2        1360            0.0000000000
      4080      1360  TIP3      H2            -17.5546084125      -21.6881799386        7.1758683134  W2        1360            0.0000000000
      4081      1361  TIP3      OH2           -18.5433884125       -4.1442999386      -10.6153916866  W2        1361            0.0000000000
      4082      1361  TIP3      H1            -18.8109284125       -3.8580099386       -9.7420816866  W2        1361            0.0000000000
      4083      1361  TIP3      H2            -17.7721284125       -4.6903799386      -10.4631416866  W2        1361            0.0000000000
      4084      1362  TIP3      OH2            -8.7466884125      -21.6132499386        6.8938883134  W2        1362            0.0000000000
      4085      1362  TIP3      H1             -8.6699684125      -22.0391799386        7.7476583134  W2        1362            0.0000000000
      4086      1362  TIP3      H2             -7.8530284125      -21.5997799386        6.5512383134  W2        1362            0.0000000000
      4087      1363  TIP3      OH2            -5.5705784125       -5.5406199386        5.5863083134  W2        1363            0.0000000000
      4088      1363  TIP3      H1             -6.3523884125       -5.7268199386        5.0663683134  W2        1363            0.0000000000
      4089      1363  TIP3      H2             -5.6425884125       -4.6111899386        5.8035583134  W2        1363            0.0000000000
      4090      1364  TIP3      OH2             8.8354615875      -11.6541799386       -4.3829716866  W2        1364            0.0000000000
      4091      1364  TIP3      H1              8.9245715875      -10.7103599386       -4.5152616866  W2        1364            0.0000000000
      4092      1364  TIP3      H2              8.1972215875      -11.9295399386       -5.0410316866  W2        1364            0.0000000000
      4093      1365  TIP3      OH2             7.7685915875      -12.3991099386       -0.9641516866  W2        1365            0.0000000000
      4094      1365  TIP3      H1              7.7303415875      -13.0454799386       -0.2591916866  W2        1365            0.0000000000
      4095      1365  TIP3      H2              7.4462415875      -12.8656699386       -1.7352816866  W2        1365            0.0000000000
      4096      1366  TIP3      OH2             0.1370915875      -12.7848999386        0.6288383134  W2        1366            0.0000000000
      4097      1366  TIP3      H1              0.1783015875      -13.4105699386        1.3520783134  W2        1366            0.0000000000
      4098      1366  TIP3      H2              0.8398615875      -12.1610399386        0.8108783134  W2        1366            0.0000000000
      4099      1367  TIP3      OH2            11.4746115875       -9.4600699386       -2.6626416866  W2        1367            0.0000000000
      4100      1367  TIP3      H1             11.0338815875      -10.1804699386       -2.2120816866  W2        1367            0.0000000000
      4101      1367  TIP3      H2             11.4615815875       -8.7393499386       -2.0328716866  W2        1367            0.0000000000
      4102      1368  TIP3      OH2             1.0604015875       -8.3350099386       -0.8362516866  W2        1368            0.0000000000
      4103      1368  TIP3      H1              0.6909215875       -9.1369599386       -1.2058216866  W2        1368            0.0000000000
      4104      1368  TIP3      H2              2.0015115875       -8.5035199386       -0.7899116866  W2        1368            0.0000000000
      4105      1369  TIP3      OH2            -2.3295484125      -14.6747499386       -5.4433716866  W2        1369            0.0000000000
      4106      1369  TIP3      H1             -2.7772084125      -13.8288799386       -5.4617216866  W2        1369            0.0000000000
      4107      1369  TIP3      H2             -2.8904284125      -15.2543299386       -5.9588616866  W2        1369            0.0000000000
      4108      1370  TIP3      OH2            -1.6189384125      -12.5127899386       -3.3175716866  W2        1370            0.0000000000
      4109      1370  TIP3      H1             -1.4055884125      -13.2826299386       -2.7902716866  W2        1370            0.0000000000
      4110      1370  TIP3      H2             -0.8811784125      -12.4231199386       -3.9208116866  W2        1370            0.0000000000
      4111      1371  TIP3      OH2             8.5861615875       -4.3558999386       -2.4506016866  W2        1371            0.0000000000
      4112      1371  TIP3      H1              9.2058015875       -5.0324299386       -2.7236816866  W2        1371            0.0000000000
      4113      1371  TIP3      H2              8.3779015875       -4.5738199386       -1.5421116866  W2        1371            0.0000000000
      4114      1372  TIP3      OH2             6.1580315875       -9.9669699386       -0.5580516866  W2        1372            0.0000000000
      4115      1372  TIP3      H1              6.4618215875      -10.6528299386       -1.1526416866  W2        1372            0.0000000000
      4116      1372  TIP3      H2              6.8794315875       -9.8480999386        0.0597483134  W2        1372            0.0000000000
      4117      1373  TIP3      OH2            14.8210115875      -18.3654399386        0.3025683134  W2        1373            0.0000000000
      4118      1373  TIP3      H1             14.8702315875      -17.7553199386        1.0384783134  W2        1373            0.0000000000
      4119      1373  TIP3      H2             15.2465215875      -17.9043499386       -0.4203216866  W2        1373            0.0000000000
      4120      1374  TIP3      OH2             9.2987315875      -15.5727299386       -0.2305716866  W2        1374            0.0000000000
      4121      1374  TIP3      H1              9.4413215875      -16.5190299386       -0.2104116866  W2        1374            0.0000000000
      4122      1374  TIP3      H2              9.1926315875      -15.3657499386       -1.1590816866  W2        1374            0.0000000000
      4123      1375  TIP3      OH2             2.4535615875      -17.4710899386       -2.9580916866  W2        1375            0.0000000000
      4124      1375  TIP3      H1              2.4966715875      -16.6112399386       -3.3764616866  W2        1375            0.0000000000
      4125      1375  TIP3      H2              1.9959715875      -18.0236199386       -3.5917716866  W2        1375            0.0000000000
      4126      1376  TIP3      OH2            10.1758315875      -17.3405299386       -4.5572616866  W2        1376            0.0000000000
      4127      1376  TIP3      H1             10.8222615875      -17.6692099386       -3.9325016866  W2        1376            0.0000000000
      4128      1376  TIP3      H2             10.6857715875      -16.8226299386       -5.1801216866  W2        1376            0.0000000000
      4129      1377  TIP3      OH2            -0.9262884125      -15.0745099386       -2.1959516866  W2        1377            0.0000000000
      4130      1377  TIP3      H1             -0.2726284125      -15.6243399386       -1.7639416866  W2        1377            0.0000000000
      4131      1377  TIP3      H2             -0.9023584125      -15.3486099386       -3.1127516866  W2        1377            0.0000000000
      4132      1378  TIP3      OH2             4.2301615875      -13.5243799386       -2.9808016866  W2        1378            0.0000000000
      4133      1378  TIP3      H1              4.8462615875      -14.0508399386       -2.4714016866  W2        1378            0.0000000000
      4134      1378  TIP3      H2              3.6440415875      -14.1645099386       -3.3844416866  W2        1378            0.0000000000
      4135      1379  TIP3      OH2            15.2124715875      -16.8875199386        2.5385483134  W2        1379            0.0000000000
      4136      1379  TIP3      H1             14.5239315875      -16.2294499386        2.4432083134  W2        1379            0.0000000000
      4137      1379  TIP3      H2             15.2279315875      -17.0847299386        3.4750883134  W2        1379            0.0000000000
      4138      1380  TIP3      OH2             1.2637515875      -18.5532499386        1.1159883134  W2        1380            0.0000000000
      4139      1380  TIP3      H1              1.0449215875      -18.0231899386        0.3495883134  W2        1380            0.0000000000
      4140      1380  TIP3      H2              0.5958415875      -18.3266999386        1.7631283134  W2        1380            0.0000000000
      4141      1381  TIP3      OH2             8.6327315875       -9.0531399386       -5.3401016866  W2        1381            0.0000000000
      4142      1381  TIP3      H1              8.3372415875       -9.3759099386       -6.1914116866  W2        1381            0.0000000000
      4143      1381  TIP3      H2              8.3085115875       -8.1534699386       -5.2988416866  W2        1381            0.0000000000
      4144      1382  TIP3      OH2             3.8328915875      -10.8776799386        1.4033583134  W2        1382            0.0000000000
      4145      1382  TIP3      H1              3.0928015875      -10.2795299386        1.5068783134  W2        1382            0.0000000000
      4146      1382  TIP3      H2              4.5468415875      -10.3237199386        1.0877183134  W2        1382            0.0000000000
      4147      1383  TIP3      OH2            11.9396715875      -18.0495999386       -2.5766716866  W2        1383            0.0000000000
      4148      1383  TIP3      H1             11.7244715875      -18.8152599386       -2.0440716866  W2        1383            0.0000000000
      4149      1383  TIP3      H2             12.5954115875      -17.5771399386       -2.0638216866  W2        1383            0.0000000000
      4150      1384  TIP3      OH2             0.8574815875      -16.6610699386       -0.9317916866  W2        1384            0.0000000000
      4151      1384  TIP3      H1              1.4711115875      -16.0283099386       -0.5585516866  W2        1384            0.0000000000
      4152      1384  TIP3      H2              1.3695515875      -17.1335699386       -1.5881016866  W2        1384            0.0000000000
      4153      1385  TIP3      OH2             2.2403215875       -8.9133799386        2.1905083134  W2        1385            0.0000000000
      4154      1385  TIP3      H1              2.2350815875       -8.0340299386        1.8124383134  W2        1385            0.0000000000
      4155      1385  TIP3      H2              1.3867315875       -8.9969699386        2.6154983134  W2        1385            0.0000000000
      4156      1386  TIP3      OH2            -1.6385884125       -9.2425899386       -7.0275616866  W2        1386            0.0000000000
      4157      1386  TIP3      H1             -1.9104984125       -9.0134899386       -7.9162716866  W2        1386            0.0000000000
      4158      1386  TIP3      H2             -1.5930184125       -8.4047099386       -6.5670316866  W2        1386            0.0000000000
      4159      1387  TIP3      OH2            11.9863815875       -7.6209999386       -0.3147116866  W2        1387            0.0000000000
      4160      1387  TIP3      H1             11.0447515875       -7.5626099386       -0.1530216866  W2        1387            0.0000000000
      4161      1387  TIP3      H2             12.2629915875       -6.7149499386       -0.4517416866  W2        1387            0.0000000000
      4162      1388  TIP3      OH2            12.2870815875      -19.3344699386        1.1026783134  W2        1388            0.0000000000
      4163      1388  TIP3      H1             11.5510015875      -18.7237599386        1.0648083134  W2        1388            0.0000000000
      4164      1388  TIP3      H2             12.9704815875      -18.9195699386        0.5763183134  W2        1388            0.0000000000
      4165      1389  TIP3      OH2             5.2902215875      -21.2477399386       -1.4315216866  W2        1389            0.0000000000
      4166      1389  TIP3      H1              5.1726415875      -22.1961399386       -1.4856916866  W2        1389            0.0000000000
      4167      1389  TIP3      H2              4.4352315875      -20.9151299386       -1.1584116866  W2        1389            0.0000000000
      4168      1390  TIP3      OH2            10.2385015875       -5.8396499386       -3.6895516866  W2        1390            0.0000000000
      4169      1390  TIP3      H1             10.6637315875       -6.5468599386       -4.1745916866  W2        1390            0.0000000000
      4170      1390  TIP3      H2             10.5555015875       -5.0383799386       -4.1063316866  W2        1390            0.0000000000
      4171      1391  TIP3      OH2            11.3981515875       -7.9387999386       -5.1808916866  W2        1391            0.0000000000
      4172      1391  TIP3      H1             11.1406315875       -8.6287899386       -5.7923016866  W2        1391            0.0000000000
      4173      1391  TIP3      H2             11.4692315875       -8.3816799386       -4.3353016866  W2        1391            0.0000000000
      4174      1392  TIP3      OH2            13.0841715875       -9.3721299386        3.2964583134  W2        1392            0.0000000000
      4175      1392  TIP3      H1             13.2238015875       -9.9638799386        2.5571583134  W2        1392            0.0000000000
      4176      1392  TIP3      H2             13.2514515875       -8.4995399386        2.9403383134  W2        1392            0.0000000000
      4177      1393  TIP3      OH2             7.5567115875      -12.4101799386       -6.9309416866  W2        1393            0.0000000000
      4178      1393  TIP3      H1              6.8452615875      -11.8752099386       -7.2828916866  W2        1393            0.0000000000
      4179      1393  TIP3      H2              8.2476715875      -12.3549699386       -7.5910516866  W2        1393            0.0000000000
      4180      1394  TIP3      OH2             7.6106315875      -13.9527499386       -9.8924416866  W2        1394            0.0000000000
      4181      1394  TIP3      H1              8.3116215875      -13.9300599386       -9.2410416866  W2        1394            0.0000000000
      4182      1394  TIP3      H2              7.9129215875      -14.5807799386      -10.5485116866  W2        1394            0.0000000000
      4183      1395  TIP3      OH2            14.9261015875      -13.0323299386        1.3624983134  W2        1395            0.0000000000
      4184      1395  TIP3      H1             14.2735115875      -12.3377699386        1.4515883134  W2        1395            0.0000000000
      4185      1395  TIP3      H2             15.3911315875      -12.8222399386        0.5526583134  W2        1395            0.0000000000
      4186      1396  TIP3      OH2            10.9624815875      -12.2008499386       -5.9793516866  W2        1396            0.0000000000
      4187      1396  TIP3      H1             10.2305815875      -11.9724799386       -5.4062916866  W2        1396            0.0000000000
      4188      1396  TIP3      H2             11.4097015875      -12.9145799386       -5.5246016866  W2        1396            0.0000000000
      4189      1397  TIP3      OH2            10.8598315875      -14.0265899386        3.0883483134  W2        1397            0.0000000000
      4190      1397  TIP3      H1             10.9397415875      -13.2631499386        3.6601983134  W2        1397            0.0000000000
      4191      1397  TIP3      H2             10.2586015875      -13.7473499386        2.3978583134  W2        1397            0.0000000000
      4192      1398  TIP3      OH2             2.6078515875      -11.5702299386       -4.0968516866  W2        1398            0.0000000000
      4193      1398  TIP3      H1              2.2773715875      -11.9408899386       -4.9151516866  W2        1398            0.0000000000
      4194      1398  TIP3      H2              3.1962615875      -12.2408299386       -3.7500216866  W2        1398            0.0000000000
      4195      1399  TIP3      OH2             3.9746015875       -8.1421699386       -1.4156316866  W2        1399            0.0000000000
      4196      1399  TIP3      H1              3.8797315875       -8.7208599386       -2.1721716866  W2        1399            0.0000000000
      4197      1399  TIP3      H2              4.7039615875       -8.5135999386       -0.9193516866  W2        1399            0.0000000000
      4198      1400  TIP3      OH2             2.9744015875      -12.8016699386       -0.4633516866  W2        1400            0.0000000000
      4199      1400  TIP3      H1              3.5396515875      -12.6802499386       -1.2262316866  W2        1400            0.0000000000
      4200      1400  TIP3      H2              3.2932915875      -12.1641699386        0.1754983134  W2        1400            0.0000000000
      4201      1401  TIP3      OH2             9.2836215875       -7.2984799386        0.2706983134  W2        1401            0.0000000000
      4202      1401  TIP3      H1              9.0432815875       -6.6361699386        0.9186183134  W2        1401            0.0000000000
      4203      1401  TIP3      H2              9.0854415875       -8.1329599386        0.6956583134  W2        1401            0.0000000000
      4204      1402  TIP3      OH2             3.8544715875       -8.4023999386        4.2538383134  W2        1402            0.0000000000
      4205      1402  TIP3      H1              3.5432215875       -7.6200799386        4.7091583134  W2        1402            0.0000000000
      4206      1402  TIP3      H2              3.2044915875       -8.5554899386        3.5680383134  W2        1402            0.0000000000
      4207      1403  TIP3      OH2             9.8334315875      -13.0385599386       -8.2942316866  W2        1403            0.0000000000
      4208      1403  TIP3      H1             10.4129815875      -12.8885299386       -7.5473416866  W2        1403            0.0000000000
      4209      1403  TIP3      H2             10.2474315875      -12.5678199386       -9.0175916866  W2        1403            0.0000000000
      4210      1404  TIP3      OH2             0.7744615875      -12.2042899386        3.4824083134  W2        1404            0.0000000000
      4211      1404  TIP3      H1              0.8447815875      -11.5536099386        4.1809083134  W2        1404            0.0000000000
      4212      1404  TIP3      H2             -0.1163184125      -12.1015399386        3.1474983134  W2        1404            0.0000000000
      4213      1405  TIP3      OH2             7.5599215875       -6.3017099386       -4.8589216866  W2        1405            0.0000000000
      4214      1405  TIP3      H1              8.0336815875       -6.0060799386       -4.0815016866  W2        1405            0.0000000000
      4215      1405  TIP3      H2              6.9968515875       -5.5635499386       -5.0919616866  W2        1405            0.0000000000
      4216      1406  TIP3      OH2             2.0940615875       -6.3308999386        5.0172183134  W2        1406            0.0000000000
      4217      1406  TIP3      H1              2.1015915875       -6.4669299386        4.0697683134  W2        1406            0.0000000000
      4218      1406  TIP3      H2              1.1781015875       -6.4480899386        5.2692183134  W2        1406            0.0000000000
      4219      1407  TIP3      OH2            13.5322715875      -21.2885199386       -8.4812616866  W2        1407            0.0000000000
      4220      1407  TIP3      H1             12.6323415875      -21.1496199386       -8.1862016866  W2        1407            0.0000000000
      4221      1407  TIP3      H2             13.7841115875      -20.4570599386       -8.8830916866  W2        1407            0.0000000000
      4222      1408  TIP3      OH2             1.5981215875      -12.5007999386       -6.5075716866  W2        1408            0.0000000000
      4223      1408  TIP3      H1              1.3062515875      -11.7326299386       -6.9984416866  W2        1408            0.0000000000
      4224      1408  TIP3      H2              0.9236415875      -13.1601799386       -6.6704316866  W2        1408            0.0000000000
      4225      1409  TIP3      OH2            14.7214115875       -6.9222799386      -10.1048716866  W2        1409            0.0000000000
      4226      1409  TIP3      H1             14.7947615875       -5.9832599386       -9.9343416866  W2        1409            0.0000000000
      4227      1409  TIP3      H2             15.6269215875       -7.2274199386      -10.1611416866  W2        1409            0.0000000000
      4228      1410  TIP3      OH2            -2.3088684125      -10.1378799386        2.3074083134  W2        1410            0.0000000000
      4229      1410  TIP3      H1             -2.8100284125      -10.1659399386        1.4923783134  W2        1410            0.0000000000
      4230      1410  TIP3      H2             -2.3034984125      -11.0435599386        2.6171383134  W2        1410            0.0000000000
      4231      1411  TIP3      OH2            -2.5585984125       -7.3574999386       -0.8085716866  W2        1411            0.0000000000
      4232      1411  TIP3      H1             -1.6125384125       -7.5017999386       -0.8276216866  W2        1411            0.0000000000
      4233      1411  TIP3      H2             -2.6709684125       -6.5732199386       -0.2714516866  W2        1411            0.0000000000
      4234      1412  TIP3      OH2            15.6392515875       -6.6915299386        4.8737983134  W2        1412            0.0000000000
      4235      1412  TIP3      H1             15.5899315875       -7.6467199386        4.8365583134  W2        1412            0.0000000000
      4236      1412  TIP3      H2             14.8124815875       -6.4239999386        5.2751783134  W2        1412            0.0000000000
      4237      1413  TIP3      OH2             6.6176515875       -7.1176099386        3.7499383134  W2        1413            0.0000000000
      4238      1413  TIP3      H1              6.7051115875       -6.2911499386        4.2248483134  W2        1413            0.0000000000
      4239      1413  TIP3      H2              5.7541615875       -7.4472299386        3.9988683134  W2        1413            0.0000000000
      4240      1414  TIP3      OH2             7.0322315875       -3.3452399386       -6.4440016866  W2        1414            0.0000000000
      4241      1414  TIP3      H1              6.9568315875       -3.4665199386       -7.3904816866  W2        1414            0.0000000000
      4242      1414  TIP3      H2              7.0651015875       -2.3959699386       -6.3255416866  W2        1414            0.0000000000
      4243      1415  TIP3      OH2             0.6856115875       -4.5565399386       -4.6631016866  W2        1415            0.0000000000
      4244      1415  TIP3      H1              0.8376515875       -4.9044999386       -3.7844516866  W2        1415            0.0000000000
      4245      1415  TIP3      H2             -0.1653484125       -4.9128099386       -4.9183816866  W2        1415            0.0000000000
      4246      1416  TIP3      OH2            10.1338315875       -4.1912199386       -9.4417616866  W2        1416            0.0000000000
      4247      1416  TIP3      H1             10.5086715875       -4.9356099386       -9.9125016866  W2        1416            0.0000000000
      4248      1416  TIP3      H2             10.1382015875       -4.4611599386       -8.5234316866  W2        1416            0.0000000000
      4249      1417  TIP3      OH2             9.8026415875       -4.2655099386       -6.6925416866  W2        1417            0.0000000000
      4250      1417  TIP3      H1              8.8676215875       -4.1653199386       -6.5138416866  W2        1417            0.0000000000
      4251      1417  TIP3      H2             10.0828315875       -4.9749099386       -6.1142216866  W2        1417            0.0000000000
      4252      1418  TIP3      OH2            12.7912315875      -15.1982799386        5.3540183134  W2        1418            0.0000000000
      4253      1418  TIP3      H1             12.3839115875      -14.7177199386        4.6333483134  W2        1418            0.0000000000
      4254      1418  TIP3      H2             12.8318015875      -16.1036799386        5.0460983134  W2        1418            0.0000000000
      4255      1419  TIP3      OH2            -0.0598184125       -8.8143399386        3.3506883134  W2        1419            0.0000000000
      4256      1419  TIP3      H1              0.1563115875       -9.1757799386        4.2102683134  W2        1419            0.0000000000
      4257      1419  TIP3      H2             -0.9153484125       -9.1889599386        3.1410383134  W2        1419            0.0000000000
      4258      1420  TIP3      OH2             2.5589815875      -20.3442899386       -0.6538916866  W2        1420            0.0000000000
      4259      1420  TIP3      H1              1.6973515875      -20.4314699386       -1.0616016866  W2        1420            0.0000000000
      4260      1420  TIP3      H2              2.5365515875      -19.4882799386       -0.2261316866  W2        1420            0.0000000000
      4261      1421  TIP3      OH2             7.2217615875      -20.6222499386        2.7208083134  W2        1421            0.0000000000
      4262      1421  TIP3      H1              7.6420715875      -21.0375399386        3.4738683134  W2        1421            0.0000000000
      4263      1421  TIP3      H2              6.2887215875      -20.8009199386        2.8380083134  W2        1421            0.0000000000
      4264      1422  TIP3      OH2            10.5482515875      -16.8667299386        3.5742583134  W2        1422            0.0000000000
      4265      1422  TIP3      H1             10.0342015875      -16.9925099386        4.3718583134  W2        1422            0.0000000000
      4266      1422  TIP3      H2             10.3927215875      -15.9544199386        3.3298783134  W2        1422            0.0000000000
      4267      1423  TIP3      OH2            11.3107415875      -12.0057299386      -10.6644416866  W2        1423            0.0000000000
      4268      1423  TIP3      H1             11.3528215875      -12.2283399386      -11.5944416866  W2        1423            0.0000000000
      4269      1423  TIP3      H2             12.1599515875      -11.6070199386      -10.4744516866  W2        1423            0.0000000000
      4270      1424  TIP3      OH2             6.8834915875      -18.1299099386       -9.9941116866  W2        1424            0.0000000000
      4271      1424  TIP3      H1              6.6299715875      -18.1107499386       -9.0713016866  W2        1424            0.0000000000
      4272      1424  TIP3      H2              6.6267015875      -19.0013699386      -10.2954916866  W2        1424            0.0000000000
      4273      1425  TIP3      OH2             2.6499915875      -15.3788399386        0.4411283134  W2        1425            0.0000000000
      4274      1425  TIP3      H1              2.0082015875      -15.4191099386        1.1501383134  W2        1425            0.0000000000
      4275      1425  TIP3      H2              2.6871915875      -14.4523699386        0.2034283134  W2        1425            0.0000000000
      4276      1426  TIP3      OH2             2.6469015875      -15.1578299386       -4.6468716866  W2        1426            0.0000000000
      4277      1426  TIP3      H1              1.7541915875      -15.4982199386       -4.7054916866  W2        1426            0.0000000000
      4278      1426  TIP3      H2              3.0975615875      -15.5347399386       -5.4025516866  W2        1426            0.0000000000
      4279      1427  TIP3      OH2             8.1824515875      -14.7417999386       -5.8297916866  W2        1427            0.0000000000
      4280      1427  TIP3      H1              7.7734815875      -13.9269399386       -6.1213116866  W2        1427            0.0000000000
      4281      1427  TIP3      H2              8.9030715875      -14.8817899386       -6.4440816866  W2        1427            0.0000000000
      4282      1428  TIP3      OH2             7.2846115875      -14.5661599386        5.6582783134  W2        1428            0.0000000000
      4283      1428  TIP3      H1              6.7219915875      -15.2709999386        5.9790583134  W2        1428            0.0000000000
      4284      1428  TIP3      H2              8.1109515875      -14.6869699386        6.1260383134  W2        1428            0.0000000000
      4285      1429  TIP3      OH2             9.1872215875      -15.2957599386       -3.0158216866  W2        1429            0.0000000000
      4286      1429  TIP3      H1              8.9916715875      -14.6900799386       -3.7307616866  W2        1429            0.0000000000
      4287      1429  TIP3      H2              9.3684815875      -16.1292399386       -3.4501916866  W2        1429            0.0000000000
      4288      1430  TIP3      OH2             0.4000415875      -15.0584899386        2.3083283134  W2        1430            0.0000000000
      4289      1430  TIP3      H1              0.3619815875      -14.6583299386        3.1770383134  W2        1430            0.0000000000
      4290      1430  TIP3      H2             -0.0908484125      -15.8752499386        2.3986183134  W2        1430            0.0000000000
      4291      1431  TIP3      OH2             3.7657815875      -17.6842599386      -10.8930716866  W2        1431            0.0000000000
      4292      1431  TIP3      H1              3.3348515875      -18.1292499386      -10.1633316866  W2        1431            0.0000000000
      4293      1431  TIP3      H2              3.0476515875      -17.3126299386      -11.4053216866  W2        1431            0.0000000000
      4294      1432  TIP3      OH2            -2.9918784125      -17.9423099386       -3.8412016866  W2        1432            0.0000000000
      4295      1432  TIP3      H1             -2.3611084125      -17.9710999386       -3.1218116866  W2        1432            0.0000000000
      4296      1432  TIP3      H2             -2.5424484125      -18.3674399386       -4.5716116866  W2        1432            0.0000000000
      4297      1433  TIP3      OH2            -1.7176684125      -17.1961099386       -8.4171616866  W2        1433            0.0000000000
      4298      1433  TIP3      H1             -1.2434984125      -16.6051199386       -9.0020716866  W2        1433            0.0000000000
      4299      1433  TIP3      H2             -2.4350284125      -16.6658199386       -8.0701516866  W2        1433            0.0000000000
      4300      1434  TIP3      OH2             8.4511415875      -13.6576299386        1.6554183134  W2        1434            0.0000000000
      4301      1434  TIP3      H1              8.7746215875      -14.2886599386        1.0124683134  W2        1434            0.0000000000
      4302      1434  TIP3      H2              8.0110715875      -14.1924099386        2.3161583134  W2        1434            0.0000000000
      4303      1435  TIP3      OH2             5.2284315875      -17.7300799386       -3.5604616866  W2        1435            0.0000000000
      4304      1435  TIP3      H1              4.3175415875      -17.6733999386       -3.2718616866  W2        1435            0.0000000000
      4305      1435  TIP3      H2              5.7337215875      -17.7905299386       -2.7497416866  W2        1435            0.0000000000
      4306      1436  TIP3      OH2             0.0567715875      -16.1014499386       -4.7337016866  W2        1436            0.0000000000
      4307      1436  TIP3      H1             -0.8324284125      -16.0018999386       -5.0737416866  W2        1436            0.0000000000
      4308      1436  TIP3      H2              0.3532615875      -16.9431499386       -5.0799116866  W2        1436            0.0000000000
      4309      1437  TIP3      OH2             3.7099515875      -16.1011899386       -7.0772416866  W2        1437            0.0000000000
      4310      1437  TIP3      H1              4.6415015875      -15.9721899386       -6.8989316866  W2        1437            0.0000000000
      4311      1437  TIP3      H2              3.4949815875      -15.4317599386       -7.7267716866  W2        1437            0.0000000000
      4312      1438  TIP3      OH2             9.6336215875      -18.4954499386       -0.2962816866  W2        1438            0.0000000000
      4313      1438  TIP3      H1              8.9567815875      -18.3641399386        0.3676883134  W2        1438            0.0000000000
      4314      1438  TIP3      H2              9.1481115875      -18.6504999386       -1.1065116866  W2        1438            0.0000000000
      4315      1439  TIP3      OH2             2.3839715875      -14.9069699386       -9.5106316866  W2        1439            0.0000000000
      4316      1439  TIP3      H1              1.8414815875      -15.2865899386      -10.2018716866  W2        1439            0.0000000000
      4317      1439  TIP3      H2              3.2174615875      -14.7124999386       -9.9392216866  W2        1439            0.0000000000
      4318      1440  TIP3      OH2            12.9211315875       -2.8239099386        5.9804783134  W2        1440            0.0000000000
      4319      1440  TIP3      H1             13.1210015875       -2.3997199386        5.1460083134  W2        1440            0.0000000000
      4320      1440  TIP3      H2             13.5765015875       -2.4800899386        6.5875183134  W2        1440            0.0000000000
      4321      1441  TIP3      OH2             0.5191115875      -10.3497799386        5.5885283134  W2        1441            0.0000000000
      4322      1441  TIP3      H1              1.2513515875      -10.0951899386        6.1499783134  W2        1441            0.0000000000
      4323      1441  TIP3      H2             -0.2610184125      -10.1452399386        6.1040683134  W2        1441            0.0000000000
      4324      1442  TIP3      OH2             6.5484015875      -14.9427799386       -1.6735016866  W2        1442            0.0000000000
      4325      1442  TIP3      H1              7.1127415875      -15.4891199386       -2.2205416866  W2        1442            0.0000000000
      4326      1442  TIP3      H2              6.4007415875      -15.4645899386       -0.8847416866  W2        1442            0.0000000000
      4327      1443  TIP3      OH2             1.5503715875      -18.8061699386       -5.2550216866  W2        1443            0.0000000000
      4328      1443  TIP3      H1              1.2333215875      -19.7086399386       -5.2904816866  W2        1443            0.0000000000
      4329      1443  TIP3      H2              2.3317815875      -18.8044299386       -5.8078616866  W2        1443            0.0000000000
      4330      1444  TIP3      OH2             5.1749915875      -16.5541699386        0.7405383134  W2        1444            0.0000000000
      4331      1444  TIP3      H1              4.3395215875      -16.1002199386        0.8507783134  W2        1444            0.0000000000
      4332      1444  TIP3      H2              5.6990515875      -16.2783199386        1.4925283134  W2        1444            0.0000000000
      4333      1445  TIP3      OH2             5.7192515875      -10.3413999386       -7.5748216866  W2        1445            0.0000000000
      4334      1445  TIP3      H1              4.9743515875      -10.8488699386       -7.8970316866  W2        1445            0.0000000000
      4335      1445  TIP3      H2              5.5849715875      -10.2925999386       -6.6283416866  W2        1445            0.0000000000
      4336      1446  TIP3      OH2            12.8691415875      -11.2085799386        1.2119383134  W2        1446            0.0000000000
      4337      1446  TIP3      H1             13.5110215875      -10.7519499386        0.6681583134  W2        1446            0.0000000000
      4338      1446  TIP3      H2             12.0388315875      -11.0953399386        0.7493483134  W2        1446            0.0000000000
      4339      1447  TIP3      OH2             9.6169315875      -17.5274099386       -9.3755616866  W2        1447            0.0000000000
      4340      1447  TIP3      H1              8.6783515875      -17.4158499386       -9.5266816866  W2        1447            0.0000000000
      4341      1447  TIP3      H2              9.9141415875      -16.6707199386       -9.0689916866  W2        1447            0.0000000000
      4342      1448  TIP3      OH2             7.2384615875      -10.1570699386        3.6620883134  W2        1448            0.0000000000
      4343      1448  TIP3      H1              6.8930715875      -10.5388299386        4.4690483134  W2        1448            0.0000000000
      4344      1448  TIP3      H2              7.0384715875       -9.2237099386        3.7333783134  W2        1448            0.0000000000
      4345      1449  TIP3      OH2            10.3352815875      -15.6601399386       -7.7148216866  W2        1449            0.0000000000
      4346      1449  TIP3      H1             11.2271815875      -15.7976399386       -7.3957016866  W2        1449            0.0000000000
      4347      1449  TIP3      H2             10.3916415875      -14.8695299386       -8.2514716866  W2        1449            0.0000000000
      4348      1450  TIP3      OH2             0.8440815875      -11.0463999386       -1.8050316866  W2        1450            0.0000000000
      4349      1450  TIP3      H1              1.5888015875      -11.0488299386       -2.4063816866  W2        1450            0.0000000000
      4350      1450  TIP3      H2              0.9217415875      -11.8700199386       -1.3235216866  W2        1450            0.0000000000
      4351      1451  TIP3      OH2             7.8446615875       -8.8829699386       -8.5493616866  W2        1451            0.0000000000
      4352      1451  TIP3      H1              7.5495015875       -8.0561799386       -8.1678816866  W2        1451            0.0000000000
      4353      1451  TIP3      H2              7.1416615875       -9.5022799386       -8.3532216866  W2        1451            0.0000000000
      4354      1452  TIP3      OH2            -2.1479484125      -12.5857099386        3.5098183134  W2        1452            0.0000000000
      4355      1452  TIP3      H1             -1.9250884125      -13.0037499386        4.3415683134  W2        1452            0.0000000000
      4356      1452  TIP3      H2             -2.7499384125      -13.1982099386        3.0870983134  W2        1452            0.0000000000
      4357      1453  TIP3      OH2             4.8685415875      -13.0687199386        5.7227883134  W2        1453            0.0000000000
      4358      1453  TIP3      H1              4.5726215875      -13.2344199386        4.8276983134  W2        1453            0.0000000000
      4359      1453  TIP3      H2              5.8000615875      -13.2886899386        5.7121783134  W2        1453            0.0000000000
      4360      1454  TIP3      OH2             9.4888215875       -7.6955199386        3.6125883134  W2        1454            0.0000000000
      4361      1454  TIP3      H1              8.5882515875       -7.5122599386        3.3449783134  W2        1454            0.0000000000
      4362      1454  TIP3      H2              9.5229315875       -7.4365899386        4.5334683134  W2        1454            0.0000000000
      4363      1455  TIP3      OH2            15.2201515875      -15.4507299386       -8.0201516866  W2        1455            0.0000000000
      4364      1455  TIP3      H1             14.6657815875      -15.8469299386       -8.6924016866  W2        1455            0.0000000000
      4365      1455  TIP3      H2             15.3205115875      -14.5402099386       -8.2978216866  W2        1455            0.0000000000
      4366      1456  TIP3      OH2            15.1833515875       -9.6505599386        4.8169983134  W2        1456            0.0000000000
      4367      1456  TIP3      H1             14.3322015875       -9.4121799386        4.4496383134  W2        1456            0.0000000000
      4368      1456  TIP3      H2             15.7736915875       -9.6672399386        4.0637083134  W2        1456            0.0000000000
      4369      1457  TIP3      OH2            13.5153215875       -6.6646899386       -7.5549416866  W2        1457            0.0000000000
      4370      1457  TIP3      H1             13.1424315875       -7.4903099386       -7.2458816866  W2        1457            0.0000000000
      4371      1457  TIP3      H2             13.7926715875       -6.8477499386       -8.4526016866  W2        1457            0.0000000000
      4372      1458  TIP3      OH2            10.6757115875      -11.8567399386       -0.5337516866  W2        1458            0.0000000000
      4373      1458  TIP3      H1              9.7474015875      -12.0885499386       -0.5608216866  W2        1458            0.0000000000
      4374      1458  TIP3      H2             11.1268215875      -12.6337599386       -0.8638716866  W2        1458            0.0000000000
      4375      1459  TIP3      OH2             3.2190215875       -7.5285799386       -4.4008816866  W2        1459            0.0000000000
      4376      1459  TIP3      H1              3.7462415875       -6.7551399386       -4.6010016866  W2        1459            0.0000000000
      4377      1459  TIP3      H2              2.3388715875       -7.3036599386       -4.7024816866  W2        1459            0.0000000000
      4378      1460  TIP3      OH2            -1.0262084125      -12.6661699386       -9.8136416866  W2        1460            0.0000000000
      4379      1460  TIP3      H1             -0.4102184125      -12.0394499386       -9.4341616866  W2        1460            0.0000000000
      4380      1460  TIP3      H2             -1.8879484125      -12.3501899386       -9.5419916866  W2        1460            0.0000000000
      4381      1461  TIP3      OH2             4.6462515875       -9.8655899386       -4.8244516866  W2        1461            0.0000000000
      4382      1461  TIP3      H1              4.4052515875       -8.9401499386       -4.7829216866  W2        1461            0.0000000000
      4383      1461  TIP3      H2              3.9056115875      -10.3244599386       -4.4280616866  W2        1461            0.0000000000
      4384      1462  TIP3      OH2             5.1609115875       -5.7162299386        1.4906583134  W2        1462            0.0000000000
      4385      1462  TIP3      H1              5.5233815875       -4.8616699386        1.2570983134  W2        1462            0.0000000000
      4386      1462  TIP3      H2              5.6924315875       -6.0080699386        2.2312883134  W2        1462            0.0000000000
      4387      1463  TIP3      OH2             3.3293315875       -4.8438299386       -5.2792316866  W2        1463            0.0000000000
      4388      1463  TIP3      H1              2.3793815875       -4.7380899386       -5.2279016866  W2        1463            0.0000000000
      4389      1463  TIP3      H2              3.6811415875       -4.0230899386       -4.9344816866  W2        1463            0.0000000000
      4390      1464  TIP3      OH2             8.7049915875       -9.6171599386        1.1912183134  W2        1464            0.0000000000
      4391      1464  TIP3      H1              8.2791215875       -9.8449899386        2.0176183134  W2        1464            0.0000000000
      4392      1464  TIP3      H2              9.2855715875      -10.3559799386        1.0087483134  W2        1464            0.0000000000
      4393      1465  TIP3      OH2            10.9078815875       -8.6881099386       -9.7348816866  W2        1465            0.0000000000
      4394      1465  TIP3      H1             11.2611915875       -9.0681299386       -8.9305316866  W2        1465            0.0000000000
      4395      1465  TIP3      H2              9.9592315875       -8.7816299386       -9.6479516866  W2        1465            0.0000000000
      4396      1466  TIP3      OH2            11.3634115875       -5.0652099386        3.6606983134  W2        1466            0.0000000000
      4397      1466  TIP3      H1             10.7617315875       -5.6209199386        3.1653283134  W2        1466            0.0000000000
      4398      1466  TIP3      H2             11.6447815875       -4.3982299386        3.0344383134  W2        1466            0.0000000000
      4399      1467  TIP3      OH2            15.4113215875       -4.2088599386       -9.5338616866  W2        1467            0.0000000000
      4400      1467  TIP3      H1             16.1551115875       -3.6228099386       -9.6737016866  W2        1467            0.0000000000
      4401      1467  TIP3      H2             14.7171315875       -3.6402799386       -9.2006216866  W2        1467            0.0000000000
      4402      1468  TIP3      OH2            -0.5139984125      -17.8324399386        3.0679583134  W2        1468            0.0000000000
      4403      1468  TIP3      H1             -1.4067684125      -17.4938999386        3.0003583134  W2        1468            0.0000000000
      4404      1468  TIP3      H2             -0.6127184125      -18.6878299386        3.4860383134  W2        1468            0.0000000000
      4405      1469  TIP3      OH2            11.7738115875      -10.0159099386       -7.5080916866  W2        1469            0.0000000000
      4406      1469  TIP3      H1             11.4965715875      -10.7439799386       -6.9519816866  W2        1469            0.0000000000
      4407      1469  TIP3      H2             12.7011115875       -9.8967099386       -7.3028316866  W2        1469            0.0000000000
      4408      1470  TIP3      OH2            -0.8627984125       -6.0279999386        1.5028983134  W2        1470            0.0000000000
      4409      1470  TIP3      H1             -0.6457684125       -6.9597599386        1.4718683134  W2        1470            0.0000000000
      4410      1470  TIP3      H2             -0.6164484125       -5.7534999386        2.3861783134  W2        1470            0.0000000000
      4411      1471  TIP3      OH2             4.9986615875       -7.5764999386      -11.2878816866  W2        1471            0.0000000000
      4412      1471  TIP3      H1              5.2376415875       -8.3246899386      -11.8349916866  W2        1471            0.0000000000
      4413      1471  TIP3      H2              4.7297915875       -7.9643299386      -10.4551016866  W2        1471            0.0000000000
      4414      1472  TIP3      OH2             3.9357215875       -8.0061199386       -8.8316216866  W2        1472            0.0000000000
      4415      1472  TIP3      H1              4.0825215875       -8.5261399386       -8.0415316866  W2        1472            0.0000000000
      4416      1472  TIP3      H2              3.9328915875       -7.0993599386       -8.5250316866  W2        1472            0.0000000000
      4417      1473  TIP3      OH2             0.3888315875      -10.7537899386       -8.3210816866  W2        1473            0.0000000000
      4418      1473  TIP3      H1             -0.2972384125      -10.4015399386       -7.7541116866  W2        1473            0.0000000000
      4419      1473  TIP3      H2              0.9116215875       -9.9908299386       -8.5676516866  W2        1473            0.0000000000
      4420      1474  TIP3      OH2             8.2203415875      -18.0914099386        1.9578183134  W2        1474            0.0000000000
      4421      1474  TIP3      H1              8.9191315875      -18.0175399386        2.6077883134  W2        1474            0.0000000000
      4422      1474  TIP3      H2              7.8394815875      -18.9559099386        2.1121083134  W2        1474            0.0000000000
      4423      1475  TIP3      OH2             9.0048315875      -18.4392399386       -6.9449516866  W2        1475            0.0000000000
      4424      1475  TIP3      H1              9.2246615875      -17.9676999386       -7.7484116866  W2        1475            0.0000000000
      4425      1475  TIP3      H2              9.5632315875      -18.0449799386       -6.2748916866  W2        1475            0.0000000000
      4426      1476  TIP3      OH2             6.6734415875       -6.3087599386       -8.0822016866  W2        1476            0.0000000000
      4427      1476  TIP3      H1              5.8570515875       -5.8117899386       -8.0297716866  W2        1476            0.0000000000
      4428      1476  TIP3      H2              7.2030715875       -5.8334099386       -8.7223216866  W2        1476            0.0000000000
      4429      1477  TIP3      OH2             6.2048215875      -16.7113599386       -6.1101116866  W2        1477            0.0000000000
      4430      1477  TIP3      H1              7.0170815875      -16.2070399386       -6.0639416866  W2        1477            0.0000000000
      4431      1477  TIP3      H2              5.9601215875      -16.8563899386       -5.1961516866  W2        1477            0.0000000000
      4432      1478  TIP3      OH2             6.7404615875      -15.7250899386        3.0745483134  W2        1478            0.0000000000
      4433      1478  TIP3      H1              6.8594915875      -15.1515499386        3.8315883134  W2        1478            0.0000000000
      4434      1478  TIP3      H2              7.3959215875      -16.4131499386        3.1893283134  W2        1478            0.0000000000
      4435      1479  TIP3      OH2             7.0884915875      -19.6300599386       -5.1720016866  W2        1479            0.0000000000
      4436      1479  TIP3      H1              6.7418415875      -19.0129999386       -4.5275716866  W2        1479            0.0000000000
      4437      1479  TIP3      H2              7.7471815875      -19.1294899386       -5.6534516866  W2        1479            0.0000000000
      4438      1480  TIP3      OH2             4.0117515875       -5.2650399386       -8.1005116866  W2        1480            0.0000000000
      4439      1480  TIP3      H1              4.1726215875       -4.4652899386       -8.6012516866  W2        1480            0.0000000000
      4440      1480  TIP3      H2              3.8145315875       -4.9584399386       -7.2154516866  W2        1480            0.0000000000
      4441      1481  TIP3      OH2             2.7461915875      -18.5671199386       -8.4847516866  W2        1481            0.0000000000
      4442      1481  TIP3      H1              2.6626715875      -17.6788099386       -8.1381116866  W2        1481            0.0000000000
      4443      1481  TIP3      H2              3.6362215875      -18.8324499386       -8.2530716866  W2        1481            0.0000000000
      4444      1482  TIP3      OH2            12.9450415875      -17.8180599386        3.9095183134  W2        1482            0.0000000000
      4445      1482  TIP3      H1             12.0286215875      -17.5558899386        3.8218883134  W2        1482            0.0000000000
      4446      1482  TIP3      H2             13.2805415875      -17.8211599386        3.0130483134  W2        1482            0.0000000000
      4447      1483  TIP3      OH2            11.5471415875      -14.0679599386       -1.9947516866  W2        1483            0.0000000000
      4448      1483  TIP3      H1             10.7495815875      -14.4829399386       -2.3232516866  W2        1483            0.0000000000
      4449      1483  TIP3      H2             11.9922515875      -14.7585899386       -1.5037016866  W2        1483            0.0000000000
      4450      1484  TIP3      OH2             1.0047215875       -8.1398999386       -9.4243016866  W2        1484            0.0000000000
      4451      1484  TIP3      H1              1.5968715875       -7.4404199386       -9.1480616866  W2        1484            0.0000000000
      4452      1484  TIP3      H2              1.4640215875       -8.5729499386      -10.1438416866  W2        1484            0.0000000000
      4453      1485  TIP3      OH2            -0.6793584125      -15.4755999386      -10.3083616866  W2        1485            0.0000000000
      4454      1485  TIP3      H1             -0.7240984125      -14.5362899386      -10.1296616866  W2        1485            0.0000000000
      4455      1485  TIP3      H2             -1.5670384125      -15.7111099386      -10.5781516866  W2        1485            0.0000000000
      4456      1486  TIP3      OH2            12.6336015875       -4.8117099386       -0.3724016866  W2        1486            0.0000000000
      4457      1486  TIP3      H1             12.4780315875       -4.1332699386       -1.0294716866  W2        1486            0.0000000000
      4458      1486  TIP3      H2             13.5662415875       -4.7397799386       -0.1693416866  W2        1486            0.0000000000
      4459      1487  TIP3      OH2             0.1288415875      -20.6939399386       -1.6352616866  W2        1487            0.0000000000
      4460      1487  TIP3      H1             -0.1001784125      -20.6346899386       -2.5627616866  W2        1487            0.0000000000
      4461      1487  TIP3      H2             -0.3138184125      -21.4853899386       -1.3288516866  W2        1487            0.0000000000
      4462      1488  TIP3      OH2            -0.9408284125       -6.7532299386       -5.4746816866  W2        1488            0.0000000000
      4463      1488  TIP3      H1             -1.7729684125       -6.2809599386       -5.4475416866  W2        1488            0.0000000000
      4464      1488  TIP3      H2             -0.3949984125       -6.2434699386       -6.0733716866  W2        1488            0.0000000000
      4465      1489  TIP3      OH2            -1.6524584125       -4.1408599386        5.8551183134  W2        1489            0.0000000000
      4466      1489  TIP3      H1             -1.1122384125       -4.3574599386        6.6150383134  W2        1489            0.0000000000
      4467      1489  TIP3      H2             -2.1336584125       -4.9462599386        5.6653683134  W2        1489            0.0000000000
      4468      1490  TIP3      OH2             2.9448815875       -5.2214199386        7.4755383134  W2        1490            0.0000000000
      4469      1490  TIP3      H1              3.7126015875       -5.6803399386        7.8164583134  W2        1490            0.0000000000
      4470      1490  TIP3      H2              2.9235015875       -5.4474399386        6.5456583134  W2        1490            0.0000000000
      4471      1491  TIP3      OH2             7.0368415875       -5.7133599386      -11.1492816866  W2        1491            0.0000000000
      4472      1491  TIP3      H1              6.3929415875       -6.3444999386      -10.8279116866  W2        1491            0.0000000000
      4473      1491  TIP3      H2              7.7986715875       -6.2445599386      -11.3809316866  W2        1491            0.0000000000
      4474      1492  TIP3      OH2             9.5217515875       -6.8413099386        6.2046883134  W2        1492            0.0000000000
      4475      1492  TIP3      H1              9.1707015875       -7.6980099386        6.4477283134  W2        1492            0.0000000000
      4476      1492  TIP3      H2             10.2480715875       -6.6986399386        6.8115883134  W2        1492            0.0000000000
      4477      1493  TIP3      OH2            11.6411315875       -5.8963699386      -10.9154816866  W2        1493            0.0000000000
      4478      1493  TIP3      H1             11.9241715875       -6.6908499386      -10.4627916866  W2        1493            0.0000000000
      4479      1493  TIP3      H2             12.3809215875       -5.6632699386      -11.4763716866  W2        1493            0.0000000000
      4480      1494  TIP3      OH2            -1.7455084125      -10.3304499386        6.8095483134  W2        1494            0.0000000000
      4481      1494  TIP3      H1             -1.6014584125      -11.2323799386        6.5232183134  W2        1494            0.0000000000
      4482      1494  TIP3      H2             -2.5177684125      -10.0442399386        6.3217783134  W2        1494            0.0000000000
      4483      1495  TIP3      OH2             2.5958615875       -9.9868799386      -11.0579916866  W2        1495            0.0000000000
      4484      1495  TIP3      H1              2.6602715875      -10.7809199386      -10.5273516866  W2        1495            0.0000000000
      4485      1495  TIP3      H2              3.2487815875      -10.1055999386      -11.7477916866  W2        1495            0.0000000000
      4486      1496  TIP3      OH2             4.9101015875      -10.3606399386        6.2421883134  W2        1496            0.0000000000
      4487      1496  TIP3      H1              4.5814815875      -10.0898299386        5.3849283134  W2        1496            0.0000000000
      4488      1496  TIP3      H2              5.0619215875      -11.3016599386        6.1546883134  W2        1496            0.0000000000
      4489      1497  TIP3      OH2             7.9482015875       -8.9397099386      -11.3221916866  W2        1497            0.0000000000
      4490      1497  TIP3      H1              7.6796115875       -8.7594999386      -10.4213016866  W2        1497            0.0000000000
      4491      1497  TIP3      H2              7.7417615875       -9.8650899386      -11.4536116866  W2        1497            0.0000000000
      4492      1498  TIP3      OH2            10.6446215875      -10.4449099386        3.6254183134  W2        1498            0.0000000000
      4493      1498  TIP3      H1             11.3901015875       -9.8565399386        3.5058183134  W2        1498            0.0000000000
      4494      1498  TIP3      H2              9.8873015875       -9.8629399386        3.6887283134  W2        1498            0.0000000000
      4495      1499  TIP3      OH2            -0.9128584125      -13.1301199386        6.2294783134  W2        1499            0.0000000000
      4496      1499  TIP3      H1             -0.5047384125      -13.9874599386        6.1085383134  W2        1499            0.0000000000
      4497      1499  TIP3      H2             -1.1730984125      -13.1159899386        7.1505083134  W2        1499            0.0000000000
      4498      1500  TIP3      OH2             3.7452415875      -12.0142599386       -8.7521916866  W2        1500            0.0000000000
      4499      1500  TIP3      H1              3.2854415875      -12.4984299386       -8.0663416866  W2        1500            0.0000000000
      4500      1500  TIP3      H2              4.0001115875      -12.6827199386       -9.3881416866  W2        1500            0.0000000000
      4501      1501  TIP3      OH2             3.0341715875      -14.1215499386        3.6037683134  W2        1501            0.0000000000
      4502      1501  TIP3      H1              2.4157815875      -13.4468899386        3.8842383134  W2        1501            0.0000000000
      4503      1501  TIP3      H2              3.3782915875      -13.8001599386        2.7703883134  W2        1501            0.0000000000
      4504      1502  TIP3      OH2             4.8162815875      -13.7710799386      -10.4898716866  W2        1502            0.0000000000
      4505      1502  TIP3      H1              4.6357815875      -13.9259599386      -11.4170416866  W2        1502            0.0000000000
      4506      1502  TIP3      H2              5.7663315875      -13.6632099386      -10.4450816866  W2        1502            0.0000000000
      4507      1503  TIP3      OH2             8.0539915875      -11.6500199386        6.8812483134  W2        1503            0.0000000000
      4508      1503  TIP3      H1              9.0071115875      -11.5661099386        6.8538483134  W2        1503            0.0000000000
      4509      1503  TIP3      H2              7.8934515875      -12.3618399386        7.5007383134  W2        1503            0.0000000000
      4510      1504  TIP3      OH2            14.2061115875      -11.4166599386      -11.0440616866  W2        1504            0.0000000000
      4511      1504  TIP3      H1             13.9325915875      -11.8411099386      -11.8572316866  W2        1504            0.0000000000
      4512      1504  TIP3      H2             14.2455215875      -10.4852099386      -11.2610216866  W2        1504            0.0000000000
      4513      1505  TIP3      OH2             3.3735415875      -16.7664699386        4.6860783134  W2        1505            0.0000000000
      4514      1505  TIP3      H1              3.5236315875      -17.4953399386        4.0840483134  W2        1505            0.0000000000
      4515      1505  TIP3      H2              3.3757815875      -15.9892999386        4.1272983134  W2        1505            0.0000000000
      4516      1506  TIP3      OH2             3.7861115875      -18.3968899386        2.1788183134  W2        1506            0.0000000000
      4517      1506  TIP3      H1              4.3218615875      -17.9452199386        1.5267483134  W2        1506            0.0000000000
      4518      1506  TIP3      H2              2.9340715875      -18.5049099386        1.7562283134  W2        1506            0.0000000000
      4519      1507  TIP3      OH2             5.3679515875      -12.9572699386        2.4183383134  W2        1507            0.0000000000
      4520      1507  TIP3      H1              6.1184315875      -13.1135199386        1.8451183134  W2        1507            0.0000000000
      4521      1507  TIP3      H2              5.0287815875      -12.1056099386        2.1428883134  W2        1507            0.0000000000
      4522      1508  TIP3      OH2             9.7835715875      -15.1420899386        7.4468683134  W2        1508            0.0000000000
      4523      1508  TIP3      H1              9.9757015875      -16.0731499386        7.3353183134  W2        1508            0.0000000000
      4524      1508  TIP3      H2             10.6412015875      -14.7171399386        7.4364083134  W2        1508            0.0000000000
      4525      1509  TIP3      OH2            11.1002915875      -12.3535699386        5.5241383134  W2        1509            0.0000000000
      4526      1509  TIP3      H1             10.8187915875      -11.6441099386        4.9465183134  W2        1509            0.0000000000
      4527      1509  TIP3      H2             12.0427215875      -12.4262699386        5.3732583134  W2        1509            0.0000000000
      4528      1510  TIP3      OH2             1.8521715875      -15.5681199386        6.5976383134  W2        1510            0.0000000000
      4529      1510  TIP3      H1              1.0850715875      -16.1006399386        6.3873983134  W2        1510            0.0000000000
      4530      1510  TIP3      H2              2.5310715875      -15.8780799386        5.9982683134  W2        1510            0.0000000000
      4531      1511  TIP3      OH2             4.5916615875      -20.9403199386        2.6101783134  W2        1511            0.0000000000
      4532      1511  TIP3      H1              4.4936215875      -19.9939999386        2.5047983134  W2        1511            0.0000000000
      4533      1511  TIP3      H2              3.8492815875      -21.3129399386        2.1345283134  W2        1511            0.0000000000
      4534      1512  TIP3      OH2             5.8557115875      -16.6187799386        6.1740183134  W2        1512            0.0000000000
      4535      1512  TIP3      H1              5.6202515875      -16.8381099386        7.0755083134  W2        1512            0.0000000000
      4536      1512  TIP3      H2              5.0724015875      -16.8256599386        5.6642683134  W2        1512            0.0000000000
      4537      1513  TIP3      OH2             8.5713715875      -17.4914299386        5.2493683134  W2        1513            0.0000000000
      4538      1513  TIP3      H1              7.6239115875      -17.4594599386        5.3816983134  W2        1513            0.0000000000
      4539      1513  TIP3      H2              8.8840415875      -18.1167199386        5.9031883134  W2        1513            0.0000000000
      4540      1514  TIP3      OH2            10.2055215875      -18.8573199386        7.2545583134  W2        1514            0.0000000000
      4541      1514  TIP3      H1             10.1087015875      -19.8095899386        7.2487483134  W2        1514            0.0000000000
      4542      1514  TIP3      H2              9.8838315875      -18.5886399386        8.1151083134  W2        1514            0.0000000000
      4543      1515  TIP3      OH2             0.0324515875      -17.6477399386        6.3021083134  W2        1515            0.0000000000
      4544      1515  TIP3      H1              0.2441915875      -18.3541299386        5.6918583134  W2        1515            0.0000000000
      4545      1515  TIP3      H2             -0.0787984125      -18.0851399386        7.1462283134  W2        1515            0.0000000000
      4546      1516  TIP3      OH2             4.8134715875      -21.6465799386        5.2814583134  W2        1516            0.0000000000
      4547      1516  TIP3      H1              5.5253115875      -22.2863599386        5.2673683134  W2        1516            0.0000000000
      4548      1516  TIP3      H2              4.7125115875      -21.3797499386        4.3677683134  W2        1516            0.0000000000
      4549      1517  TIP3      OH2             5.1672215875      -19.9637399386        7.3350883134  W2        1517            0.0000000000
      4550      1517  TIP3      H1              5.0354415875      -20.4393599386        6.5149383134  W2        1517            0.0000000000
      4551      1517  TIP3      H2              4.5679615875      -19.2193799386        7.2797983134  W2        1517            0.0000000000
      4552      1518  TIP3      OH2             4.7134515875       -3.0807099386       -9.4885116866  W2        1518            0.0000000000
      4553      1518  TIP3      H1              5.6465215875       -2.9228399386       -9.3446716866  W2        1518            0.0000000000
      4554      1518  TIP3      H2              4.4493315875       -2.4054099386      -10.1133616866  W2        1518            0.0000000000
      4555      1519  TIP3      OH2            -1.7180584125       -8.4443299386      -10.0057016866  W2        1519            0.0000000000
      4556      1519  TIP3      H1             -0.8041384125       -8.3654399386       -9.7323116866  W2        1519            0.0000000000
      4557      1519  TIP3      H2             -1.7107484125       -9.1313699386      -10.6721416866  W2        1519            0.0000000000
      4558      1520  TIP3      OH2            -3.0689984125       -3.0514799386       -4.9283116866  W2        1520            0.0000000000
      4559      1520  TIP3      H1             -3.7162884125       -3.5133099386       -5.4611916866  W2        1520            0.0000000000
      4560      1520  TIP3      H2             -2.7145384125       -3.7231499386       -4.3456916866  W2        1520            0.0000000000
      4561      1521  TIP3      OH2            -2.1990784125       -4.9707799386       -3.1236916866  W2        1521            0.0000000000
      4562      1521  TIP3      H1             -2.5333984125       -5.8510499386       -2.9516716866  W2        1521            0.0000000000
      4563      1521  TIP3      H2             -1.9768384125       -4.6252799386       -2.2591316866  W2        1521            0.0000000000
      4564      1522  TIP3      OH2            15.3494015875       -4.1611399386       -0.1432116866  W2        1522            0.0000000000
      4565      1522  TIP3      H1             15.3280715875       -3.9762999386        0.7957283134  W2        1522            0.0000000000
      4566      1522  TIP3      H2             16.0400215875       -3.5927399386       -0.4840716866  W2        1522            0.0000000000
      4567      1523  TIP3      OH2            14.9126915875       -4.5940299386        2.7786983134  W2        1523            0.0000000000
      4568      1523  TIP3      H1             14.4255615875       -5.3296199386        2.4074383134  W2        1523            0.0000000000
      4569      1523  TIP3      H2             15.4619615875       -4.9876399386        3.4566383134  W2        1523            0.0000000000
      4570      1524  TIP3      OH2            13.3634215875       -8.8042199386        7.4167283134  W2        1524            0.0000000000
      4571      1524  TIP3      H1             12.4975315875       -8.9092499386        7.8109583134  W2        1524            0.0000000000
      4572      1524  TIP3      H2             13.7400115875       -8.0458899386        7.8631983134  W2        1524            0.0000000000
      4573      1525  TIP3      OH2            14.6643915875      -10.5478499386       -7.0690216866  W2        1525            0.0000000000
      4574      1525  TIP3      H1             15.5145315875      -10.1267599386       -6.9418616866  W2        1525            0.0000000000
      4575      1525  TIP3      H2             14.6699015875      -11.2878399386       -6.4618816866  W2        1525            0.0000000000
      4576      1526  TIP3      OH2            15.0589515875      -12.4941099386       -5.2454516866  W2        1526            0.0000000000
      4577      1526  TIP3      H1             14.3324115875      -12.9738499386       -4.8476916866  W2        1526            0.0000000000
      4578      1526  TIP3      H2             15.6402815875      -12.2886399386       -4.5132916866  W2        1526            0.0000000000
      4579      1527  TIP3      OH2            14.8180715875       -9.7093599386       -0.2976916866  W2        1527            0.0000000000
      4580      1527  TIP3      H1             15.6514915875      -10.0873599386       -0.5783316866  W2        1527            0.0000000000
      4581      1527  TIP3      H2             14.9301015875       -8.7662399386       -0.4167816866  W2        1527            0.0000000000
      4582      1528  TIP3      OH2            13.3043015875       -6.8316099386        2.0091483134  W2        1528            0.0000000000
      4583      1528  TIP3      H1             12.6568315875       -6.5064599386        2.6346683134  W2        1528            0.0000000000
      4584      1528  TIP3      H2             12.7867015875       -7.2718399386        1.3349783134  W2        1528            0.0000000000
      4585      1529  TIP3      OH2            15.3272615875      -12.5932599386       -8.8543216866  W2        1529            0.0000000000
      4586      1529  TIP3      H1             14.8053715875      -12.2368499386       -9.5732316866  W2        1529            0.0000000000
      4587      1529  TIP3      H2             15.2941815875      -11.9184799386       -8.1762316866  W2        1529            0.0000000000
      4588      1530  TIP3      OH2            13.6761615875      -15.3536999386      -10.3036116866  W2        1530            0.0000000000
      4589      1530  TIP3      H1             13.7726015875      -14.6869999386      -10.9836416866  W2        1530            0.0000000000
      4590      1530  TIP3      H2             13.5361215875      -16.1690699386      -10.7850616866  W2        1530            0.0000000000
      4591      1531  TIP3      OH2            12.8456315875      -13.9734599386       -4.6825816866  W2        1531            0.0000000000
      4592      1531  TIP3      H1             12.6955115875      -14.9185999386       -4.7028016866  W2        1531            0.0000000000
      4593      1531  TIP3      H2             12.4920815875      -13.6923199386       -3.8386716866  W2        1531            0.0000000000
      4594      1532  TIP3      OH2            -2.1191284125      -11.8952399386       -0.6722016866  W2        1532            0.0000000000
      4595      1532  TIP3      H1             -1.9348384125      -11.9770699386       -1.6079116866  W2        1532            0.0000000000
      4596      1532  TIP3      H2             -1.2698384125      -12.0195399386       -0.2485616866  W2        1532            0.0000000000
      4597      1533  TIP3      OH2            13.7019215875      -12.0031299386        4.9562483134  W2        1533            0.0000000000
      4598      1533  TIP3      H1             14.2846515875      -12.7378999386        5.1479683134  W2        1533            0.0000000000
      4599      1533  TIP3      H2             14.2658515875      -11.2310999386        5.0028283134  W2        1533            0.0000000000
      4600      1534  TIP3      OH2            15.1986315875      -14.1005499386        5.6407883134  W2        1534            0.0000000000
      4601      1534  TIP3      H1             14.3353015875      -14.4793399386        5.4752583134  W2        1534            0.0000000000
      4602      1534  TIP3      H2             15.8030015875      -14.8390699386        5.5663683134  W2        1534            0.0000000000
      4603      1535  TIP3      OH2            12.9235415875      -17.9457199386      -11.1860616866  W2        1535            0.0000000000
      4604      1535  TIP3      H1             13.5341215875      -18.3170399386      -10.5492416866  W2        1535            0.0000000000
      4605      1535  TIP3      H2             12.0866915875      -18.3670299386      -10.9900616866  W2        1535            0.0000000000
      4606      1536  TIP3      OH2            12.5561115875      -16.3908799386       -6.2200716866  W2        1536            0.0000000000
      4607      1536  TIP3      H1             12.8358215875      -17.2978399386       -6.0959016866  W2        1536            0.0000000000
      4608      1536  TIP3      H2             13.3152815875      -15.9567299386       -6.6091516866  W2        1536            0.0000000000
      4609      1537  TIP3      OH2            13.1679415875      -15.8091399386       -0.7841816866  W2        1537            0.0000000000
      4610      1537  TIP3      H1             14.1007415875      -15.5971499386       -0.8185816866  W2        1537            0.0000000000
      4611      1537  TIP3      H2             12.9326915875      -15.7079299386        0.1381183134  W2        1537            0.0000000000
      4612      1538  TIP3      OH2            13.1971315875      -15.0726099386        1.9917583134  W2        1538            0.0000000000
      4613      1538  TIP3      H1             12.3542615875      -14.8045699386        2.3577383134  W2        1538            0.0000000000
      4614      1538  TIP3      H2             13.6395615875      -14.2504199386        1.7808683134  W2        1538            0.0000000000
      4615      1539  TIP3      OH2            -2.5216484125      -16.6247399386        5.4686783134  W2        1539            0.0000000000
      4616      1539  TIP3      H1             -1.6021584125      -16.7469099386        5.7049883134  W2        1539            0.0000000000
      4617      1539  TIP3      H2             -2.9711984125      -17.3747699386        5.8580283134  W2        1539            0.0000000000
      4618      1540  TIP3      OH2            15.4802915875      -21.0925899386        7.3452583134  W2        1540            0.0000000000
      4619      1540  TIP3      H1             15.8299915875      -21.7462399386        6.7397283134  W2        1540            0.0000000000
      4620      1540  TIP3      H2             15.6272415875      -20.2551799386        6.9055183134  W2        1540            0.0000000000
      4621      1541  TIP3      OH2            13.1695915875      -19.1279499386       -6.1718716866  W2        1541            0.0000000000
      4622      1541  TIP3      H1             13.3520915875      -19.5767999386       -5.3463716866  W2        1541            0.0000000000
      4623      1541  TIP3      H2             12.5698815875      -19.7125099386       -6.6354116866  W2        1541            0.0000000000
      4624      1542  TIP3      OH2            -1.3003984125      -18.3125799386       -1.6400316866  W2        1542            0.0000000000
      4625      1542  TIP3      H1             -0.8552384125      -19.1043299386       -1.3380616866  W2        1542            0.0000000000
      4626      1542  TIP3      H2             -0.8340984125      -17.5960599386       -1.2094716866  W2        1542            0.0000000000
      4627      1543  TIP3      OH2            -2.9963684125      -15.3132799386       -0.5710116866  W2        1543            0.0000000000
      4628      1543  TIP3      H1             -2.5043884125      -15.5342299386       -1.3618116866  W2        1543            0.0000000000
      4629      1543  TIP3      H2             -2.6342784125      -14.4729399386       -0.2900616866  W2        1543            0.0000000000
      4630      1544  TIP3      OH2            15.0000115875      -18.9831299386        5.6943883134  W2        1544            0.0000000000
      4631      1544  TIP3      H1             14.0825815875      -18.7124199386        5.6587383134  W2        1544            0.0000000000
      4632      1544  TIP3      H2             15.1229515875      -19.5182899386        4.9103583134  W2        1544            0.0000000000
      4633      1545  TIP3      OH2            15.0362115875      -19.0601399386       -9.6438416866  W2        1545            0.0000000000
      4634      1545  TIP3      H1             15.4484715875      -19.7815699386      -10.1190416866  W2        1545            0.0000000000
      4635      1545  TIP3      H2             15.7178615875      -18.3906799386       -9.5854116866  W2        1545            0.0000000000
      4636      1546  TIP3      OH2            -2.6827184125      -19.0553699386       -6.5167716866  W2        1546            0.0000000000
      4637      1546  TIP3      H1             -3.6078784125      -18.8467099386       -6.6462216866  W2        1546            0.0000000000
      4638      1546  TIP3      H2             -2.2287284125      -18.5712899386       -7.2065416866  W2        1546            0.0000000000
      4639      1547  TIP3      OH2            12.0880015875       -4.0711999386       -4.5710316866  W2        1547            0.0000000000
      4640      1547  TIP3      H1             12.7402915875       -4.4189899386       -5.1791216866  W2        1547            0.0000000000
      4641      1547  TIP3      H2             12.5983815875       -3.5828799386       -3.9250616866  W2        1547            0.0000000000
      4642      1548  TIP3      OH2            -2.7191784125      -20.3174699386        1.8274783134  W2        1548            0.0000000000
      4643      1548  TIP3      H1             -3.3841284125      -20.5634399386        2.4705683134  W2        1548            0.0000000000
      4644      1548  TIP3      H2             -3.1620484125      -19.6954299386        1.2502783134  W2        1548            0.0000000000
      4645      1549  TIP3      OH2            -0.5272484125       -7.1420599386        5.9720583134  W2        1549            0.0000000000
      4646      1549  TIP3      H1             -1.3479984125       -6.9674099386        5.5115283134  W2        1549            0.0000000000
      4647      1549  TIP3      H2             -0.7794684125       -7.2155899386        6.8924983134  W2        1549            0.0000000000
      4648      1550  TIP3      OH2             2.4270415875       -6.1679399386        2.2304583134  W2        1550            0.0000000000
      4649      1550  TIP3      H1              2.0021515875       -5.3580899386        1.9479183134  W2        1550            0.0000000000
      4650      1550  TIP3      H2              3.3313215875       -6.0825299386        1.9284383134  W2        1550            0.0000000000
      4651      1551  TIP3      OH2             6.7381815875       -4.7689399386        5.1898283134  W2        1551            0.0000000000
      4652      1551  TIP3      H1              6.9229315875       -5.1023299386        6.0678583134  W2        1551            0.0000000000
      4653      1551  TIP3      H2              7.5846315875       -4.4590799386        4.8677483134  W2        1551            0.0000000000
      4654      1552  TIP3      OH2             9.0832215875       -3.4830499386        4.4339683134  W2        1552            0.0000000000
      4655      1552  TIP3      H1              9.7601115875       -4.1158199386        4.1938883134  W2        1552            0.0000000000
      4656      1552  TIP3      H2              9.4051015875       -3.0819999386        5.2412983134  W2        1552            0.0000000000
      4657      1553  TIP3      OH2            14.0006015875      -20.8934999386        3.5134683134  W2        1553            0.0000000000
      4658      1553  TIP3      H1             13.1879515875      -20.5684699386        3.1259383134  W2        1553            0.0000000000
      4659      1553  TIP3      H2             14.2334515875      -21.6536499386        2.9803783134  W2        1553            0.0000000000
      4660      1554  TIP3      OH2            -0.1712884125       -2.9115499386        2.2779883134  W2        1554            0.0000000000
      4661      1554  TIP3      H1             -0.8916484125       -2.4714499386        1.8267583134  W2        1554            0.0000000000
      4662      1554  TIP3      H2             -0.5368884125       -3.1620799386        3.1263883134  W2        1554            0.0000000000
      4663      1555  TIP3      OH2             2.2959715875       -3.3111599386        1.3077083134  W2        1555            0.0000000000
      4664      1555  TIP3      H1              1.4311915875       -3.2393099386        1.7117183134  W2        1555            0.0000000000
      4665      1555  TIP3      H2              2.2408715875       -2.7644299386        0.5239583134  W2        1555            0.0000000000
      4666      1556  TIP3      OH2             7.0065315875       -3.4232699386        0.4833083134  W2        1556            0.0000000000
      4667      1556  TIP3      H1              6.5499315875       -2.8942999386       -0.1708516866  W2        1556            0.0000000000
      4668      1556  TIP3      H2              7.1693315875       -2.8201299386        1.2085383134  W2        1556            0.0000000000
      4669      1557  TIP3      OH2             9.3341615875       -4.5453099386        1.4283383134  W2        1557            0.0000000000
      4670      1557  TIP3      H1              8.4295315875       -4.3802899386        1.1625483134  W2        1557            0.0000000000
      4671      1557  TIP3      H2              9.7630215875       -3.6920899386        1.3626783134  W2        1557            0.0000000000
      4672      1558  TIP3      OH2            11.9383515875       -2.9753999386        1.7231183134  W2        1558            0.0000000000
      4673      1558  TIP3      H1             11.7565515875       -2.0595099386        1.5126083134  W2        1558            0.0000000000
      4674      1558  TIP3      H2             12.1151315875       -3.3856899386        0.8765783134  W2        1558            0.0000000000
      4675      1559  TIP3      OH2            -0.7564784125       -4.2882999386       -0.8118316866  W2        1559            0.0000000000
      4676      1559  TIP3      H1             -0.7748784125       -4.7137899386        0.0453983134  W2        1559            0.0000000000
      4677      1559  TIP3      H2              0.0483115875       -4.6067999386       -1.2206116866  W2        1559            0.0000000000
      4678      1560  TIP3      OH2             1.3848315875       -5.5784299386       -2.1568416866  W2        1560            0.0000000000
      4679      1560  TIP3      H1              1.1659015875       -6.4946899386       -1.9872416866  W2        1560            0.0000000000
      4680      1560  TIP3      H2              2.2090515875       -5.4383899386       -1.6907016866  W2        1560            0.0000000000
      4681      1561  TIP3      OH2             3.9220815875       -5.1084999386       -1.3080416866  W2        1561            0.0000000000
      4682      1561  TIP3      H1              4.1346515875       -5.9965999386       -1.5949516866  W2        1561            0.0000000000
      4683      1561  TIP3      H2              3.9865915875       -5.1427299386       -0.3536416866  W2        1561            0.0000000000
      4684      1562  TIP3      OH2             7.4304515875      -19.4444399386       -2.1637116866  W2        1562            0.0000000000
      4685      1562  TIP3      H1              6.7561315875      -20.0738799386       -1.9081316866  W2        1562            0.0000000000
      4686      1562  TIP3      H2              7.9943715875      -19.9285499386       -2.7669216866  W2        1562            0.0000000000
      4687      1563  TIP3      OH2            12.5731715875      -21.3370399386       -2.0510016866  W2        1563            0.0000000000
      4688      1563  TIP3      H1             13.1769315875      -20.7894999386       -2.5529016866  W2        1563            0.0000000000
      4689      1563  TIP3      H2             11.7033715875      -21.0179999386       -2.2915916866  W2        1563            0.0000000000
      4690      1564  TIP3      OH2            14.3002115875      -20.1981699386       -3.7179116866  W2        1564            0.0000000000
      4691      1564  TIP3      H1             14.9119615875      -20.7125999386       -4.2445516866  W2        1564            0.0000000000
      4692      1564  TIP3      H2             14.6825515875      -19.3209599386       -3.6944716866  W2        1564            0.0000000000
      4693      1565  TIP3      OH2            -0.2427984125      -20.8104099386       -4.3417216866  W2        1565            0.0000000000
      4694      1565  TIP3      H1             -1.0198184125      -21.0449199386       -4.8491316866  W2        1565            0.0000000000
      4695      1565  TIP3      H2              0.2875615875      -21.6071999386       -4.3329216866  W2        1565            0.0000000000
      4696      1566  TIP3      OH2            -1.4064584125      -21.0125999386       -8.5381116866  W2        1566            0.0000000000
      4697      1566  TIP3      H1             -0.9673884125      -20.4015499386       -9.1297616866  W2        1566            0.0000000000
      4698      1566  TIP3      H2             -2.0402184125      -20.4741899386       -8.0641116866  W2        1566            0.0000000000
      4699      1567  TIP3      OH2             4.3364615875      -20.8836999386       -4.5284116866  W2        1567            0.0000000000
      4700      1567  TIP3      H1              5.2108015875      -20.4952699386       -4.5579816866  W2        1567            0.0000000000
      4701      1567  TIP3      H2              4.2005415875      -21.0989199386       -3.6056916866  W2        1567            0.0000000000
      4702      1568  TIP3      OH2             9.8933015875      -20.8537199386       -2.8792416866  W2        1568            0.0000000000
      4703      1568  TIP3      H1              9.9694615875      -20.7585599386       -3.8286416866  W2        1568            0.0000000000
      4704      1568  TIP3      H2              9.6182215875      -21.7614299386       -2.7503316866  W2        1568            0.0000000000
      4705      1569  TIP3      OH2            11.2465615875      -20.8279399386       -7.1867416866  W2        1569            0.0000000000
      4706      1569  TIP3      H1             10.5436715875      -20.2130199386       -7.3966016866  W2        1569            0.0000000000
      4707      1569  TIP3      H2             10.8017015875      -21.6652699386       -7.0556516866  W2        1569            0.0000000000
      4708      1570  TIP3      OH2            -1.5055084125       -5.0643799386       -7.6406016866  W2        1570            0.0000000000
      4709      1570  TIP3      H1             -2.1905184125       -5.1024899386       -8.3080916866  W2        1570            0.0000000000
      4710      1570  TIP3      H2             -1.5017884125       -4.1516199386       -7.3523916866  W2        1570            0.0000000000
      4711      1571  TIP3      OH2             0.4544515875      -19.0964499386      -10.0957016866  W2        1571            0.0000000000
      4712      1571  TIP3      H1              0.9457915875      -19.7262099386      -10.6231516866  W2        1571            0.0000000000
      4713      1571  TIP3      H2              1.0780815875      -18.8005099386       -9.4325816866  W2        1571            0.0000000000
      4714      1572  TIP3      OH2             5.4804615875      -18.8032999386       -7.6386516866  W2        1572            0.0000000000
      4715      1572  TIP3      H1              5.6585915875      -19.4499799386       -6.9557916866  W2        1572            0.0000000000
      4716      1572  TIP3      H2              5.4270815875      -17.9695299386       -7.1715416866  W2        1572            0.0000000000
      4717      1573  TIP3      OH2             7.3588415875       -3.8548899386       -9.2429816866  W2        1573            0.0000000000
      4718      1573  TIP3      H1              8.2248615875       -3.4881499386       -9.4211616866  W2        1573            0.0000000000
      4719      1573  TIP3      H2              7.1121215875       -4.2940899386      -10.0569016866  W2        1573            0.0000000000
      4720      1574  TIP3      OH2            14.0678015875       -4.2918599386       -6.5638716866  W2        1574            0.0000000000
      4721      1574  TIP3      H1             13.8735115875       -5.0396499386       -7.1289116866  W2        1574            0.0000000000
      4722      1574  TIP3      H2             14.0288115875       -3.5338499386       -7.1470816866  W2        1574            0.0000000000
      4723      1575  TIP3      OH2            -0.2849984125      -20.2962199386        5.1758983134  W2        1575            0.0000000000
      4724      1575  TIP3      H1             -0.6511784125      -21.0619599386        5.6183683134  W2        1575            0.0000000000
      4725      1575  TIP3      H2              0.6278515875      -20.2671999386        5.4624083134  W2        1575            0.0000000000
      4726      1576  TIP3      OH2             1.6880815875      -20.9457799386        6.7116083134  W2        1576            0.0000000000
      4727      1576  TIP3      H1              2.5864415875      -21.2197599386        6.5269483134  W2        1576            0.0000000000
      4728      1576  TIP3      H2              1.3013915875      -21.6881799386        7.1758683134  W2        1576            0.0000000000
      4729      1577  TIP3      OH2             0.3126115875       -4.1442999386      -10.6153916866  W2        1577            0.0000000000
      4730      1577  TIP3      H1              0.0450715875       -3.8580099386       -9.7420816866  W2        1577            0.0000000000
      4731      1577  TIP3      H2              1.0838715875       -4.6903799386      -10.4631416866  W2        1577            0.0000000000
      4732      1578  TIP3      OH2            10.1093115875      -21.6132499386        6.8938883134  W2        1578            0.0000000000
      4733      1578  TIP3      H1             10.1860315875      -22.0391799386        7.7476583134  W2        1578            0.0000000000
      4734      1578  TIP3      H2             11.0029715875      -21.5997799386        6.5512383134  W2        1578            0.0000000000
      4735      1579  TIP3      OH2            13.2854215875       -5.5406199386        5.5863083134  W2        1579            0.0000000000
      4736      1579  TIP3      H1             12.5036115875       -5.7268199386        5.0663683134  W2        1579            0.0000000000
      4737      1579  TIP3      H2             13.2134115875       -4.6111899386        5.8035583134  W2        1579            0.0000000000
      4738      1580  TIP3      OH2            27.6914615875      -11.6541799386       -4.3829716866  W2        1580            0.0000000000
      4739      1580  TIP3      H1             27.7805715875      -10.7103599386       -4.5152616866  W2        1580            0.0000000000
      4740      1580  TIP3      H2             27.0532215875      -11.9295399386       -5.0410316866  W2        1580            0.0000000000
      4741      1581  TIP3      OH2            26.6245915875      -12.3991099386       -0.9641516866  W2        1581            0.0000000000
      4742      1581  TIP3      H1             26.5863415875      -13.0454799386       -0.2591916866  W2        1581            0.0000000000
      4743      1581  TIP3      H2             26.3022415875      -12.8656699386       -1.7352816866  W2        1581            0.0000000000
      4744      1582  TIP3      OH2            18.9930915875      -12.7848999386        0.6288383134  W2        1582            0.0000000000
      4745      1582  TIP3      H1             19.0343015875      -13.4105699386        1.3520783134  W2        1582            0.0000000000
      4746      1582  TIP3      H2             19.6958615875      -12.1610399386        0.8108783134  W2        1582            0.0000000000
      4747      1583  TIP3      OH2            30.3306115875       -9.4600699386       -2.6626416866  W2        1583            0.0000000000
      4748      1583  TIP3      H1             29.8898815875      -10.1804699386       -2.2120816866  W2        1583            0.0000000000
      4749      1583  TIP3      H2             30.3175815875       -8.7393499386       -2.0328716866  W2        1583            0.0000000000
      4750      1584  TIP3      OH2            19.9164015875       -8.3350099386       -0.8362516866  W2        1584            0.0000000000
      4751      1584  TIP3      H1             19.5469215875       -9.1369599386       -1.2058216866  W2        1584            0.0000000000
      4752      1584  TIP3      H2             20.8575115875       -8.5035199386       -0.7899116866  W2        1584            0.0000000000
      4753      1585  TIP3      OH2            16.5264515875      -14.6747499386       -5.4433716866  W2        1585            0.0000000000
      4754      1585  TIP3      H1             16.0787915875      -13.8288799386       -5.4617216866  W2        1585            0.0000000000
      4755      1585  TIP3      H2             15.9655715875      -15.2543299386       -5.9588616866  W2        1585            0.0000000000
      4756      1586  TIP3      OH2            17.2370615875      -12.5127899386       -3.3175716866  W2        1586            0.0000000000
      4757      1586  TIP3      H1             17.4504115875      -13.2826299386       -2.7902716866  W2        1586            0.0000000000
      4758      1586  TIP3      H2             17.9748215875      -12.4231199386       -3.9208116866  W2        1586            0.0000000000
      4759      1587  TIP3      OH2            27.4421615875       -4.3558999386       -2.4506016866  W2        1587            0.0000000000
      4760      1587  TIP3      H1             28.0618015875       -5.0324299386       -2.7236816866  W2        1587            0.0000000000
      4761      1587  TIP3      H2             27.2339015875       -4.5738199386       -1.5421116866  W2        1587            0.0000000000
      4762      1588  TIP3      OH2            25.0140315875       -9.9669699386       -0.5580516866  W2        1588            0.0000000000
      4763      1588  TIP3      H1             25.3178215875      -10.6528299386       -1.1526416866  W2        1588            0.0000000000
      4764      1588  TIP3      H2             25.7354315875       -9.8480999386        0.0597483134  W2        1588            0.0000000000
      4765      1589  TIP3      OH2            33.6770115875      -18.3654399386        0.3025683134  W2        1589            0.0000000000
      4766      1589  TIP3      H1             33.7262315875      -17.7553199386        1.0384783134  W2        1589            0.0000000000
      4767      1589  TIP3      H2             34.1025215875      -17.9043499386       -0.4203216866  W2        1589            0.0000000000
      4768      1590  TIP3      OH2            28.1547315875      -15.5727299386       -0.2305716866  W2        1590            0.0000000000
      4769      1590  TIP3      H1             28.2973215875      -16.5190299386       -0.2104116866  W2        1590            0.0000000000
      4770      1590  TIP3      H2             28.0486315875      -15.3657499386       -1.1590816866  W2        1590            0.0000000000
      4771      1591  TIP3      OH2            21.3095615875      -17.4710899386       -2.9580916866  W2        1591            0.0000000000
      4772      1591  TIP3      H1             21.3526715875      -16.6112399386       -3.3764616866  W2        1591            0.0000000000
      4773      1591  TIP3      H2             20.8519715875      -18.0236199386       -3.5917716866  W2        1591            0.0000000000
      4774      1592  TIP3      OH2            29.0318315875      -17.3405299386       -4.5572616866  W2        1592            0.0000000000
      4775      1592  TIP3      H1             29.6782615875      -17.6692099386       -3.9325016866  W2        1592            0.0000000000
      4776      1592  TIP3      H2             29.5417715875      -16.8226299386       -5.1801216866  W2        1592            0.0000000000
      4777      1593  TIP3      OH2            17.9297115875      -15.0745099386       -2.1959516866  W2        1593            0.0000000000
      4778      1593  TIP3      H1             18.5833715875      -15.6243399386       -1.7639416866  W2        1593            0.0000000000
      4779      1593  TIP3      H2             17.9536415875      -15.3486099386       -3.1127516866  W2        1593            0.0000000000
      4780      1594  TIP3      OH2            23.0861615875      -13.5243799386       -2.9808016866  W2        1594            0.0000000000
      4781      1594  TIP3      H1             23.7022615875      -14.0508399386       -2.4714016866  W2        1594            0.0000000000
      4782      1594  TIP3      H2             22.5000415875      -14.1645099386       -3.3844416866  W2        1594            0.0000000000
      4783      1595  TIP3      OH2            34.0684715875      -16.8875199386        2.5385483134  W2        1595            0.0000000000
      4784      1595  TIP3      H1             33.3799315875      -16.2294499386        2.4432083134  W2        1595            0.0000000000
      4785      1595  TIP3      H2             34.0839315875      -17.0847299386        3.4750883134  W2        1595            0.0000000000
      4786      1596  TIP3      OH2            20.1197515875      -18.5532499386        1.1159883134  W2        1596            0.0000000000
      4787      1596  TIP3      H1             19.9009215875      -18.0231899386        0.3495883134  W2        1596            0.0000000000
      4788      1596  TIP3      H2             19.4518415875      -18.3266999386        1.7631283134  W2        1596            0.0000000000
      4789      1597  TIP3      OH2            27.4887315875       -9.0531399386       -5.3401016866  W2        1597            0.0000000000
      4790      1597  TIP3      H1             27.1932415875       -9.3759099386       -6.1914116866  W2        1597            0.0000000000
      4791      1597  TIP3      H2             27.1645115875       -8.1534699386       -5.2988416866  W2        1597            0.0000000000
      4792      1598  TIP3      OH2            22.6888915875      -10.8776799386        1.4033583134  W2        1598            0.0000000000
      4793      1598  TIP3      H1             21.9488015875      -10.2795299386        1.5068783134  W2        1598            0.0000000000
      4794      1598  TIP3      H2             23.4028415875      -10.3237199386        1.0877183134  W2        1598            0.0000000000
      4795      1599  TIP3      OH2            30.7956715875      -18.0495999386       -2.5766716866  W2        1599            0.0000000000
      4796      1599  TIP3      H1             30.5804715875      -18.8152599386       -2.0440716866  W2        1599            0.0000000000
      4797      1599  TIP3      H2             31.4514115875      -17.5771399386       -2.0638216866  W2        1599            0.0000000000
      4798      1600  TIP3      OH2            19.7134815875      -16.6610699386       -0.9317916866  W2        1600            0.0000000000
      4799      1600  TIP3      H1             20.3271115875      -16.0283099386       -0.5585516866  W2        1600            0.0000000000
      4800      1600  TIP3      H2             20.2255515875      -17.1335699386       -1.5881016866  W2        1600            0.0000000000
      4801      1601  TIP3      OH2            21.0963215875       -8.9133799386        2.1905083134  W2        1601            0.0000000000
      4802      1601  TIP3      H1             21.0910815875       -8.0340299386        1.8124383134  W2        1601            0.0000000000
      4803      1601  TIP3      H2             20.2427315875       -8.9969699386        2.6154983134  W2        1601            0.0000000000
      4804      1602  TIP3      OH2            17.2174115875       -9.2425899386       -7.0275616866  W2        1602            0.0000000000
      4805      1602  TIP3      H1             16.9455015875       -9.0134899386       -7.9162716866  W2        1602            0.0000000000
      4806      1602  TIP3      H2             17.2629815875       -8.4047099386       -6.5670316866  W2        1602            0.0000000000
      4807      1603  TIP3      OH2            30.8423815875       -7.6209999386       -0.3147116866  W2        1603            0.0000000000
      4808      1603  TIP3      H1             29.9007515875       -7.5626099386       -0.1530216866  W2        1603            0.0000000000
      4809      1603  TIP3      H2             31.1189915875       -6.7149499386       -0.4517416866  W2        1603            0.0000000000
      4810      1604  TIP3      OH2            31.1430815875      -19.3344699386        1.1026783134  W2        1604            0.0000000000
      4811      1604  TIP3      H1             30.4070015875      -18.7237599386        1.0648083134  W2        1604            0.0000000000
      4812      1604  TIP3      H2             31.8264815875      -18.9195699386        0.5763183134  W2        1604            0.0000000000
      4813      1605  TIP3      OH2            24.1462215875      -21.2477399386       -1.4315216866  W2        1605            0.0000000000
      4814      1605  TIP3      H1             24.0286415875      -22.1961399386       -1.4856916866  W2        1605            0.0000000000
      4815      1605  TIP3      H2             23.2912315875      -20.9151299386       -1.1584116866  W2        1605            0.0000000000
      4816      1606  TIP3      OH2            29.0945015875       -5.8396499386       -3.6895516866  W2        1606            0.0000000000
      4817      1606  TIP3      H1             29.5197315875       -6.5468599386       -4.1745916866  W2        1606            0.0000000000
      4818      1606  TIP3      H2             29.4115015875       -5.0383799386       -4.1063316866  W2        1606            0.0000000000
      4819      1607  TIP3      OH2            30.2541515875       -7.9387999386       -5.1808916866  W2        1607            0.0000000000
      4820      1607  TIP3      H1             29.9966315875       -8.6287899386       -5.7923016866  W2        1607            0.0000000000
      4821      1607  TIP3      H2             30.3252315875       -8.3816799386       -4.3353016866  W2        1607            0.0000000000
      4822      1608  TIP3      OH2            31.9401715875       -9.3721299386        3.2964583134  W2        1608            0.0000000000
      4823      1608  TIP3      H1             32.0798015875       -9.9638799386        2.5571583134  W2        1608            0.0000000000
      4824      1608  TIP3      H2             32.1074515875       -8.4995399386        2.9403383134  W2        1608            0.0000000000
      4825      1609  TIP3      OH2            26.4127115875      -12.4101799386       -6.9309416866  W2        1609            0.0000000000
      4826      1609  TIP3      H1             25.7012615875      -11.8752099386       -7.2828916866  W2        1609            0.0000000000
      4827      1609  TIP3      H2             27.1036715875      -12.3549699386       -7.5910516866  W2        1609            0.0000000000
      4828      1610  TIP3      OH2            26.4666315875      -13.9527499386       -9.8924416866  W2        1610            0.0000000000
      4829      1610  TIP3      H1             27.1676215875      -13.9300599386       -9.2410416866  W2        1610            0.0000000000
      4830      1610  TIP3      H2             26.7689215875      -14.5807799386      -10.5485116866  W2        1610            0.0000000000
      4831      1611  TIP3      OH2            33.7821015875      -13.0323299386        1.3624983134  W2        1611            0.0000000000
      4832      1611  TIP3      H1             33.1295115875      -12.3377699386        1.4515883134  W2        1611            0.0000000000
      4833      1611  TIP3      H2             34.2471315875      -12.8222399386        0.5526583134  W2        1611            0.0000000000
      4834      1612  TIP3      OH2            29.8184815875      -12.2008499386       -5.9793516866  W2        1612            0.0000000000
      4835      1612  TIP3      H1             29.0865815875      -11.9724799386       -5.4062916866  W2        1612            0.0000000000
      4836      1612  TIP3      H2             30.2657015875      -12.9145799386       -5.5246016866  W2        1612            0.0000000000
      4837      1613  TIP3      OH2            29.7158315875      -14.0265899386        3.0883483134  W2        1613            0.0000000000
      4838      1613  TIP3      H1             29.7957415875      -13.2631499386        3.6601983134  W2        1613            0.0000000000
      4839      1613  TIP3      H2             29.1146015875      -13.7473499386        2.3978583134  W2        1613            0.0000000000
      4840      1614  TIP3      OH2            21.4638515875      -11.5702299386       -4.0968516866  W2        1614            0.0000000000
      4841      1614  TIP3      H1             21.1333715875      -11.9408899386       -4.9151516866  W2        1614            0.0000000000
      4842      1614  TIP3      H2             22.0522615875      -12.2408299386       -3.7500216866  W2        1614            0.0000000000
      4843      1615  TIP3      OH2            22.8306015875       -8.1421699386       -1.4156316866  W2        1615            0.0000000000
      4844      1615  TIP3      H1             22.7357315875       -8.7208599386       -2.1721716866  W2        1615            0.0000000000
      4845      1615  TIP3      H2             23.5599615875       -8.5135999386       -0.9193516866  W2        1615            0.0000000000
      4846      1616  TIP3      OH2            21.8304015875      -12.8016699386       -0.4633516866  W2        1616            0.0000000000
      4847      1616  TIP3      H1             22.3956515875      -12.6802499386       -1.2262316866  W2        1616            0.0000000000
      4848      1616  TIP3      H2             22.1492915875      -12.1641699386        0.1754983134  W2        1616            0.0000000000
      4849      1617  TIP3      OH2            28.1396215875       -7.2984799386        0.2706983134  W2        1617            0.0000000000
      4850      1617  TIP3      H1             27.8992815875       -6.6361699386        0.9186183134  W2        1617            0.0000000000
      4851      1617  TIP3      H2             27.9414415875       -8.1329599386        0.6956583134  W2        1617            0.0000000000
      4852      1618  TIP3      OH2            22.7104715875       -8.4023999386        4.2538383134  W2        1618            0.0000000000
      4853      1618  TIP3      H1             22.3992215875       -7.6200799386        4.7091583134  W2        1618            0.0000000000
      4854      1618  TIP3      H2             22.0604915875       -8.5554899386        3.5680383134  W2        1618            0.0000000000
      4855      1619  TIP3      OH2            28.6894315875      -13.0385599386       -8.2942316866  W2        1619            0.0000000000
      4856      1619  TIP3      H1             29.2689815875      -12.8885299386       -7.5473416866  W2        1619            0.0000000000
      4857      1619  TIP3      H2             29.1034315875      -12.5678199386       -9.0175916866  W2        1619            0.0000000000
      4858      1620  TIP3      OH2            19.6304615875      -12.2042899386        3.4824083134  W2        1620            0.0000000000
      4859      1620  TIP3      H1             19.7007815875      -11.5536099386        4.1809083134  W2        1620            0.0000000000
      4860      1620  TIP3      H2             18.7396815875      -12.1015399386        3.1474983134  W2        1620            0.0000000000
      4861      1621  TIP3      OH2            26.4159215875       -6.3017099386       -4.8589216866  W2        1621            0.0000000000
      4862      1621  TIP3      H1             26.8896815875       -6.0060799386       -4.0815016866  W2        1621            0.0000000000
      4863      1621  TIP3      H2             25.8528515875       -5.5635499386       -5.0919616866  W2        1621            0.0000000000
      4864      1622  TIP3      OH2            20.9500615875       -6.3308999386        5.0172183134  W2        1622            0.0000000000
      4865      1622  TIP3      H1             20.9575915875       -6.4669299386        4.0697683134  W2        1622            0.0000000000
      4866      1622  TIP3      H2             20.0341015875       -6.4480899386        5.2692183134  W2        1622            0.0000000000
      4867      1623  TIP3      OH2            32.3882715875      -21.2885199386       -8.4812616866  W2        1623            0.0000000000
      4868      1623  TIP3      H1             31.4883415875      -21.1496199386       -8.1862016866  W2        1623            0.0000000000
      4869      1623  TIP3      H2             32.6401115875      -20.4570599386       -8.8830916866  W2        1623            0.0000000000
      4870      1624  TIP3      OH2            20.4541215875      -12.5007999386       -6.5075716866  W2        1624            0.0000000000
      4871      1624  TIP3      H1             20.1622515875      -11.7326299386       -6.9984416866  W2        1624            0.0000000000
      4872      1624  TIP3      H2             19.7796415875      -13.1601799386       -6.6704316866  W2        1624            0.0000000000
      4873      1625  TIP3      OH2            33.5774115875       -6.9222799386      -10.1048716866  W2        1625            0.0000000000
      4874      1625  TIP3      H1             33.6507615875       -5.9832599386       -9.9343416866  W2        1625            0.0000000000
      4875      1625  TIP3      H2             34.4829215875       -7.2274199386      -10.1611416866  W2        1625            0.0000000000
      4876      1626  TIP3      OH2            16.5471315875      -10.1378799386        2.3074083134  W2        1626            0.0000000000
      4877      1626  TIP3      H1             16.0459715875      -10.1659399386        1.4923783134  W2        1626            0.0000000000
      4878      1626  TIP3      H2             16.5525015875      -11.0435599386        2.6171383134  W2        1626            0.0000000000
      4879      1627  TIP3      OH2            16.2974015875       -7.3574999386       -0.8085716866  W2        1627            0.0000000000
      4880      1627  TIP3      H1             17.2434615875       -7.5017999386       -0.8276216866  W2        1627            0.0000000000
      4881      1627  TIP3      H2             16.1850315875       -6.5732199386       -0.2714516866  W2        1627            0.0000000000
      4882      1628  TIP3      OH2            34.4952515875       -6.6915299386        4.8737983134  W2        1628            0.0000000000
      4883      1628  TIP3      H1             34.4459315875       -7.6467199386        4.8365583134  W2        1628            0.0000000000
      4884      1628  TIP3      H2             33.6684815875       -6.4239999386        5.2751783134  W2        1628            0.0000000000
      4885      1629  TIP3      OH2            25.4736515875       -7.1176099386        3.7499383134  W2        1629            0.0000000000
      4886      1629  TIP3      H1             25.5611115875       -6.2911499386        4.2248483134  W2        1629            0.0000000000
      4887      1629  TIP3      H2             24.6101615875       -7.4472299386        3.9988683134  W2        1629            0.0000000000
      4888      1630  TIP3      OH2            25.8882315875       -3.3452399386       -6.4440016866  W2        1630            0.0000000000
      4889      1630  TIP3      H1             25.8128315875       -3.4665199386       -7.3904816866  W2        1630            0.0000000000
      4890      1630  TIP3      H2             25.9211015875       -2.3959699386       -6.3255416866  W2        1630            0.0000000000
      4891      1631  TIP3      OH2            19.5416115875       -4.5565399386       -4.6631016866  W2        1631            0.0000000000
      4892      1631  TIP3      H1             19.6936515875       -4.9044999386       -3.7844516866  W2        1631            0.0000000000
      4893      1631  TIP3      H2             18.6906515875       -4.9128099386       -4.9183816866  W2        1631            0.0000000000
      4894      1632  TIP3      OH2            28.9898315875       -4.1912199386       -9.4417616866  W2        1632            0.0000000000
      4895      1632  TIP3      H1             29.3646715875       -4.9356099386       -9.9125016866  W2        1632            0.0000000000
      4896      1632  TIP3      H2             28.9942015875       -4.4611599386       -8.5234316866  W2        1632            0.0000000000
      4897      1633  TIP3      OH2            28.6586415875       -4.2655099386       -6.6925416866  W2        1633            0.0000000000
      4898      1633  TIP3      H1             27.7236215875       -4.1653199386       -6.5138416866  W2        1633            0.0000000000
      4899      1633  TIP3      H2             28.9388315875       -4.9749099386       -6.1142216866  W2        1633            0.0000000000
      4900      1634  TIP3      OH2            31.6472315875      -15.1982799386        5.3540183134  W2        1634            0.0000000000
      4901      1634  TIP3      H1             31.2399115875      -14.7177199386        4.6333483134  W2        1634            0.0000000000
      4902      1634  TIP3      H2             31.6878015875      -16.1036799386        5.0460983134  W2        1634            0.0000000000
      4903      1635  TIP3      OH2            18.7961815875       -8.8143399386        3.3506883134  W2        1635            0.0000000000
      4904      1635  TIP3      H1             19.0123115875       -9.1757799386        4.2102683134  W2        1635            0.0000000000
      4905      1635  TIP3      H2             17.9406515875       -9.1889599386        3.1410383134  W2        1635            0.0000000000
      4906      1636  TIP3      OH2            21.4149815875      -20.3442899386       -0.6538916866  W2        1636            0.0000000000
      4907      1636  TIP3      H1             20.5533515875      -20.4314699386       -1.0616016866  W2        1636            0.0000000000
      4908      1636  TIP3      H2             21.3925515875      -19.4882799386       -0.2261316866  W2        1636            0.0000000000
      4909      1637  TIP3      OH2            26.0777615875      -20.6222499386        2.7208083134  W2        1637            0.0000000000
      4910      1637  TIP3      H1             26.4980715875      -21.0375399386        3.4738683134  W2        1637            0.0000000000
      4911      1637  TIP3      H2             25.1447215875      -20.8009199386        2.8380083134  W2        1637            0.0000000000
      4912      1638  TIP3      OH2            29.4042515875      -16.8667299386        3.5742583134  W2        1638            0.0000000000
      4913      1638  TIP3      H1             28.8902015875      -16.9925099386        4.3718583134  W2        1638            0.0000000000
      4914      1638  TIP3      H2             29.2487215875      -15.9544199386        3.3298783134  W2        1638            0.0000000000
      4915      1639  TIP3      OH2            30.1667415875      -12.0057299386      -10.6644416866  W2        1639            0.0000000000
      4916      1639  TIP3      H1             30.2088215875      -12.2283399386      -11.5944416866  W2        1639            0.0000000000
      4917      1639  TIP3      H2             31.0159515875      -11.6070199386      -10.4744516866  W2        1639            0.0000000000
      4918      1640  TIP3      OH2            25.7394915875      -18.1299099386       -9.9941116866  W2        1640            0.0000000000
      4919      1640  TIP3      H1             25.4859715875      -18.1107499386       -9.0713016866  W2        1640            0.0000000000
      4920      1640  TIP3      H2             25.4827015875      -19.0013699386      -10.2954916866  W2        1640            0.0000000000
      4921      1641  TIP3      OH2            21.5059915875      -15.3788399386        0.4411283134  W2        1641            0.0000000000
      4922      1641  TIP3      H1             20.8642015875      -15.4191099386        1.1501383134  W2        1641            0.0000000000
      4923      1641  TIP3      H2             21.5431915875      -14.4523699386        0.2034283134  W2        1641            0.0000000000
      4924      1642  TIP3      OH2            21.5029015875      -15.1578299386       -4.6468716866  W2        1642            0.0000000000
      4925      1642  TIP3      H1             20.6101915875      -15.4982199386       -4.7054916866  W2        1642            0.0000000000
      4926      1642  TIP3      H2             21.9535615875      -15.5347399386       -5.4025516866  W2        1642            0.0000000000
      4927      1643  TIP3      OH2            27.0384515875      -14.7417999386       -5.8297916866  W2        1643            0.0000000000
      4928      1643  TIP3      H1             26.6294815875      -13.9269399386       -6.1213116866  W2        1643            0.0000000000
      4929      1643  TIP3      H2             27.7590715875      -14.8817899386       -6.4440816866  W2        1643            0.0000000000
      4930      1644  TIP3      OH2            26.1406115875      -14.5661599386        5.6582783134  W2        1644            0.0000000000
      4931      1644  TIP3      H1             25.5779915875      -15.2709999386        5.9790583134  W2        1644            0.0000000000
      4932      1644  TIP3      H2             26.9669515875      -14.6869699386        6.1260383134  W2        1644            0.0000000000
      4933      1645  TIP3      OH2            28.0432215875      -15.2957599386       -3.0158216866  W2        1645            0.0000000000
      4934      1645  TIP3      H1             27.8476715875      -14.6900799386       -3.7307616866  W2        1645            0.0000000000
      4935      1645  TIP3      H2             28.2244815875      -16.1292399386       -3.4501916866  W2        1645            0.0000000000
      4936      1646  TIP3      OH2            19.2560415875      -15.0584899386        2.3083283134  W2        1646            0.0000000000
      4937      1646  TIP3      H1             19.2179815875      -14.6583299386        3.1770383134  W2        1646            0.0000000000
      4938      1646  TIP3      H2             18.7651515875      -15.8752499386        2.3986183134  W2        1646            0.0000000000
      4939      1647  TIP3      OH2            22.6217815875      -17.6842599386      -10.8930716866  W2        1647            0.0000000000
      4940      1647  TIP3      H1             22.1908515875      -18.1292499386      -10.1633316866  W2        1647            0.0000000000
      4941      1647  TIP3      H2             21.9036515875      -17.3126299386      -11.4053216866  W2        1647            0.0000000000
      4942      1648  TIP3      OH2            15.8641215875      -17.9423099386       -3.8412016866  W2        1648            0.0000000000
      4943      1648  TIP3      H1             16.4948915875      -17.9710999386       -3.1218116866  W2        1648            0.0000000000
      4944      1648  TIP3      H2             16.3135515875      -18.3674399386       -4.5716116866  W2        1648            0.0000000000
      4945      1649  TIP3      OH2            17.1383315875      -17.1961099386       -8.4171616866  W2        1649            0.0000000000
      4946      1649  TIP3      H1             17.6125015875      -16.6051199386       -9.0020716866  W2        1649            0.0000000000
      4947      1649  TIP3      H2             16.4209715875      -16.6658199386       -8.0701516866  W2        1649            0.0000000000
      4948      1650  TIP3      OH2            27.3071415875      -13.6576299386        1.6554183134  W2        1650            0.0000000000
      4949      1650  TIP3      H1             27.6306215875      -14.2886599386        1.0124683134  W2        1650            0.0000000000
      4950      1650  TIP3      H2             26.8670715875      -14.1924099386        2.3161583134  W2        1650            0.0000000000
      4951      1651  TIP3      OH2            24.0844315875      -17.7300799386       -3.5604616866  W2        1651            0.0000000000
      4952      1651  TIP3      H1             23.1735415875      -17.6733999386       -3.2718616866  W2        1651            0.0000000000
      4953      1651  TIP3      H2             24.5897215875      -17.7905299386       -2.7497416866  W2        1651            0.0000000000
      4954      1652  TIP3      OH2            18.9127715875      -16.1014499386       -4.7337016866  W2        1652            0.0000000000
      4955      1652  TIP3      H1             18.0235715875      -16.0018999386       -5.0737416866  W2        1652            0.0000000000
      4956      1652  TIP3      H2             19.2092615875      -16.9431499386       -5.0799116866  W2        1652            0.0000000000
      4957      1653  TIP3      OH2            22.5659515875      -16.1011899386       -7.0772416866  W2        1653            0.0000000000
      4958      1653  TIP3      H1             23.4975015875      -15.9721899386       -6.8989316866  W2        1653            0.0000000000
      4959      1653  TIP3      H2             22.3509815875      -15.4317599386       -7.7267716866  W2        1653            0.0000000000
      4960      1654  TIP3      OH2            28.4896215875      -18.4954499386       -0.2962816866  W2        1654            0.0000000000
      4961      1654  TIP3      H1             27.8127815875      -18.3641399386        0.3676883134  W2        1654            0.0000000000
      4962      1654  TIP3      H2             28.0041115875      -18.6504999386       -1.1065116866  W2        1654            0.0000000000
      4963      1655  TIP3      OH2            21.2399715875      -14.9069699386       -9.5106316866  W2        1655            0.0000000000
      4964      1655  TIP3      H1             20.6974815875      -15.2865899386      -10.2018716866  W2        1655            0.0000000000
      4965      1655  TIP3      H2             22.0734615875      -14.7124999386       -9.9392216866  W2        1655            0.0000000000
      4966      1656  TIP3      OH2            31.7771315875       -2.8239099386        5.9804783134  W2        1656            0.0000000000
      4967      1656  TIP3      H1             31.9770015875       -2.3997199386        5.1460083134  W2        1656            0.0000000000
      4968      1656  TIP3      H2             32.4325015875       -2.4800899386        6.5875183134  W2        1656            0.0000000000
      4969      1657  TIP3      OH2            19.3751115875      -10.3497799386        5.5885283134  W2        1657            0.0000000000
      4970      1657  TIP3      H1             20.1073515875      -10.0951899386        6.1499783134  W2        1657            0.0000000000
      4971      1657  TIP3      H2             18.5949815875      -10.1452399386        6.1040683134  W2        1657            0.0000000000
      4972      1658  TIP3      OH2            25.4044015875      -14.9427799386       -1.6735016866  W2        1658            0.0000000000
      4973      1658  TIP3      H1             25.9687415875      -15.4891199386       -2.2205416866  W2        1658            0.0000000000
      4974      1658  TIP3      H2             25.2567415875      -15.4645899386       -0.8847416866  W2        1658            0.0000000000
      4975      1659  TIP3      OH2            20.4063715875      -18.8061699386       -5.2550216866  W2        1659            0.0000000000
      4976      1659  TIP3      H1             20.0893215875      -19.7086399386       -5.2904816866  W2        1659            0.0000000000
      4977      1659  TIP3      H2             21.1877815875      -18.8044299386       -5.8078616866  W2        1659            0.0000000000
      4978      1660  TIP3      OH2            24.0309915875      -16.5541699386        0.7405383134  W2        1660            0.0000000000
      4979      1660  TIP3      H1             23.1955215875      -16.1002199386        0.8507783134  W2        1660            0.0000000000
      4980      1660  TIP3      H2             24.5550515875      -16.2783199386        1.4925283134  W2        1660            0.0000000000
      4981      1661  TIP3      OH2            24.5752515875      -10.3413999386       -7.5748216866  W2        1661            0.0000000000
      4982      1661  TIP3      H1             23.8303515875      -10.8488699386       -7.8970316866  W2        1661            0.0000000000
      4983      1661  TIP3      H2             24.4409715875      -10.2925999386       -6.6283416866  W2        1661            0.0000000000
      4984      1662  TIP3      OH2            31.7251415875      -11.2085799386        1.2119383134  W2        1662            0.0000000000
      4985      1662  TIP3      H1             32.3670215875      -10.7519499386        0.6681583134  W2        1662            0.0000000000
      4986      1662  TIP3      H2             30.8948315875      -11.0953399386        0.7493483134  W2        1662            0.0000000000
      4987      1663  TIP3      OH2            28.4729315875      -17.5274099386       -9.3755616866  W2        1663            0.0000000000
      4988      1663  TIP3      H1             27.5343515875      -17.4158499386       -9.5266816866  W2        1663            0.0000000000
      4989      1663  TIP3      H2             28.7701415875      -16.6707199386       -9.0689916866  W2        1663            0.0000000000
      4990      1664  TIP3      OH2            26.0944615875      -10.1570699386        3.6620883134  W2        1664            0.0000000000
      4991      1664  TIP3      H1             25.7490715875      -10.5388299386        4.4690483134  W2        1664            0.0000000000
      4992      1664  TIP3      H2             25.8944715875       -9.2237099386        3.7333783134  W2        1664            0.0000000000
      4993      1665  TIP3      OH2            29.1912815875      -15.6601399386       -7.7148216866  W2        1665            0.0000000000
      4994      1665  TIP3      H1             30.0831815875      -15.7976399386       -7.3957016866  W2        1665            0.0000000000
      4995      1665  TIP3      H2             29.2476415875      -14.8695299386       -8.2514716866  W2        1665            0.0000000000
      4996      1666  TIP3      OH2            19.7000815875      -11.0463999386       -1.8050316866  W2        1666            0.0000000000
      4997      1666  TIP3      H1             20.4448015875      -11.0488299386       -2.4063816866  W2        1666            0.0000000000
      4998      1666  TIP3      H2             19.7777415875      -11.8700199386       -1.3235216866  W2        1666            0.0000000000
      4999      1667  TIP3      OH2            26.7006615875       -8.8829699386       -8.5493616866  W2        1667            0.0000000000
      5000      1667  TIP3      H1             26.4055015875       -8.0561799386       -8.1678816866  W2        1667            0.0000000000
      5001      1667  TIP3      H2             25.9976615875       -9.5022799386       -8.3532216866  W2        1667            0.0000000000
      5002      1668  TIP3      OH2            16.7080515875      -12.5857099386        3.5098183134  W2        1668            0.0000000000
      5003      1668  TIP3      H1             16.9309115875      -13.0037499386        4.3415683134  W2        1668            0.0000000000
      5004      1668  TIP3      H2             16.1060615875      -13.1982099386        3.0870983134  W2        1668            0.0000000000
      5005      1669  TIP3      OH2            23.7245415875      -13.0687199386        5.7227883134  W2        1669            0.0000000000
      5006      1669  TIP3      H1             23.4286215875      -13.2344199386        4.8276983134  W2        1669            0.0000000000
      5007      1669  TIP3      H2             24.6560615875      -13.2886899386        5.7121783134  W2        1669            0.0000000000
      5008      1670  TIP3      OH2            28.3448215875       -7.6955199386        3.6125883134  W2        1670            0.0000000000
      5009      1670  TIP3      H1             27.4442515875       -7.5122599386        3.3449783134  W2        1670            0.0000000000
      5010      1670  TIP3      H2             28.3789315875       -7.4365899386        4.5334683134  W2        1670            0.0000000000
      5011      1671  TIP3      OH2            34.0761515875      -15.4507299386       -8.0201516866  W2        1671            0.0000000000
      5012      1671  TIP3      H1             33.5217815875      -15.8469299386       -8.6924016866  W2        1671            0.0000000000
      5013      1671  TIP3      H2             34.1765115875      -14.5402099386       -8.2978216866  W2        1671            0.0000000000
      5014      1672  TIP3      OH2            34.0393515875       -9.6505599386        4.8169983134  W2        1672            0.0000000000
      5015      1672  TIP3      H1             33.1882015875       -9.4121799386        4.4496383134  W2        1672            0.0000000000
      5016      1672  TIP3      H2             34.6296915875       -9.6672399386        4.0637083134  W2        1672            0.0000000000
      5017      1673  TIP3      OH2            32.3713215875       -6.6646899386       -7.5549416866  W2        1673            0.0000000000
      5018      1673  TIP3      H1             31.9984315875       -7.4903099386       -7.2458816866  W2        1673            0.0000000000
      5019      1673  TIP3      H2             32.6486715875       -6.8477499386       -8.4526016866  W2        1673            0.0000000000
      5020      1674  TIP3      OH2            29.5317115875      -11.8567399386       -0.5337516866  W2        1674            0.0000000000
      5021      1674  TIP3      H1             28.6034015875      -12.0885499386       -0.5608216866  W2        1674            0.0000000000
      5022      1674  TIP3      H2             29.9828215875      -12.6337599386       -0.8638716866  W2        1674            0.0000000000
      5023      1675  TIP3      OH2            22.0750215875       -7.5285799386       -4.4008816866  W2        1675            0.0000000000
      5024      1675  TIP3      H1             22.6022415875       -6.7551399386       -4.6010016866  W2        1675            0.0000000000
      5025      1675  TIP3      H2             21.1948715875       -7.3036599386       -4.7024816866  W2        1675            0.0000000000
      5026      1676  TIP3      OH2            17.8297915875      -12.6661699386       -9.8136416866  W2        1676            0.0000000000
      5027      1676  TIP3      H1             18.4457815875      -12.0394499386       -9.4341616866  W2        1676            0.0000000000
      5028      1676  TIP3      H2             16.9680515875      -12.3501899386       -9.5419916866  W2        1676            0.0000000000
      5029      1677  TIP3      OH2            23.5022515875       -9.8655899386       -4.8244516866  W2        1677            0.0000000000
      5030      1677  TIP3      H1             23.2612515875       -8.9401499386       -4.7829216866  W2        1677            0.0000000000
      5031      1677  TIP3      H2             22.7616115875      -10.3244599386       -4.4280616866  W2        1677            0.0000000000
      5032      1678  TIP3      OH2            24.0169115875       -5.7162299386        1.4906583134  W2        1678            0.0000000000
      5033      1678  TIP3      H1             24.3793815875       -4.8616699386        1.2570983134  W2        1678            0.0000000000
      5034      1678  TIP3      H2             24.5484315875       -6.0080699386        2.2312883134  W2        1678            0.0000000000
      5035      1679  TIP3      OH2            22.1853315875       -4.8438299386       -5.2792316866  W2        1679            0.0000000000
      5036      1679  TIP3      H1             21.2353815875       -4.7380899386       -5.2279016866  W2        1679            0.0000000000
      5037      1679  TIP3      H2             22.5371415875       -4.0230899386       -4.9344816866  W2        1679            0.0000000000
      5038      1680  TIP3      OH2            27.5609915875       -9.6171599386        1.1912183134  W2        1680            0.0000000000
      5039      1680  TIP3      H1             27.1351215875       -9.8449899386        2.0176183134  W2        1680            0.0000000000
      5040      1680  TIP3      H2             28.1415715875      -10.3559799386        1.0087483134  W2        1680            0.0000000000
      5041      1681  TIP3      OH2            29.7638815875       -8.6881099386       -9.7348816866  W2        1681            0.0000000000
      5042      1681  TIP3      H1             30.1171915875       -9.0681299386       -8.9305316866  W2        1681            0.0000000000
      5043      1681  TIP3      H2             28.8152315875       -8.7816299386       -9.6479516866  W2        1681            0.0000000000
      5044      1682  TIP3      OH2            30.2194115875       -5.0652099386        3.6606983134  W2        1682            0.0000000000
      5045      1682  TIP3      H1             29.6177315875       -5.6209199386        3.1653283134  W2        1682            0.0000000000
      5046      1682  TIP3      H2             30.5007815875       -4.3982299386        3.0344383134  W2        1682            0.0000000000
      5047      1683  TIP3      OH2            34.2673215875       -4.2088599386       -9.5338616866  W2        1683            0.0000000000
      5048      1683  TIP3      H1             35.0111115875       -3.6228099386       -9.6737016866  W2        1683            0.0000000000
      5049      1683  TIP3      H2             33.5731315875       -3.6402799386       -9.2006216866  W2        1683            0.0000000000
      5050      1684  TIP3      OH2            18.3420015875      -17.8324399386        3.0679583134  W2        1684            0.0000000000
      5051      1684  TIP3      H1             17.4492315875      -17.4938999386        3.0003583134  W2        1684            0.0000000000
      5052      1684  TIP3      H2             18.2432815875      -18.6878299386        3.4860383134  W2        1684            0.0000000000
      5053      1685  TIP3      OH2            30.6298115875      -10.0159099386       -7.5080916866  W2        1685            0.0000000000
      5054      1685  TIP3      H1             30.3525715875      -10.7439799386       -6.9519816866  W2        1685            0.0000000000
      5055      1685  TIP3      H2             31.5571115875       -9.8967099386       -7.3028316866  W2        1685            0.0000000000
      5056      1686  TIP3      OH2            17.9932015875       -6.0279999386        1.5028983134  W2        1686            0.0000000000
      5057      1686  TIP3      H1             18.2102315875       -6.9597599386        1.4718683134  W2        1686            0.0000000000
      5058      1686  TIP3      H2             18.2395515875       -5.7534999386        2.3861783134  W2        1686            0.0000000000
      5059      1687  TIP3      OH2            23.8546615875       -7.5764999386      -11.2878816866  W2        1687            0.0000000000
      5060      1687  TIP3      H1             24.0936415875       -8.3246899386      -11.8349916866  W2        1687            0.0000000000
      5061      1687  TIP3      H2             23.5857915875       -7.9643299386      -10.4551016866  W2        1687            0.0000000000
      5062      1688  TIP3      OH2            22.7917215875       -8.0061199386       -8.8316216866  W2        1688            0.0000000000
      5063      1688  TIP3      H1             22.9385215875       -8.5261399386       -8.0415316866  W2        1688            0.0000000000
      5064      1688  TIP3      H2             22.7888915875       -7.0993599386       -8.5250316866  W2        1688            0.0000000000
      5065      1689  TIP3      OH2            19.2448315875      -10.7537899386       -8.3210816866  W2        1689            0.0000000000
      5066      1689  TIP3      H1             18.5587615875      -10.4015399386       -7.7541116866  W2        1689            0.0000000000
      5067      1689  TIP3      H2             19.7676215875       -9.9908299386       -8.5676516866  W2        1689            0.0000000000
      5068      1690  TIP3      OH2            27.0763415875      -18.0914099386        1.9578183134  W2        1690            0.0000000000
      5069      1690  TIP3      H1             27.7751315875      -18.0175399386        2.6077883134  W2        1690            0.0000000000
      5070      1690  TIP3      H2             26.6954815875      -18.9559099386        2.1121083134  W2        1690            0.0000000000
      5071      1691  TIP3      OH2            27.8608315875      -18.4392399386       -6.9449516866  W2        1691            0.0000000000
      5072      1691  TIP3      H1             28.0806615875      -17.9676999386       -7.7484116866  W2        1691            0.0000000000
      5073      1691  TIP3      H2             28.4192315875      -18.0449799386       -6.2748916866  W2        1691            0.0000000000
      5074      1692  TIP3      OH2            25.5294415875       -6.3087599386       -8.0822016866  W2        1692            0.0000000000
      5075      1692  TIP3      H1             24.7130515875       -5.8117899386       -8.0297716866  W2        1692            0.0000000000
      5076      1692  TIP3      H2             26.0590715875       -5.8334099386       -8.7223216866  W2        1692            0.0000000000
      5077      1693  TIP3      OH2            25.0608215875      -16.7113599386       -6.1101116866  W2        1693            0.0000000000
      5078      1693  TIP3      H1             25.8730815875      -16.2070399386       -6.0639416866  W2        1693            0.0000000000
      5079      1693  TIP3      H2             24.8161215875      -16.8563899386       -5.1961516866  W2        1693            0.0000000000
      5080      1694  TIP3      OH2            25.5964615875      -15.7250899386        3.0745483134  W2        1694            0.0000000000
      5081      1694  TIP3      H1             25.7154915875      -15.1515499386        3.8315883134  W2        1694            0.0000000000
      5082      1694  TIP3      H2             26.2519215875      -16.4131499386        3.1893283134  W2        1694            0.0000000000
      5083      1695  TIP3      OH2            25.9444915875      -19.6300599386       -5.1720016866  W2        1695            0.0000000000
      5084      1695  TIP3      H1             25.5978415875      -19.0129999386       -4.5275716866  W2        1695            0.0000000000
      5085      1695  TIP3      H2             26.6031815875      -19.1294899386       -5.6534516866  W2        1695            0.0000000000
      5086      1696  TIP3      OH2            22.8677515875       -5.2650399386       -8.1005116866  W2        1696            0.0000000000
      5087      1696  TIP3      H1             23.0286215875       -4.4652899386       -8.6012516866  W2        1696            0.0000000000
      5088      1696  TIP3      H2             22.6705315875       -4.9584399386       -7.2154516866  W2        1696            0.0000000000
      5089      1697  TIP3      OH2            21.6021915875      -18.5671199386       -8.4847516866  W2        1697            0.0000000000
      5090      1697  TIP3      H1             21.5186715875      -17.6788099386       -8.1381116866  W2        1697            0.0000000000
      5091      1697  TIP3      H2             22.4922215875      -18.8324499386       -8.2530716866  W2        1697            0.0000000000
      5092      1698  TIP3      OH2            31.8010415875      -17.8180599386        3.9095183134  W2        1698            0.0000000000
      5093      1698  TIP3      H1             30.8846215875      -17.5558899386        3.8218883134  W2        1698            0.0000000000
      5094      1698  TIP3      H2             32.1365415875      -17.8211599386        3.0130483134  W2        1698            0.0000000000
      5095      1699  TIP3      OH2            30.4031415875      -14.0679599386       -1.9947516866  W2        1699            0.0000000000
      5096      1699  TIP3      H1             29.6055815875      -14.4829399386       -2.3232516866  W2        1699            0.0000000000
      5097      1699  TIP3      H2             30.8482515875      -14.7585899386       -1.5037016866  W2        1699            0.0000000000
      5098      1700  TIP3      OH2            19.8607215875       -8.1398999386       -9.4243016866  W2        1700            0.0000000000
      5099      1700  TIP3      H1             20.4528715875       -7.4404199386       -9.1480616866  W2        1700            0.0000000000
      5100      1700  TIP3      H2             20.3200215875       -8.5729499386      -10.1438416866  W2        1700            0.0000000000
      5101      1701  TIP3      OH2            18.1766415875      -15.4755999386      -10.3083616866  W2        1701            0.0000000000
      5102      1701  TIP3      H1             18.1319015875      -14.5362899386      -10.1296616866  W2        1701            0.0000000000
      5103      1701  TIP3      H2             17.2889615875      -15.7111099386      -10.5781516866  W2        1701            0.0000000000
      5104      1702  TIP3      OH2            31.4896015875       -4.8117099386       -0.3724016866  W2        1702            0.0000000000
      5105      1702  TIP3      H1             31.3340315875       -4.1332699386       -1.0294716866  W2        1702            0.0000000000
      5106      1702  TIP3      H2             32.4222415875       -4.7397799386       -0.1693416866  W2        1702            0.0000000000
      5107      1703  TIP3      OH2            18.9848415875      -20.6939399386       -1.6352616866  W2        1703            0.0000000000
      5108      1703  TIP3      H1             18.7558215875      -20.6346899386       -2.5627616866  W2        1703            0.0000000000
      5109      1703  TIP3      H2             18.5421815875      -21.4853899386       -1.3288516866  W2        1703            0.0000000000
      5110      1704  TIP3      OH2            17.9151715875       -6.7532299386       -5.4746816866  W2        1704            0.0000000000
      5111      1704  TIP3      H1             17.0830315875       -6.2809599386       -5.4475416866  W2        1704            0.0000000000
      5112      1704  TIP3      H2             18.4610015875       -6.2434699386       -6.0733716866  W2        1704            0.0000000000
      5113      1705  TIP3      OH2            17.2035415875       -4.1408599386        5.8551183134  W2        1705            0.0000000000
      5114      1705  TIP3      H1             17.7437615875       -4.3574599386        6.6150383134  W2        1705            0.0000000000
      5115      1705  TIP3      H2             16.7223415875       -4.9462599386        5.6653683134  W2        1705            0.0000000000
      5116      1706  TIP3      OH2            21.8008815875       -5.2214199386        7.4755383134  W2        1706            0.0000000000
      5117      1706  TIP3      H1             22.5686015875       -5.6803399386        7.8164583134  W2        1706            0.0000000000
      5118      1706  TIP3      H2             21.7795015875       -5.4474399386        6.5456583134  W2        1706            0.0000000000
      5119      1707  TIP3      OH2            25.8928415875       -5.7133599386      -11.1492816866  W2        1707            0.0000000000
      5120      1707  TIP3      H1             25.2489415875       -6.3444999386      -10.8279116866  W2        1707            0.0000000000
      5121      1707  TIP3      H2             26.6546715875       -6.2445599386      -11.3809316866  W2        1707            0.0000000000
      5122      1708  TIP3      OH2            28.3777515875       -6.8413099386        6.2046883134  W2        1708            0.0000000000
      5123      1708  TIP3      H1             28.0267015875       -7.6980099386        6.4477283134  W2        1708            0.0000000000
      5124      1708  TIP3      H2             29.1040715875       -6.6986399386        6.8115883134  W2        1708            0.0000000000
      5125      1709  TIP3      OH2            30.4971315875       -5.8963699386      -10.9154816866  W2        1709            0.0000000000
      5126      1709  TIP3      H1             30.7801715875       -6.6908499386      -10.4627916866  W2        1709            0.0000000000
      5127      1709  TIP3      H2             31.2369215875       -5.6632699386      -11.4763716866  W2        1709            0.0000000000
      5128      1710  TIP3      OH2            17.1104915875      -10.3304499386        6.8095483134  W2        1710            0.0000000000
      5129      1710  TIP3      H1             17.2545415875      -11.2323799386        6.5232183134  W2        1710            0.0000000000
      5130      1710  TIP3      H2             16.3382315875      -10.0442399386        6.3217783134  W2        1710            0.0000000000
      5131      1711  TIP3      OH2            21.4518615875       -9.9868799386      -11.0579916866  W2        1711            0.0000000000
      5132      1711  TIP3      H1             21.5162715875      -10.7809199386      -10.5273516866  W2        1711            0.0000000000
      5133      1711  TIP3      H2             22.1047815875      -10.1055999386      -11.7477916866  W2        1711            0.0000000000
      5134      1712  TIP3      OH2            23.7661015875      -10.3606399386        6.2421883134  W2        1712            0.0000000000
      5135      1712  TIP3      H1             23.4374815875      -10.0898299386        5.3849283134  W2        1712            0.0000000000
      5136      1712  TIP3      H2             23.9179215875      -11.3016599386        6.1546883134  W2        1712            0.0000000000
      5137      1713  TIP3      OH2            26.8042015875       -8.9397099386      -11.3221916866  W2        1713            0.0000000000
      5138      1713  TIP3      H1             26.5356115875       -8.7594999386      -10.4213016866  W2        1713            0.0000000000
      5139      1713  TIP3      H2             26.5977615875       -9.8650899386      -11.4536116866  W2        1713            0.0000000000
      5140      1714  TIP3      OH2            29.5006215875      -10.4449099386        3.6254183134  W2        1714            0.0000000000
      5141      1714  TIP3      H1             30.2461015875       -9.8565399386        3.5058183134  W2        1714            0.0000000000
      5142      1714  TIP3      H2             28.7433015875       -9.8629399386        3.6887283134  W2        1714            0.0000000000
      5143      1715  TIP3      OH2            17.9431415875      -13.1301199386        6.2294783134  W2        1715            0.0000000000
      5144      1715  TIP3      H1             18.3512615875      -13.9874599386        6.1085383134  W2        1715            0.0000000000
      5145      1715  TIP3      H2             17.6829015875      -13.1159899386        7.1505083134  W2        1715            0.0000000000
      5146      1716  TIP3      OH2            22.6012415875      -12.0142599386       -8.7521916866  W2        1716            0.0000000000
      5147      1716  TIP3      H1             22.1414415875      -12.4984299386       -8.0663416866  W2        1716            0.0000000000
      5148      1716  TIP3      H2             22.8561115875      -12.6827199386       -9.3881416866  W2        1716            0.0000000000
      5149      1717  TIP3      OH2            21.8901715875      -14.1215499386        3.6037683134  W2        1717            0.0000000000
      5150      1717  TIP3      H1             21.2717815875      -13.4468899386        3.8842383134  W2        1717            0.0000000000
      5151      1717  TIP3      H2             22.2342915875      -13.8001599386        2.7703883134  W2        1717            0.0000000000
      5152      1718  TIP3      OH2            23.6722815875      -13.7710799386      -10.4898716866  W2        1718            0.0000000000
      5153      1718  TIP3      H1             23.4917815875      -13.9259599386      -11.4170416866  W2        1718            0.0000000000
      5154      1718  TIP3      H2             24.6223315875      -13.6632099386      -10.4450816866  W2        1718            0.0000000000
      5155      1719  TIP3      OH2            26.9099915875      -11.6500199386        6.8812483134  W2        1719            0.0000000000
      5156      1719  TIP3      H1             27.8631115875      -11.5661099386        6.8538483134  W2        1719            0.0000000000
      5157      1719  TIP3      H2             26.7494515875      -12.3618399386        7.5007383134  W2        1719            0.0000000000
      5158      1720  TIP3      OH2            33.0621115875      -11.4166599386      -11.0440616866  W2        1720            0.0000000000
      5159      1720  TIP3      H1             32.7885915875      -11.8411099386      -11.8572316866  W2        1720            0.0000000000
      5160      1720  TIP3      H2             33.1015215875      -10.4852099386      -11.2610216866  W2        1720            0.0000000000
      5161      1721  TIP3      OH2            22.2295415875      -16.7664699386        4.6860783134  W2        1721            0.0000000000
      5162      1721  TIP3      H1             22.3796315875      -17.4953399386        4.0840483134  W2        1721            0.0000000000
      5163      1721  TIP3      H2             22.2317815875      -15.9892999386        4.1272983134  W2        1721            0.0000000000
      5164      1722  TIP3      OH2            22.6421115875      -18.3968899386        2.1788183134  W2        1722            0.0000000000
      5165      1722  TIP3      H1             23.1778615875      -17.9452199386        1.5267483134  W2        1722            0.0000000000
      5166      1722  TIP3      H2             21.7900715875      -18.5049099386        1.7562283134  W2        1722            0.0000000000
      5167      1723  TIP3      OH2            24.2239515875      -12.9572699386        2.4183383134  W2        1723            0.0000000000
      5168      1723  TIP3      H1             24.9744315875      -13.1135199386        1.8451183134  W2        1723            0.0000000000
      5169      1723  TIP3      H2             23.8847815875      -12.1056099386        2.1428883134  W2        1723            0.0000000000
      5170      1724  TIP3      OH2            28.6395715875      -15.1420899386        7.4468683134  W2        1724            0.0000000000
      5171      1724  TIP3      H1             28.8317015875      -16.0731499386        7.3353183134  W2        1724            0.0000000000
      5172      1724  TIP3      H2             29.4972015875      -14.7171399386        7.4364083134  W2        1724            0.0000000000
      5173      1725  TIP3      OH2            29.9562915875      -12.3535699386        5.5241383134  W2        1725            0.0000000000
      5174      1725  TIP3      H1             29.6747915875      -11.6441099386        4.9465183134  W2        1725            0.0000000000
      5175      1725  TIP3      H2             30.8987215875      -12.4262699386        5.3732583134  W2        1725            0.0000000000
      5176      1726  TIP3      OH2            20.7081715875      -15.5681199386        6.5976383134  W2        1726            0.0000000000
      5177      1726  TIP3      H1             19.9410715875      -16.1006399386        6.3873983134  W2        1726            0.0000000000
      5178      1726  TIP3      H2             21.3870715875      -15.8780799386        5.9982683134  W2        1726            0.0000000000
      5179      1727  TIP3      OH2            23.4476615875      -20.9403199386        2.6101783134  W2        1727            0.0000000000
      5180      1727  TIP3      H1             23.3496215875      -19.9939999386        2.5047983134  W2        1727            0.0000000000
      5181      1727  TIP3      H2             22.7052815875      -21.3129399386        2.1345283134  W2        1727            0.0000000000
      5182      1728  TIP3      OH2            24.7117115875      -16.6187799386        6.1740183134  W2        1728            0.0000000000
      5183      1728  TIP3      H1             24.4762515875      -16.8381099386        7.0755083134  W2        1728            0.0000000000
      5184      1728  TIP3      H2             23.9284015875      -16.8256599386        5.6642683134  W2        1728            0.0000000000
      5185      1729  TIP3      OH2            27.4273715875      -17.4914299386        5.2493683134  W2        1729            0.0000000000
      5186      1729  TIP3      H1             26.4799115875      -17.4594599386        5.3816983134  W2        1729            0.0000000000
      5187      1729  TIP3      H2             27.7400415875      -18.1167199386        5.9031883134  W2        1729            0.0000000000
      5188      1730  TIP3      OH2            29.0615215875      -18.8573199386        7.2545583134  W2        1730            0.0000000000
      5189      1730  TIP3      H1             28.9647015875      -19.8095899386        7.2487483134  W2        1730            0.0000000000
      5190      1730  TIP3      H2             28.7398315875      -18.5886399386        8.1151083134  W2        1730            0.0000000000
      5191      1731  TIP3      OH2            18.8884515875      -17.6477399386        6.3021083134  W2        1731            0.0000000000
      5192      1731  TIP3      H1             19.1001915875      -18.3541299386        5.6918583134  W2        1731            0.0000000000
      5193      1731  TIP3      H2             18.7772015875      -18.0851399386        7.1462283134  W2        1731            0.0000000000
      5194      1732  TIP3      OH2            23.6694715875      -21.6465799386        5.2814583134  W2        1732            0.0000000000
      5195      1732  TIP3      H1             24.3813115875      -22.2863599386        5.2673683134  W2        1732            0.0000000000
      5196      1732  TIP3      H2             23.5685115875      -21.3797499386        4.3677683134  W2        1732            0.0000000000
      5197      1733  TIP3      OH2            24.0232215875      -19.9637399386        7.3350883134  W2        1733            0.0000000000
      5198      1733  TIP3      H1             23.8914415875      -20.4393599386        6.5149383134  W2        1733            0.0000000000
      5199      1733  TIP3      H2             23.4239615875      -19.2193799386        7.2797983134  W2        1733            0.0000000000
      5200      1734  TIP3      OH2            23.5694515875       -3.0807099386       -9.4885116866  W2        1734            0.0000000000
      5201      1734  TIP3      H1             24.5025215875       -2.9228399386       -9.3446716866  W2        1734            0.0000000000
      5202      1734  TIP3      H2             23.3053315875       -2.4054099386      -10.1133616866  W2        1734            0.0000000000
      5203      1735  TIP3      OH2            17.1379415875       -8.4443299386      -10.0057016866  W2        1735            0.0000000000
      5204      1735  TIP3      H1             18.0518615875       -8.3654399386       -9.7323116866  W2        1735            0.0000000000
      5205      1735  TIP3      H2             17.1452515875       -9.1313699386      -10.6721416866  W2        1735            0.0000000000
      5206      1736  TIP3      OH2            15.7870015875       -3.0514799386       -4.9283116866  W2        1736            0.0000000000
      5207      1736  TIP3      H1             15.1397115875       -3.5133099386       -5.4611916866  W2        1736            0.0000000000
      5208      1736  TIP3      H2             16.1414615875       -3.7231499386       -4.3456916866  W2        1736            0.0000000000
      5209      1737  TIP3      OH2            16.6569215875       -4.9707799386       -3.1236916866  W2        1737            0.0000000000
      5210      1737  TIP3      H1             16.3226015875       -5.8510499386       -2.9516716866  W2        1737            0.0000000000
      5211      1737  TIP3      H2             16.8791615875       -4.6252799386       -2.2591316866  W2        1737            0.0000000000
      5212      1738  TIP3      OH2            34.2054015875       -4.1611399386       -0.1432116866  W2        1738            0.0000000000
      5213      1738  TIP3      H1             34.1840715875       -3.9762999386        0.7957283134  W2        1738            0.0000000000
      5214      1738  TIP3      H2             34.8960215875       -3.5927399386       -0.4840716866  W2        1738            0.0000000000
      5215      1739  TIP3      OH2            33.7686915875       -4.5940299386        2.7786983134  W2        1739            0.0000000000
      5216      1739  TIP3      H1             33.2815615875       -5.3296199386        2.4074383134  W2        1739            0.0000000000
      5217      1739  TIP3      H2             34.3179615875       -4.9876399386        3.4566383134  W2        1739            0.0000000000
      5218      1740  TIP3      OH2            32.2194215875       -8.8042199386        7.4167283134  W2        1740            0.0000000000
      5219      1740  TIP3      H1             31.3535315875       -8.9092499386        7.8109583134  W2        1740            0.0000000000
      5220      1740  TIP3      H2             32.5960115875       -8.0458899386        7.8631983134  W2        1740            0.0000000000
      5221      1741  TIP3      OH2            33.5203915875      -10.5478499386       -7.0690216866  W2        1741            0.0000000000
      5222      1741  TIP3      H1             34.3705315875      -10.1267599386       -6.9418616866  W2        1741            0.0000000000
      5223      1741  TIP3      H2             33.5259015875      -11.2878399386       -6.4618816866  W2        1741            0.0000000000
      5224      1742  TIP3      OH2            33.9149515875      -12.4941099386       -5.2454516866  W2        1742            0.0000000000
      5225      1742  TIP3      H1             33.1884115875      -12.9738499386       -4.8476916866  W2        1742            0.0000000000
      5226      1742  TIP3      H2             34.4962815875      -12.2886399386       -4.5132916866  W2        1742            0.0000000000
      5227      1743  TIP3      OH2            33.6740715875       -9.7093599386       -0.2976916866  W2        1743            0.0000000000
      5228      1743  TIP3      H1             34.5074915875      -10.0873599386       -0.5783316866  W2        1743            0.0000000000
      5229      1743  TIP3      H2             33.7861015875       -8.7662399386       -0.4167816866  W2        1743            0.0000000000
      5230      1744  TIP3      OH2            32.1603015875       -6.8316099386        2.0091483134  W2        1744            0.0000000000
      5231      1744  TIP3      H1             31.5128315875       -6.5064599386        2.6346683134  W2        1744            0.0000000000
      5232      1744  TIP3      H2             31.6427015875       -7.2718399386        1.3349783134  W2        1744            0.0000000000
      5233      1745  TIP3      OH2            34.1832615875      -12.5932599386       -8.8543216866  W2        1745            0.0000000000
      5234      1745  TIP3      H1             33.6613715875      -12.2368499386       -9.5732316866  W2        1745            0.0000000000
      5235      1745  TIP3      H2             34.1501815875      -11.9184799386       -8.1762316866  W2        1745            0.0000000000
      5236      1746  TIP3      OH2            32.5321615875      -15.3536999386      -10.3036116866  W2        1746            0.0000000000
      5237      1746  TIP3      H1             32.6286015875      -14.6869999386      -10.9836416866  W2        1746            0.0000000000
      5238      1746  TIP3      H2             32.3921215875      -16.1690699386      -10.7850616866  W2        1746            0.0000000000
      5239      1747  TIP3      OH2            31.7016315875      -13.9734599386       -4.6825816866  W2        1747            0.0000000000
      5240      1747  TIP3      H1             31.5515115875      -14.9185999386       -4.7028016866  W2        1747            0.0000000000
      5241      1747  TIP3      H2             31.3480815875      -13.6923199386       -3.8386716866  W2        1747            0.0000000000
      5242      1748  TIP3      OH2            16.7368715875      -11.8952399386       -0.6722016866  W2        1748            0.0000000000
      5243      1748  TIP3      H1             16.9211615875      -11.9770699386       -1.6079116866  W2        1748            0.0000000000
      5244      1748  TIP3      H2             17.5861615875      -12.0195399386       -0.2485616866  W2        1748            0.0000000000
      5245      1749  TIP3      OH2            32.5579215875      -12.0031299386        4.9562483134  W2        1749            0.0000000000
      5246      1749  TIP3      H1             33.1406515875      -12.7378999386        5.1479683134  W2        1749            0.0000000000
      5247      1749  TIP3      H2             33.1218515875      -11.2310999386        5.0028283134  W2        1749            0.0000000000
      5248      1750  TIP3      OH2            34.0546315875      -14.1005499386        5.6407883134  W2        1750            0.0000000000
      5249      1750  TIP3      H1             33.1913015875      -14.4793399386        5.4752583134  W2        1750            0.0000000000
      5250      1750  TIP3      H2             34.6590015875      -14.8390699386        5.5663683134  W2        1750            0.0000000000
      5251      1751  TIP3      OH2            31.7795415875      -17.9457199386      -11.1860616866  W2        1751            0.0000000000
      5252      1751  TIP3      H1             32.3901215875      -18.3170399386      -10.5492416866  W2        1751            0.0000000000
      5253      1751  TIP3      H2             30.9426915875      -18.3670299386      -10.9900616866  W2        1751            0.0000000000
      5254      1752  TIP3      OH2            31.4121115875      -16.3908799386       -6.2200716866  W2        1752            0.0000000000
      5255      1752  TIP3      H1             31.6918215875      -17.2978399386       -6.0959016866  W2        1752            0.0000000000
      5256      1752  TIP3      H2             32.1712815875      -15.9567299386       -6.6091516866  W2        1752            0.0000000000
      5257      1753  TIP3      OH2            32.0239415875      -15.8091399386       -0.7841816866  W2        1753            0.0000000000
      5258      1753  TIP3      H1             32.9567415875      -15.5971499386       -0.8185816866  W2        1753            0.0000000000
      5259      1753  TIP3      H2             31.7886915875      -15.7079299386        0.1381183134  W2        1753            0.0000000000
      5260      1754  TIP3      OH2            32.0531315875      -15.0726099386        1.9917583134  W2        1754            0.0000000000
      5261      1754  TIP3      H1             31.2102615875      -14.8045699386        2.3577383134  W2        1754            0.0000000000
      5262      1754  TIP3      H2             32.4955615875      -14.2504199386        1.7808683134  W2        1754            0.0000000000
      5263      1755  TIP3      OH2            16.3343515875      -16.6247399386        5.4686783134  W2        1755            0.0000000000
      5264      1755  TIP3      H1             17.2538415875      -16.7469099386        5.7049883134  W2        1755            0.0000000000
      5265      1755  TIP3      H2             15.8848015875      -17.3747699386        5.8580283134  W2        1755            0.0000000000
      5266      1756  TIP3      OH2            34.3362915875      -21.0925899386        7.3452583134  W2        1756            0.0000000000
      5267      1756  TIP3      H1             34.6859915875      -21.7462399386        6.7397283134  W2        1756            0.0000000000
      5268      1756  TIP3      H2             34.4832415875      -20.2551799386        6.9055183134  W2        1756            0.0000000000
      5269      1757  TIP3      OH2            32.0255915875      -19.1279499386       -6.1718716866  W2        1757            0.0000000000
      5270      1757  TIP3      H1             32.2080915875      -19.5767999386       -5.3463716866  W2        1757            0.0000000000
      5271      1757  TIP3      H2             31.4258815875      -19.7125099386       -6.6354116866  W2        1757            0.0000000000
      5272      1758  TIP3      OH2            17.5556015875      -18.3125799386       -1.6400316866  W2        1758            0.0000000000
      5273      1758  TIP3      H1             18.0007615875      -19.1043299386       -1.3380616866  W2        1758            0.0000000000
      5274      1758  TIP3      H2             18.0219015875      -17.5960599386       -1.2094716866  W2        1758            0.0000000000
      5275      1759  TIP3      OH2            15.8596315875      -15.3132799386       -0.5710116866  W2        1759            0.0000000000
      5276      1759  TIP3      H1             16.3516115875      -15.5342299386       -1.3618116866  W2        1759            0.0000000000
      5277      1759  TIP3      H2             16.2217215875      -14.4729399386       -0.2900616866  W2        1759            0.0000000000
      5278      1760  TIP3      OH2            33.8560115875      -18.9831299386        5.6943883134  W2        1760            0.0000000000
      5279      1760  TIP3      H1             32.9385815875      -18.7124199386        5.6587383134  W2        1760            0.0000000000
      5280      1760  TIP3      H2             33.9789515875      -19.5182899386        4.9103583134  W2        1760            0.0000000000
      5281      1761  TIP3      OH2            33.8922115875      -19.0601399386       -9.6438416866  W2        1761            0.0000000000
      5282      1761  TIP3      H1             34.3044715875      -19.7815699386      -10.1190416866  W2        1761            0.0000000000
      5283      1761  TIP3      H2             34.5738615875      -18.3906799386       -9.5854116866  W2        1761            0.0000000000
      5284      1762  TIP3      OH2            16.1732815875      -19.0553699386       -6.5167716866  W2        1762            0.0000000000
      5285      1762  TIP3      H1             15.2481215875      -18.8467099386       -6.6462216866  W2        1762            0.0000000000
      5286      1762  TIP3      H2             16.6272715875      -18.5712899386       -7.2065416866  W2        1762            0.0000000000
      5287      1763  TIP3      OH2            30.9440015875       -4.0711999386       -4.5710316866  W2        1763            0.0000000000
      5288      1763  TIP3      H1             31.5962915875       -4.4189899386       -5.1791216866  W2        1763            0.0000000000
      5289      1763  TIP3      H2             31.4543815875       -3.5828799386       -3.9250616866  W2        1763            0.0000000000
      5290      1764  TIP3      OH2            16.1368215875      -20.3174699386        1.8274783134  W2        1764            0.0000000000
      5291      1764  TIP3      H1             15.4718715875      -20.5634399386        2.4705683134  W2        1764            0.0000000000
      5292      1764  TIP3      H2             15.6939515875      -19.6954299386        1.2502783134  W2        1764            0.0000000000
      5293      1765  TIP3      OH2            18.3287515875       -7.1420599386        5.9720583134  W2        1765            0.0000000000
      5294      1765  TIP3      H1             17.5080015875       -6.9674099386        5.5115283134  W2        1765            0.0000000000
      5295      1765  TIP3      H2             18.0765315875       -7.2155899386        6.8924983134  W2        1765            0.0000000000
      5296      1766  TIP3      OH2            21.2830415875       -6.1679399386        2.2304583134  W2        1766            0.0000000000
      5297      1766  TIP3      H1             20.8581515875       -5.3580899386        1.9479183134  W2        1766            0.0000000000
      5298      1766  TIP3      H2             22.1873215875       -6.0825299386        1.9284383134  W2        1766            0.0000000000
      5299      1767  TIP3      OH2            25.5941815875       -4.7689399386        5.1898283134  W2        1767            0.0000000000
      5300      1767  TIP3      H1             25.7789315875       -5.1023299386        6.0678583134  W2        1767            0.0000000000
      5301      1767  TIP3      H2             26.4406315875       -4.4590799386        4.8677483134  W2        1767            0.0000000000
      5302      1768  TIP3      OH2            27.9392215875       -3.4830499386        4.4339683134  W2        1768            0.0000000000
      5303      1768  TIP3      H1             28.6161115875       -4.1158199386        4.1938883134  W2        1768            0.0000000000
      5304      1768  TIP3      H2             28.2611015875       -3.0819999386        5.2412983134  W2        1768            0.0000000000
      5305      1769  TIP3      OH2            32.8566015875      -20.8934999386        3.5134683134  W2        1769            0.0000000000
      5306      1769  TIP3      H1             32.0439515875      -20.5684699386        3.1259383134  W2        1769            0.0000000000
      5307      1769  TIP3      H2             33.0894515875      -21.6536499386        2.9803783134  W2        1769            0.0000000000
      5308      1770  TIP3      OH2            18.6847115875       -2.9115499386        2.2779883134  W2        1770            0.0000000000
      5309      1770  TIP3      H1             17.9643515875       -2.4714499386        1.8267583134  W2        1770            0.0000000000
      5310      1770  TIP3      H2             18.3191115875       -3.1620799386        3.1263883134  W2        1770            0.0000000000
      5311      1771  TIP3      OH2            21.1519715875       -3.3111599386        1.3077083134  W2        1771            0.0000000000
      5312      1771  TIP3      H1             20.2871915875       -3.2393099386        1.7117183134  W2        1771            0.0000000000
      5313      1771  TIP3      H2             21.0968715875       -2.7644299386        0.5239583134  W2        1771            0.0000000000
      5314      1772  TIP3      OH2            25.8625315875       -3.4232699386        0.4833083134  W2        1772            0.0000000000
      5315      1772  TIP3      H1             25.4059315875       -2.8942999386       -0.1708516866  W2        1772            0.0000000000
      5316      1772  TIP3      H2             26.0253315875       -2.8201299386        1.2085383134  W2        1772            0.0000000000
      5317      1773  TIP3      OH2            28.1901615875       -4.5453099386        1.4283383134  W2        1773            0.0000000000
      5318      1773  TIP3      H1             27.2855315875       -4.3802899386        1.1625483134  W2        1773            0.0000000000
      5319      1773  TIP3      H2             28.6190215875       -3.6920899386        1.3626783134  W2        1773            0.0000000000
      5320      1774  TIP3      OH2            30.7943515875       -2.9753999386        1.7231183134  W2        1774            0.0000000000
      5321      1774  TIP3      H1             30.6125515875       -2.0595099386        1.5126083134  W2        1774            0.0000000000
      5322      1774  TIP3      H2             30.9711315875       -3.3856899386        0.8765783134  W2        1774            0.0000000000
      5323      1775  TIP3      OH2            18.0995215875       -4.2882999386       -0.8118316866  W2        1775            0.0000000000
      5324      1775  TIP3      H1             18.0811215875       -4.7137899386        0.0453983134  W2        1775            0.0000000000
      5325      1775  TIP3      H2             18.9043115875       -4.6067999386       -1.2206116866  W2        1775            0.0000000000
      5326      1776  TIP3      OH2            20.2408315875       -5.5784299386       -2.1568416866  W2        1776            0.0000000000
      5327      1776  TIP3      H1             20.0219015875       -6.4946899386       -1.9872416866  W2        1776            0.0000000000
      5328      1776  TIP3      H2             21.0650515875       -5.4383899386       -1.6907016866  W2        1776            0.0000000000
      5329      1777  TIP3      OH2            22.7780815875       -5.1084999386       -1.3080416866  W2        1777            0.0000000000
      5330      1777  TIP3      H1             22.9906515875       -5.9965999386       -1.5949516866  W2        1777            0.0000000000
      5331      1777  TIP3      H2             22.8425915875       -5.1427299386       -0.3536416866  W2        1777            0.0000000000
      5332      1778  TIP3      OH2            26.2864515875      -19.4444399386       -2.1637116866  W2        1778            0.0000000000
      5333      1778  TIP3      H1             25.6121315875      -20.0738799386       -1.9081316866  W2        1778            0.0000000000
      5334      1778  TIP3      H2             26.8503715875      -19.9285499386       -2.7669216866  W2        1778            0.0000000000
      5335      1779  TIP3      OH2            31.4291715875      -21.3370399386       -2.0510016866  W2        1779            0.0000000000
      5336      1779  TIP3      H1             32.0329315875      -20.7894999386       -2.5529016866  W2        1779            0.0000000000
      5337      1779  TIP3      H2             30.5593715875      -21.0179999386       -2.2915916866  W2        1779            0.0000000000
      5338      1780  TIP3      OH2            33.1562115875      -20.1981699386       -3.7179116866  W2        1780            0.0000000000
      5339      1780  TIP3      H1             33.7679615875      -20.7125999386       -4.2445516866  W2        1780            0.0000000000
      5340      1780  TIP3      H2             33.5385515875      -19.3209599386       -3.6944716866  W2        1780            0.0000000000
      5341      1781  TIP3      OH2            18.6132015875      -20.8104099386       -4.3417216866  W2        1781            0.0000000000
      5342      1781  TIP3      H1             17.8361815875      -21.0449199386       -4.8491316866  W2        1781            0.0000000000
      5343      1781  TIP3      H2             19.1435615875      -21.6071999386       -4.3329216866  W2        1781            0.0000000000
      5344      1782  TIP3      OH2            17.4495415875      -21.0125999386       -8.5381116866  W2        1782            0.0000000000
      5345      1782  TIP3      H1             17.8886115875      -20.4015499386       -9.1297616866  W2        1782            0.0000000000
      5346      1782  TIP3      H2             16.8157815875      -20.4741899386       -8.0641116866  W2        1782            0.0000000000
      5347      1783  TIP3      OH2            23.1924615875      -20.8836999386       -4.5284116866  W2        1783            0.0000000000
      5348      1783  TIP3      H1             24.0668015875      -20.4952699386       -4.5579816866  W2        1783            0.0000000000
      5349      1783  TIP3      H2             23.0565415875      -21.0989199386       -3.6056916866  W2        1783            0.0000000000
      5350      1784  TIP3      OH2            28.7493015875      -20.8537199386       -2.8792416866  W2        1784            0.0000000000
      5351      1784  TIP3      H1             28.8254615875      -20.7585599386       -3.8286416866  W2        1784            0.0000000000
      5352      1784  TIP3      H2             28.4742215875      -21.7614299386       -2.7503316866  W2        1784            0.0000000000
      5353      1785  TIP3      OH2            30.1025615875      -20.8279399386       -7.1867416866  W2        1785            0.0000000000
      5354      1785  TIP3      H1             29.3996715875      -20.2130199386       -7.3966016866  W2        1785            0.0000000000
      5355      1785  TIP3      H2             29.6577015875      -21.6652699386       -7.0556516866  W2        1785            0.0000000000
      5356      1786  TIP3      OH2            17.3504915875       -5.0643799386       -7.6406016866  W2        1786            0.0000000000
      5357      1786  TIP3      H1             16.6654815875       -5.1024899386       -8.3080916866  W2        1786            0.0000000000
      5358      1786  TIP3      H2             17.3542115875       -4.1516199386       -7.3523916866  W2        1786            0.0000000000
      5359      1787  TIP3      OH2            19.3104515875      -19.0964499386      -10.0957016866  W2        1787            0.0000000000
      5360      1787  TIP3      H1             19.8017915875      -19.7262099386      -10.6231516866  W2        1787            0.0000000000
      5361      1787  TIP3      H2             19.9340815875      -18.8005099386       -9.4325816866  W2        1787            0.0000000000
      5362      1788  TIP3      OH2            24.3364615875      -18.8032999386       -7.6386516866  W2        1788            0.0000000000
      5363      1788  TIP3      H1             24.5145915875      -19.4499799386       -6.9557916866  W2        1788            0.0000000000
      5364      1788  TIP3      H2             24.2830815875      -17.9695299386       -7.1715416866  W2        1788            0.0000000000
      5365      1789  TIP3      OH2            26.2148415875       -3.8548899386       -9.2429816866  W2        1789            0.0000000000
      5366      1789  TIP3      H1             27.0808615875       -3.4881499386       -9.4211616866  W2        1789            0.0000000000
      5367      1789  TIP3      H2             25.9681215875       -4.2940899386      -10.0569016866  W2        1789            0.0000000000
      5368      1790  TIP3      OH2            32.9238015875       -4.2918599386       -6.5638716866  W2        1790            0.0000000000
      5369      1790  TIP3      H1             32.7295115875       -5.0396499386       -7.1289116866  W2        1790            0.0000000000
      5370      1790  TIP3      H2             32.8848115875       -3.5338499386       -7.1470816866  W2        1790            0.0000000000
      5371      1791  TIP3      OH2            18.5710015875      -20.2962199386        5.1758983134  W2        1791            0.0000000000
      5372      1791  TIP3      H1             18.2048215875      -21.0619599386        5.6183683134  W2        1791            0.0000000000
      5373      1791  TIP3      H2             19.4838515875      -20.2671999386        5.4624083134  W2        1791            0.0000000000
      5374      1792  TIP3      OH2            20.5440815875      -20.9457799386        6.7116083134  W2        1792            0.0000000000
      5375      1792  TIP3      H1             21.4424415875      -21.2197599386        6.5269483134  W2        1792            0.0000000000
      5376      1792  TIP3      H2             20.1573915875      -21.6881799386        7.1758683134  W2        1792            0.0000000000
      5377      1793  TIP3      OH2            19.1686115875       -4.1442999386      -10.6153916866  W2        1793            0.0000000000
      5378      1793  TIP3      H1             18.9010715875       -3.8580099386       -9.7420816866  W2        1793            0.0000000000
      5379      1793  TIP3      H2             19.9398715875       -4.6903799386      -10.4631416866  W2        1793            0.0000000000
      5380      1794  TIP3      OH2            28.9653115875      -21.6132499386        6.8938883134  W2        1794            0.0000000000
      5381      1794  TIP3      H1             29.0420315875      -22.0391799386        7.7476583134  W2        1794            0.0000000000
      5382      1794  TIP3      H2             29.8589715875      -21.5997799386        6.5512383134  W2        1794            0.0000000000
      5383      1795  TIP3      OH2            32.1414215875       -5.5406199386        5.5863083134  W2        1795            0.0000000000
      5384      1795  TIP3      H1             31.3596115875       -5.7268199386        5.0663683134  W2        1795            0.0000000000
      5385      1795  TIP3      H2             32.0694115875       -4.6111899386        5.8035583134  W2        1795            0.0000000000
      5386      1796  TIP3      OH2            37.8490915875      -12.7848999386        0.6288383134  W2        1796            0.0000000000
      5387      1796  TIP3      H1             37.8903015875      -13.4105699386        1.3520783134  W2        1796            0.0000000000
      5388      1796  TIP3      H2             38.5518615875      -12.1610399386        0.8108783134  W2        1796            0.0000000000
      5389      1797  TIP3      OH2            38.7724015875       -8.3350099386       -0.8362516866  W2        1797            0.0000000000
      5390      1797  TIP3      H1             38.4029215875       -9.1369599386       -1.2058216866  W2        1797            0.0000000000
      5391      1797  TIP3      H2             39.7135115875       -8.5035199386       -0.7899116866  W2        1797            0.0000000000
      5392      1798  TIP3      OH2            35.3824515875      -14.6747499386       -5.4433716866  W2        1798            0.0000000000
      5393      1798  TIP3      H1             34.9347915875      -13.8288799386       -5.4617216866  W2        1798            0.0000000000
      5394      1798  TIP3      H2             34.8215715875      -15.2543299386       -5.9588616866  W2        1798            0.0000000000
      5395      1799  TIP3      OH2            36.0930615875      -12.5127899386       -3.3175716866  W2        1799            0.0000000000
      5396      1799  TIP3      H1             36.3064115875      -13.2826299386       -2.7902716866  W2        1799            0.0000000000
      5397      1799  TIP3      H2             36.8308215875      -12.4231199386       -3.9208116866  W2        1799            0.0000000000
      5398      1800  TIP3      OH2            40.1655615875      -17.4710899386       -2.9580916866  W2        1800            0.0000000000
      5399      1800  TIP3      H1             40.2086715875      -16.6112399386       -3.3764616866  W2        1800            0.0000000000
      5400      1800  TIP3      H2             39.7079715875      -18.0236199386       -3.5917716866  W2        1800            0.0000000000
      5401      1801  TIP3      OH2            36.7857115875      -15.0745099386       -2.1959516866  W2        1801            0.0000000000
      5402      1801  TIP3      H1             37.4393715875      -15.6243399386       -1.7639416866  W2        1801            0.0000000000
      5403      1801  TIP3      H2             36.8096415875      -15.3486099386       -3.1127516866  W2        1801            0.0000000000
      5404      1802  TIP3      OH2            38.9757515875      -18.5532499386        1.1159883134  W2        1802            0.0000000000
      5405      1802  TIP3      H1             38.7569215875      -18.0231899386        0.3495883134  W2        1802            0.0000000000
      5406      1802  TIP3      H2             38.3078415875      -18.3266999386        1.7631283134  W2        1802            0.0000000000
      5407      1803  TIP3      OH2            38.5694815875      -16.6610699386       -0.9317916866  W2        1803            0.0000000000
      5408      1803  TIP3      H1             39.1831115875      -16.0283099386       -0.5585516866  W2        1803            0.0000000000
      5409      1803  TIP3      H2             39.0815515875      -17.1335699386       -1.5881016866  W2        1803            0.0000000000
      5410      1804  TIP3      OH2            39.9523215875       -8.9133799386        2.1905083134  W2        1804            0.0000000000
      5411      1804  TIP3      H1             39.9470815875       -8.0340299386        1.8124383134  W2        1804            0.0000000000
      5412      1804  TIP3      H2             39.0987315875       -8.9969699386        2.6154983134  W2        1804            0.0000000000
      5413      1805  TIP3      OH2            36.0734115875       -9.2425899386       -7.0275616866  W2        1805            0.0000000000
      5414      1805  TIP3      H1             35.8015015875       -9.0134899386       -7.9162716866  W2        1805            0.0000000000
      5415      1805  TIP3      H2             36.1189815875       -8.4047099386       -6.5670316866  W2        1805            0.0000000000
      5416      1806  TIP3      OH2            40.3198515875      -11.5702299386       -4.0968516866  W2        1806            0.0000000000
      5417      1806  TIP3      H1             39.9893715875      -11.9408899386       -4.9151516866  W2        1806            0.0000000000
      5418      1806  TIP3      H2             40.9082615875      -12.2408299386       -3.7500216866  W2        1806            0.0000000000
      5419      1807  TIP3      OH2            38.4864615875      -12.2042899386        3.4824083134  W2        1807            0.0000000000
      5420      1807  TIP3      H1             38.5567815875      -11.5536099386        4.1809083134  W2        1807            0.0000000000
      5421      1807  TIP3      H2             37.5956815875      -12.1015399386        3.1474983134  W2        1807            0.0000000000
      5422      1808  TIP3      OH2            39.8060615875       -6.3308999386        5.0172183134  W2        1808            0.0000000000
      5423      1808  TIP3      H1             39.8135915875       -6.4669299386        4.0697683134  W2        1808            0.0000000000
      5424      1808  TIP3      H2             38.8901015875       -6.4480899386        5.2692183134  W2        1808            0.0000000000
      5425      1809  TIP3      OH2            39.3101215875      -12.5007999386       -6.5075716866  W2        1809            0.0000000000
      5426      1809  TIP3      H1             39.0182515875      -11.7326299386       -6.9984416866  W2        1809            0.0000000000
      5427      1809  TIP3      H2             38.6356415875      -13.1601799386       -6.6704316866  W2        1809            0.0000000000
      5428      1810  TIP3      OH2            35.4031315875      -10.1378799386        2.3074083134  W2        1810            0.0000000000
      5429      1810  TIP3      H1             34.9019715875      -10.1659399386        1.4923783134  W2        1810            0.0000000000
      5430      1810  TIP3      H2             35.4085015875      -11.0435599386        2.6171383134  W2        1810            0.0000000000
      5431      1811  TIP3      OH2            35.1534015875       -7.3574999386       -0.8085716866  W2        1811            0.0000000000
      5432      1811  TIP3      H1             36.0994615875       -7.5017999386       -0.8276216866  W2        1811            0.0000000000
      5433      1811  TIP3      H2             35.0410315875       -6.5732199386       -0.2714516866  W2        1811            0.0000000000
      5434      1812  TIP3      OH2            38.3976115875       -4.5565399386       -4.6631016866  W2        1812            0.0000000000
      5435      1812  TIP3      H1             38.5496515875       -4.9044999386       -3.7844516866  W2        1812            0.0000000000
      5436      1812  TIP3      H2             37.5466515875       -4.9128099386       -4.9183816866  W2        1812            0.0000000000
      5437      1813  TIP3      OH2            37.6521815875       -8.8143399386        3.3506883134  W2        1813            0.0000000000
      5438      1813  TIP3      H1             37.8683115875       -9.1757799386        4.2102683134  W2        1813            0.0000000000
      5439      1813  TIP3      H2             36.7966515875       -9.1889599386        3.1410383134  W2        1813            0.0000000000
      5440      1814  TIP3      OH2            40.2709815875      -20.3442899386       -0.6538916866  W2        1814            0.0000000000
      5441      1814  TIP3      H1             39.4093515875      -20.4314699386       -1.0616016866  W2        1814            0.0000000000
      5442      1814  TIP3      H2             40.2485515875      -19.4882799386       -0.2261316866  W2        1814            0.0000000000
      5443      1815  TIP3      OH2            40.3619915875      -15.3788399386        0.4411283134  W2        1815            0.0000000000
      5444      1815  TIP3      H1             39.7202015875      -15.4191099386        1.1501383134  W2        1815            0.0000000000
      5445      1815  TIP3      H2             40.3991915875      -14.4523699386        0.2034283134  W2        1815            0.0000000000
      5446      1816  TIP3      OH2            40.3589015875      -15.1578299386       -4.6468716866  W2        1816            0.0000000000
      5447      1816  TIP3      H1             39.4661915875      -15.4982199386       -4.7054916866  W2        1816            0.0000000000
      5448      1816  TIP3      H2             40.8095615875      -15.5347399386       -5.4025516866  W2        1816            0.0000000000
      5449      1817  TIP3      OH2            38.1120415875      -15.0584899386        2.3083283134  W2        1817            0.0000000000
      5450      1817  TIP3      H1             38.0739815875      -14.6583299386        3.1770383134  W2        1817            0.0000000000
      5451      1817  TIP3      H2             37.6211515875      -15.8752499386        2.3986183134  W2        1817            0.0000000000
      5452      1818  TIP3      OH2            34.7201215875      -17.9423099386       -3.8412016866  W2        1818            0.0000000000
      5453      1818  TIP3      H1             35.3508915875      -17.9710999386       -3.1218116866  W2        1818            0.0000000000
      5454      1818  TIP3      H2             35.1695515875      -18.3674399386       -4.5716116866  W2        1818            0.0000000000
      5455      1819  TIP3      OH2            35.9943315875      -17.1961099386       -8.4171616866  W2        1819            0.0000000000
      5456      1819  TIP3      H1             36.4685015875      -16.6051199386       -9.0020716866  W2        1819            0.0000000000
      5457      1819  TIP3      H2             35.2769715875      -16.6658199386       -8.0701516866  W2        1819            0.0000000000
      5458      1820  TIP3      OH2            37.7687715875      -16.1014499386       -4.7337016866  W2        1820            0.0000000000
      5459      1820  TIP3      H1             36.8795715875      -16.0018999386       -5.0737416866  W2        1820            0.0000000000
      5460      1820  TIP3      H2             38.0652615875      -16.9431499386       -5.0799116866  W2        1820            0.0000000000
      5461      1821  TIP3      OH2            40.0959715875      -14.9069699386       -9.5106316866  W2        1821            0.0000000000
      5462      1821  TIP3      H1             39.5534815875      -15.2865899386      -10.2018716866  W2        1821            0.0000000000
      5463      1821  TIP3      H2             40.9294615875      -14.7124999386       -9.9392216866  W2        1821            0.0000000000
      5464      1822  TIP3      OH2            38.2311115875      -10.3497799386        5.5885283134  W2        1822            0.0000000000
      5465      1822  TIP3      H1             38.9633515875      -10.0951899386        6.1499783134  W2        1822            0.0000000000
      5466      1822  TIP3      H2             37.4509815875      -10.1452399386        6.1040683134  W2        1822            0.0000000000
      5467      1823  TIP3      OH2            39.2623715875      -18.8061699386       -5.2550216866  W2        1823            0.0000000000
      5468      1823  TIP3      H1             38.9453215875      -19.7086399386       -5.2904816866  W2        1823            0.0000000000
      5469      1823  TIP3      H2             40.0437815875      -18.8044299386       -5.8078616866  W2        1823            0.0000000000
      5470      1824  TIP3      OH2            38.5560815875      -11.0463999386       -1.8050316866  W2        1824            0.0000000000
      5471      1824  TIP3      H1             39.3008015875      -11.0488299386       -2.4063816866  W2        1824            0.0000000000
      5472      1824  TIP3      H2             38.6337415875      -11.8700199386       -1.3235216866  W2        1824            0.0000000000
      5473      1825  TIP3      OH2            35.5640515875      -12.5857099386        3.5098183134  W2        1825            0.0000000000
      5474      1825  TIP3      H1             35.7869115875      -13.0037499386        4.3415683134  W2        1825            0.0000000000
      5475      1825  TIP3      H2             34.9620615875      -13.1982099386        3.0870983134  W2        1825            0.0000000000
      5476      1826  TIP3      OH2            36.6857915875      -12.6661699386       -9.8136416866  W2        1826            0.0000000000
      5477      1826  TIP3      H1             37.3017815875      -12.0394499386       -9.4341616866  W2        1826            0.0000000000
      5478      1826  TIP3      H2             35.8240515875      -12.3501899386       -9.5419916866  W2        1826            0.0000000000
      5479      1827  TIP3      OH2            37.1980015875      -17.8324399386        3.0679583134  W2        1827            0.0000000000
      5480      1827  TIP3      H1             36.3052315875      -17.4938999386        3.0003583134  W2        1827            0.0000000000
      5481      1827  TIP3      H2             37.0992815875      -18.6878299386        3.4860383134  W2        1827            0.0000000000
      5482      1828  TIP3      OH2            36.8492015875       -6.0279999386        1.5028983134  W2        1828            0.0000000000
      5483      1828  TIP3      H1             37.0662315875       -6.9597599386        1.4718683134  W2        1828            0.0000000000
      5484      1828  TIP3      H2             37.0955515875       -5.7534999386        2.3861783134  W2        1828            0.0000000000
      5485      1829  TIP3      OH2            38.1008315875      -10.7537899386       -8.3210816866  W2        1829            0.0000000000
      5486      1829  TIP3      H1             37.4147615875      -10.4015399386       -7.7541116866  W2        1829            0.0000000000
      5487      1829  TIP3      H2             38.6236215875       -9.9908299386       -8.5676516866  W2        1829            0.0000000000
      5488      1830  TIP3      OH2            40.4581915875      -18.5671199386       -8.4847516866  W2        1830            0.0000000000
      5489      1830  TIP3      H1             40.3746715875      -17.6788099386       -8.1381116866  W2        1830            0.0000000000
      5490      1830  TIP3      H2             41.3482215875      -18.8324499386       -8.2530716866  W2        1830            0.0000000000
      5491      1831  TIP3      OH2            38.7167215875       -8.1398999386       -9.4243016866  W2        1831            0.0000000000
      5492      1831  TIP3      H1             39.3088715875       -7.4404199386       -9.1480616866  W2        1831            0.0000000000
      5493      1831  TIP3      H2             39.1760215875       -8.5729499386      -10.1438416866  W2        1831            0.0000000000
      5494      1832  TIP3      OH2            37.0326415875      -15.4755999386      -10.3083616866  W2        1832            0.0000000000
      5495      1832  TIP3      H1             36.9879015875      -14.5362899386      -10.1296616866  W2        1832            0.0000000000
      5496      1832  TIP3      H2             36.1449615875      -15.7111099386      -10.5781516866  W2        1832            0.0000000000
      5497      1833  TIP3      OH2            37.8408415875      -20.6939399386       -1.6352616866  W2        1833            0.0000000000
      5498      1833  TIP3      H1             37.6118215875      -20.6346899386       -2.5627616866  W2        1833            0.0000000000
      5499      1833  TIP3      H2             37.3981815875      -21.4853899386       -1.3288516866  W2        1833            0.0000000000
      5500      1834  TIP3      OH2            36.7711715875       -6.7532299386       -5.4746816866  W2        1834            0.0000000000
      5501      1834  TIP3      H1             35.9390315875       -6.2809599386       -5.4475416866  W2        1834            0.0000000000
      5502      1834  TIP3      H2             37.3170015875       -6.2434699386       -6.0733716866  W2        1834            0.0000000000
      5503      1835  TIP3      OH2            36.0595415875       -4.1408599386        5.8551183134  W2        1835            0.0000000000
      5504      1835  TIP3      H1             36.5997615875       -4.3574599386        6.6150383134  W2        1835            0.0000000000
      5505      1835  TIP3      H2             35.5783415875       -4.9462599386        5.6653683134  W2        1835            0.0000000000
      5506      1836  TIP3      OH2            35.9664915875      -10.3304499386        6.8095483134  W2        1836            0.0000000000
      5507      1836  TIP3      H1             36.1105415875      -11.2323799386        6.5232183134  W2        1836            0.0000000000
      5508      1836  TIP3      H2             35.1942315875      -10.0442399386        6.3217783134  W2        1836            0.0000000000
      5509      1837  TIP3      OH2            40.3078615875       -9.9868799386      -11.0579916866  W2        1837            0.0000000000
      5510      1837  TIP3      H1             40.3722715875      -10.7809199386      -10.5273516866  W2        1837            0.0000000000
      5511      1837  TIP3      H2             40.9607815875      -10.1055999386      -11.7477916866  W2        1837            0.0000000000
      5512      1838  TIP3      OH2            36.7991415875      -13.1301199386        6.2294783134  W2        1838            0.0000000000
      5513      1838  TIP3      H1             37.2072615875      -13.9874599386        6.1085383134  W2        1838            0.0000000000
      5514      1838  TIP3      H2             36.5389015875      -13.1159899386        7.1505083134  W2        1838            0.0000000000
      5515      1839  TIP3      OH2            39.5641715875      -15.5681199386        6.5976383134  W2        1839            0.0000000000
      5516      1839  TIP3      H1             38.7970715875      -16.1006399386        6.3873983134  W2        1839            0.0000000000
      5517      1839  TIP3      H2             40.2430715875      -15.8780799386        5.9982683134  W2        1839            0.0000000000
      5518      1840  TIP3      OH2            37.7444515875      -17.6477399386        6.3021083134  W2        1840            0.0000000000
      5519      1840  TIP3      H1             37.9561915875      -18.3541299386        5.6918583134  W2        1840            0.0000000000
      5520      1840  TIP3      H2             37.6332015875      -18.0851399386        7.1462283134  W2        1840            0.0000000000
      5521      1841  TIP3      OH2            35.9939415875       -8.4443299386      -10.0057016866  W2        1841            0.0000000000
      5522      1841  TIP3      H1             36.9078615875       -8.3654399386       -9.7323116866  W2        1841            0.0000000000
      5523      1841  TIP3      H2             36.0012515875       -9.1313699386      -10.6721416866  W2        1841            0.0000000000
      5524      1842  TIP3      OH2            34.6430015875       -3.0514799386       -4.9283116866  W2        1842            0.0000000000
      5525      1842  TIP3      H1             33.9957115875       -3.5133099386       -5.4611916866  W2        1842            0.0000000000
      5526      1842  TIP3      H2             34.9974615875       -3.7231499386       -4.3456916866  W2        1842            0.0000000000
      5527      1843  TIP3      OH2            35.5129215875       -4.9707799386       -3.1236916866  W2        1843            0.0000000000
      5528      1843  TIP3      H1             35.1786015875       -5.8510499386       -2.9516716866  W2        1843            0.0000000000
      5529      1843  TIP3      H2             35.7351615875       -4.6252799386       -2.2591316866  W2        1843            0.0000000000
      5530      1844  TIP3      OH2            35.5928715875      -11.8952399386       -0.6722016866  W2        1844            0.0000000000
      5531      1844  TIP3      H1             35.7771615875      -11.9770699386       -1.6079116866  W2        1844            0.0000000000
      5532      1844  TIP3      H2             36.4421615875      -12.0195399386       -0.2485616866  W2        1844            0.0000000000
      5533      1845  TIP3      OH2            35.1903515875      -16.6247399386        5.4686783134  W2        1845            0.0000000000
      5534      1845  TIP3      H1             36.1098415875      -16.7469099386        5.7049883134  W2        1845            0.0000000000
      5535      1845  TIP3      H2             34.7408015875      -17.3747699386        5.8580283134  W2        1845            0.0000000000
      5536      1846  TIP3      OH2            36.4116015875      -18.3125799386       -1.6400316866  W2        1846            0.0000000000
      5537      1846  TIP3      H1             36.8567615875      -19.1043299386       -1.3380616866  W2        1846            0.0000000000
      5538      1846  TIP3      H2             36.8779015875      -17.5960599386       -1.2094716866  W2        1846            0.0000000000
      5539      1847  TIP3      OH2            34.7156315875      -15.3132799386       -0.5710116866  W2        1847            0.0000000000
      5540      1847  TIP3      H1             35.2076115875      -15.5342299386       -1.3618116866  W2        1847            0.0000000000
      5541      1847  TIP3      H2             35.0777215875      -14.4729399386       -0.2900616866  W2        1847            0.0000000000
      5542      1848  TIP3      OH2            35.0292815875      -19.0553699386       -6.5167716866  W2        1848            0.0000000000
      5543      1848  TIP3      H1             34.1041215875      -18.8467099386       -6.6462216866  W2        1848            0.0000000000
      5544      1848  TIP3      H2             35.4832715875      -18.5712899386       -7.2065416866  W2        1848            0.0000000000
      5545      1849  TIP3      OH2            34.9928215875      -20.3174699386        1.8274783134  W2        1849            0.0000000000
      5546      1849  TIP3      H1             34.3278715875      -20.5634399386        2.4705683134  W2        1849            0.0000000000
      5547      1849  TIP3      H2             34.5499515875      -19.6954299386        1.2502783134  W2        1849            0.0000000000
      5548      1850  TIP3      OH2            37.1847515875       -7.1420599386        5.9720583134  W2        1850            0.0000000000
      5549      1850  TIP3      H1             36.3640015875       -6.9674099386        5.5115283134  W2        1850            0.0000000000
      5550      1850  TIP3      H2             36.9325315875       -7.2155899386        6.8924983134  W2        1850            0.0000000000
      5551      1851  TIP3      OH2            40.1390415875       -6.1679399386        2.2304583134  W2        1851            0.0000000000
      5552      1851  TIP3      H1             39.7141515875       -5.3580899386        1.9479183134  W2        1851            0.0000000000
      5553      1851  TIP3      H2             41.0433215875       -6.0825299386        1.9284383134  W2        1851            0.0000000000
      5554      1852  TIP3      OH2            37.5407115875       -2.9115499386        2.2779883134  W2        1852            0.0000000000
      5555      1852  TIP3      H1             36.8203515875       -2.4714499386        1.8267583134  W2        1852            0.0000000000
      5556      1852  TIP3      H2             37.1751115875       -3.1620799386        3.1263883134  W2        1852            0.0000000000
      5557      1853  TIP3      OH2            40.0079715875       -3.3111599386        1.3077083134  W2        1853            0.0000000000
      5558      1853  TIP3      H1             39.1431915875       -3.2393099386        1.7117183134  W2        1853            0.0000000000
      5559      1853  TIP3      H2             39.9528715875       -2.7644299386        0.5239583134  W2        1853            0.0000000000
      5560      1854  TIP3      OH2            36.9555215875       -4.2882999386       -0.8118316866  W2        1854            0.0000000000
      5561      1854  TIP3      H1             36.9371215875       -4.7137899386        0.0453983134  W2        1854            0.0000000000
      5562      1854  TIP3      H2             37.7603115875       -4.6067999386       -1.2206116866  W2        1854            0.0000000000
      5563      1855  TIP3      OH2            39.0968315875       -5.5784299386       -2.1568416866  W2        1855            0.0000000000
      5564      1855  TIP3      H1             38.8779015875       -6.4946899386       -1.9872416866  W2        1855            0.0000000000
      5565      1855  TIP3      H2             39.9210515875       -5.4383899386       -1.6907016866  W2        1855            0.0000000000
      5566      1856  TIP3      OH2            37.4692015875      -20.8104099386       -4.3417216866  W2        1856            0.0000000000
      5567      1856  TIP3      H1             36.6921815875      -21.0449199386       -4.8491316866  W2        1856            0.0000000000
      5568      1856  TIP3      H2             37.9995615875      -21.6071999386       -4.3329216866  W2        1856            0.0000000000
      5569      1857  TIP3      OH2            36.3055415875      -21.0125999386       -8.5381116866  W2        1857            0.0000000000
      5570      1857  TIP3      H1             36.7446115875      -20.4015499386       -9.1297616866  W2        1857            0.0000000000
      5571      1857  TIP3      H2             35.6717815875      -20.4741899386       -8.0641116866  W2        1857            0.0000000000
      5572      1858  TIP3      OH2            36.2064915875       -5.0643799386       -7.6406016866  W2        1858            0.0000000000
      5573      1858  TIP3      H1             35.5214815875       -5.1024899386       -8.3080916866  W2        1858            0.0000000000
      5574      1858  TIP3      H2             36.2102115875       -4.1516199386       -7.3523916866  W2        1858            0.0000000000
      5575      1859  TIP3      OH2            38.1664515875      -19.0964499386      -10.0957016866  W2        1859            0.0000000000
      5576      1859  TIP3      H1             38.6577915875      -19.7262099386      -10.6231516866  W2        1859            0.0000000000
      5577      1859  TIP3      H2             38.7900815875      -18.8005099386       -9.4325816866  W2        1859            0.0000000000
      5578      1860  TIP3      OH2            37.4270015875      -20.2962199386        5.1758983134  W2        1860            0.0000000000
      5579      1860  TIP3      H1             37.0608215875      -21.0619599386        5.6183683134  W2        1860            0.0000000000
      5580      1860  TIP3      H2             38.3398515875      -20.2671999386        5.4624083134  W2        1860            0.0000000000
      5581      1861  TIP3      OH2            39.4000815875      -20.9457799386        6.7116083134  W2        1861            0.0000000000
      5582      1861  TIP3      H1             40.2984415875      -21.2197599386        6.5269483134  W2        1861            0.0000000000
      5583      1861  TIP3      H2             39.0133915875      -21.6881799386        7.1758683134  W2        1861            0.0000000000
      5584      1862  TIP3      OH2            38.0246115875       -4.1442999386      -10.6153916866  W2        1862            0.0000000000
      5585      1862  TIP3      H1             37.7570715875       -3.8580099386       -9.7420816866  W2        1862            0.0000000000
      5586      1862  TIP3      H2             38.7958715875       -4.6903799386      -10.4631416866  W2        1862            0.0000000000
      5587      1863  TIP3      OH2           -28.8765384125        7.2018200614       -4.3829716866  W2        1863            0.0000000000
      5588      1863  TIP3      H1            -28.7874284125        8.1456400614       -4.5152616866  W2        1863            0.0000000000
      5589      1863  TIP3      H2            -29.5147784125        6.9264600614       -5.0410316866  W2        1863            0.0000000000
      5590      1864  TIP3      OH2           -29.9434084125        6.4568900614       -0.9641516866  W2        1864            0.0000000000
      5591      1864  TIP3      H1            -29.9816584125        5.8105200614       -0.2591916866  W2        1864            0.0000000000
      5592      1864  TIP3      H2            -30.2657584125        5.9903300614       -1.7352816866  W2        1864            0.0000000000
      5593      1865  TIP3      OH2           -37.5749084125        6.0711000614        0.6288383134  W2        1865            0.0000000000
      5594      1865  TIP3      H1            -37.5336984125        5.4454300614        1.3520783134  W2        1865            0.0000000000
      5595      1865  TIP3      H2            -36.8721384125        6.6949600614        0.8108783134  W2        1865            0.0000000000
      5596      1866  TIP3      OH2           -26.2373884125        9.3959300614       -2.6626416866  W2        1866            0.0000000000
      5597      1866  TIP3      H1            -26.6781184125        8.6755300614       -2.2120816866  W2        1866            0.0000000000
      5598      1866  TIP3      H2            -26.2504184125       10.1166500614       -2.0328716866  W2        1866            0.0000000000
      5599      1867  TIP3      OH2           -36.6515984125       10.5209900614       -0.8362516866  W2        1867            0.0000000000
      5600      1867  TIP3      H1            -37.0210784125        9.7190400614       -1.2058216866  W2        1867            0.0000000000
      5601      1867  TIP3      H2            -35.7104884125       10.3524800614       -0.7899116866  W2        1867            0.0000000000
      5602      1868  TIP3      OH2           -40.0415484125        4.1812500614       -5.4433716866  W2        1868            0.0000000000
      5603      1868  TIP3      H1            -40.4892084125        5.0271200614       -5.4617216866  W2        1868            0.0000000000
      5604      1868  TIP3      H2            -40.6024284125        3.6016700614       -5.9588616866  W2        1868            0.0000000000
      5605      1869  TIP3      OH2           -39.3309384125        6.3432100614       -3.3175716866  W2        1869            0.0000000000
      5606      1869  TIP3      H1            -39.1175884125        5.5733700614       -2.7902716866  W2        1869            0.0000000000
      5607      1869  TIP3      H2            -38.5931784125        6.4328800614       -3.9208116866  W2        1869            0.0000000000
      5608      1870  TIP3      OH2           -29.1258384125       14.5001000614       -2.4506016866  W2        1870            0.0000000000
      5609      1870  TIP3      H1            -28.5061984125       13.8235700614       -2.7236816866  W2        1870            0.0000000000
      5610      1870  TIP3      H2            -29.3340984125       14.2821800614       -1.5421116866  W2        1870            0.0000000000
      5611      1871  TIP3      OH2           -31.5539684125        8.8890300614       -0.5580516866  W2        1871            0.0000000000
      5612      1871  TIP3      H1            -31.2501784125        8.2031700614       -1.1526416866  W2        1871            0.0000000000
      5613      1871  TIP3      H2            -30.8325684125        9.0079000614        0.0597483134  W2        1871            0.0000000000
      5614      1872  TIP3      OH2           -22.8909884125        0.4905600614        0.3025683134  W2        1872            0.0000000000
      5615      1872  TIP3      H1            -22.8417684125        1.1006800614        1.0384783134  W2        1872            0.0000000000
      5616      1872  TIP3      H2            -22.4654784125        0.9516500614       -0.4203216866  W2        1872            0.0000000000
      5617      1873  TIP3      OH2           -28.4132684125        3.2832700614       -0.2305716866  W2        1873            0.0000000000
      5618      1873  TIP3      H1            -28.2706784125        2.3369700614       -0.2104116866  W2        1873            0.0000000000
      5619      1873  TIP3      H2            -28.5193684125        3.4902500614       -1.1590816866  W2        1873            0.0000000000
      5620      1874  TIP3      OH2           -35.2584384125        1.3849100614       -2.9580916866  W2        1874            0.0000000000
      5621      1874  TIP3      H1            -35.2153284125        2.2447600614       -3.3764616866  W2        1874            0.0000000000
      5622      1874  TIP3      H2            -35.7160284125        0.8323800614       -3.5917716866  W2        1874            0.0000000000
      5623      1875  TIP3      OH2           -27.5361684125        1.5154700614       -4.5572616866  W2        1875            0.0000000000
      5624      1875  TIP3      H1            -26.8897384125        1.1867900614       -3.9325016866  W2        1875            0.0000000000
      5625      1875  TIP3      H2            -27.0262284125        2.0333700614       -5.1801216866  W2        1875            0.0000000000
      5626      1876  TIP3      OH2           -38.6382884125        3.7814900614       -2.1959516866  W2        1876            0.0000000000
      5627      1876  TIP3      H1            -37.9846284125        3.2316600614       -1.7639416866  W2        1876            0.0000000000
      5628      1876  TIP3      H2            -38.6143584125        3.5073900614       -3.1127516866  W2        1876            0.0000000000
      5629      1877  TIP3      OH2           -33.4818384125        5.3316200614       -2.9808016866  W2        1877            0.0000000000
      5630      1877  TIP3      H1            -32.8657384125        4.8051600614       -2.4714016866  W2        1877            0.0000000000
      5631      1877  TIP3      H2            -34.0679584125        4.6914900614       -3.3844416866  W2        1877            0.0000000000
      5632      1878  TIP3      OH2           -22.4995284125        1.9684800614        2.5385483134  W2        1878            0.0000000000
      5633      1878  TIP3      H1            -23.1880684125        2.6265500614        2.4432083134  W2        1878            0.0000000000
      5634      1878  TIP3      H2            -22.4840684125        1.7712700614        3.4750883134  W2        1878            0.0000000000
      5635      1879  TIP3      OH2           -36.4482484125        0.3027500614        1.1159883134  W2        1879            0.0000000000
      5636      1879  TIP3      H1            -36.6670784125        0.8328100614        0.3495883134  W2        1879            0.0000000000
      5637      1879  TIP3      H2            -37.1161584125        0.5293000614        1.7631283134  W2        1879            0.0000000000
      5638      1880  TIP3      OH2           -29.0792684125        9.8028600614       -5.3401016866  W2        1880            0.0000000000
      5639      1880  TIP3      H1            -29.3747584125        9.4800900614       -6.1914116866  W2        1880            0.0000000000
      5640      1880  TIP3      H2            -29.4034884125       10.7025300614       -5.2988416866  W2        1880            0.0000000000
      5641      1881  TIP3      OH2           -33.8791084125        7.9783200614        1.4033583134  W2        1881            0.0000000000
      5642      1881  TIP3      H1            -34.6191984125        8.5764700614        1.5068783134  W2        1881            0.0000000000
      5643      1881  TIP3      H2            -33.1651584125        8.5322800614        1.0877183134  W2        1881            0.0000000000
      5644      1882  TIP3      OH2           -25.7723284125        0.8064000614       -2.5766716866  W2        1882            0.0000000000
      5645      1882  TIP3      H1            -25.9875284125        0.0407400614       -2.0440716866  W2        1882            0.0000000000
      5646      1882  TIP3      H2            -25.1165884125        1.2788600614       -2.0638216866  W2        1882            0.0000000000
      5647      1883  TIP3      OH2           -36.8545184125        2.1949300614       -0.9317916866  W2        1883            0.0000000000
      5648      1883  TIP3      H1            -36.2408884125        2.8276900614       -0.5585516866  W2        1883            0.0000000000
      5649      1883  TIP3      H2            -36.3424484125        1.7224300614       -1.5881016866  W2        1883            0.0000000000
      5650      1884  TIP3      OH2           -35.4716784125        9.9426200614        2.1905083134  W2        1884            0.0000000000
      5651      1884  TIP3      H1            -35.4769184125       10.8219700614        1.8124383134  W2        1884            0.0000000000
      5652      1884  TIP3      H2            -36.3252684125        9.8590300614        2.6154983134  W2        1884            0.0000000000
      5653      1885  TIP3      OH2           -39.3505884125        9.6134100614       -7.0275616866  W2        1885            0.0000000000
      5654      1885  TIP3      H1            -39.6224984125        9.8425100614       -7.9162716866  W2        1885            0.0000000000
      5655      1885  TIP3      H2            -39.3050184125       10.4512900614       -6.5670316866  W2        1885            0.0000000000
      5656      1886  TIP3      OH2           -25.7256184125       11.2350000614       -0.3147116866  W2        1886            0.0000000000
      5657      1886  TIP3      H1            -26.6672484125       11.2933900614       -0.1530216866  W2        1886            0.0000000000
      5658      1886  TIP3      H2            -25.4490084125       12.1410500614       -0.4517416866  W2        1886            0.0000000000
      5659      1887  TIP3      OH2           -25.4249184125       -0.4784699386        1.1026783134  W2        1887            0.0000000000
      5660      1887  TIP3      H1            -26.1609984125        0.1322400614        1.0648083134  W2        1887            0.0000000000
      5661      1887  TIP3      H2            -24.7415184125       -0.0635699386        0.5763183134  W2        1887            0.0000000000
      5662      1888  TIP3      OH2           -32.4217784125       -2.3917399386       -1.4315216866  W2        1888            0.0000000000
      5663      1888  TIP3      H1            -32.5393584125       -3.3401399386       -1.4856916866  W2        1888            0.0000000000
      5664      1888  TIP3      H2            -33.2767684125       -2.0591299386       -1.1584116866  W2        1888            0.0000000000
      5665      1889  TIP3      OH2           -27.4734984125       13.0163500614       -3.6895516866  W2        1889            0.0000000000
      5666      1889  TIP3      H1            -27.0482684125       12.3091400614       -4.1745916866  W2        1889            0.0000000000
      5667      1889  TIP3      H2            -27.1564984125       13.8176200614       -4.1063316866  W2        1889            0.0000000000
      5668      1890  TIP3      OH2           -26.3138484125       10.9172000614       -5.1808916866  W2        1890            0.0000000000
      5669      1890  TIP3      H1            -26.5713684125       10.2272100614       -5.7923016866  W2        1890            0.0000000000
      5670      1890  TIP3      H2            -26.2427684125       10.4743200614       -4.3353016866  W2        1890            0.0000000000
      5671      1891  TIP3      OH2           -24.6278284125        9.4838700614        3.2964583134  W2        1891            0.0000000000
      5672      1891  TIP3      H1            -24.4881984125        8.8921200614        2.5571583134  W2        1891            0.0000000000
      5673      1891  TIP3      H2            -24.4605484125       10.3564600614        2.9403383134  W2        1891            0.0000000000
      5674      1892  TIP3      OH2           -30.1552884125        6.4458200614       -6.9309416866  W2        1892            0.0000000000
      5675      1892  TIP3      H1            -30.8667384125        6.9807900614       -7.2828916866  W2        1892            0.0000000000
      5676      1892  TIP3      H2            -29.4643284125        6.5010300614       -7.5910516866  W2        1892            0.0000000000
      5677      1893  TIP3      OH2           -30.1013684125        4.9032500614       -9.8924416866  W2        1893            0.0000000000
      5678      1893  TIP3      H1            -29.4003784125        4.9259400614       -9.2410416866  W2        1893            0.0000000000
      5679      1893  TIP3      H2            -29.7990784125        4.2752200614      -10.5485116866  W2        1893            0.0000000000
      5680      1894  TIP3      OH2           -22.7858984125        5.8236700614        1.3624983134  W2        1894            0.0000000000
      5681      1894  TIP3      H1            -23.4384884125        6.5182300614        1.4515883134  W2        1894            0.0000000000
      5682      1894  TIP3      H2            -22.3208684125        6.0337600614        0.5526583134  W2        1894            0.0000000000
      5683      1895  TIP3      OH2           -26.7495184125        6.6551500614       -5.9793516866  W2        1895            0.0000000000
      5684      1895  TIP3      H1            -27.4814184125        6.8835200614       -5.4062916866  W2        1895            0.0000000000
      5685      1895  TIP3      H2            -26.3022984125        5.9414200614       -5.5246016866  W2        1895            0.0000000000
      5686      1896  TIP3      OH2           -26.8521684125        4.8294100614        3.0883483134  W2        1896            0.0000000000
      5687      1896  TIP3      H1            -26.7722584125        5.5928500614        3.6601983134  W2        1896            0.0000000000
      5688      1896  TIP3      H2            -27.4533984125        5.1086500614        2.3978583134  W2        1896            0.0000000000
      5689      1897  TIP3      OH2           -35.1041484125        7.2857700614       -4.0968516866  W2        1897            0.0000000000
      5690      1897  TIP3      H1            -35.4346284125        6.9151100614       -4.9151516866  W2        1897            0.0000000000
      5691      1897  TIP3      H2            -34.5157384125        6.6151700614       -3.7500216866  W2        1897            0.0000000000
      5692      1898  TIP3      OH2           -33.7373984125       10.7138300614       -1.4156316866  W2        1898            0.0000000000
      5693      1898  TIP3      H1            -33.8322684125       10.1351400614       -2.1721716866  W2        1898            0.0000000000
      5694      1898  TIP3      H2            -33.0080384125       10.3424000614       -0.9193516866  W2        1898            0.0000000000
      5695      1899  TIP3      OH2           -34.7375984125        6.0543300614       -0.4633516866  W2        1899            0.0000000000
      5696      1899  TIP3      H1            -34.1723484125        6.1757500614       -1.2262316866  W2        1899            0.0000000000
      5697      1899  TIP3      H2            -34.4187084125        6.6918300614        0.1754983134  W2        1899            0.0000000000
      5698      1900  TIP3      OH2           -28.4283784125       11.5575200614        0.2706983134  W2        1900            0.0000000000
      5699      1900  TIP3      H1            -28.6687184125       12.2198300614        0.9186183134  W2        1900            0.0000000000
      5700      1900  TIP3      H2            -28.6265584125       10.7230400614        0.6956583134  W2        1900            0.0000000000
      5701      1901  TIP3      OH2           -33.8575284125       10.4536000614        4.2538383134  W2        1901            0.0000000000
      5702      1901  TIP3      H1            -34.1687784125       11.2359200614        4.7091583134  W2        1901            0.0000000000
      5703      1901  TIP3      H2            -34.5075084125       10.3005100614        3.5680383134  W2        1901            0.0000000000
      5704      1902  TIP3      OH2           -27.8785684125        5.8174400614       -8.2942316866  W2        1902            0.0000000000
      5705      1902  TIP3      H1            -27.2990184125        5.9674700614       -7.5473416866  W2        1902            0.0000000000
      5706      1902  TIP3      H2            -27.4645684125        6.2881800614       -9.0175916866  W2        1902            0.0000000000
      5707      1903  TIP3      OH2           -36.9375384125        6.6517100614        3.4824083134  W2        1903            0.0000000000
      5708      1903  TIP3      H1            -36.8672184125        7.3023900614        4.1809083134  W2        1903            0.0000000000
      5709      1903  TIP3      H2            -37.8283184125        6.7544600614        3.1474983134  W2        1903            0.0000000000
      5710      1904  TIP3      OH2           -30.1520784125       12.5542900614       -4.8589216866  W2        1904            0.0000000000
      5711      1904  TIP3      H1            -29.6783184125       12.8499200614       -4.0815016866  W2        1904            0.0000000000
      5712      1904  TIP3      H2            -30.7151484125       13.2924500614       -5.0919616866  W2        1904            0.0000000000
      5713      1905  TIP3      OH2           -35.6179384125       12.5251000614        5.0172183134  W2        1905            0.0000000000
      5714      1905  TIP3      H1            -35.6104084125       12.3890700614        4.0697683134  W2        1905            0.0000000000
      5715      1905  TIP3      H2            -36.5338984125       12.4079100614        5.2692183134  W2        1905            0.0000000000
      5716      1906  TIP3      OH2           -24.1797284125       -2.4325199386       -8.4812616866  W2        1906            0.0000000000
      5717      1906  TIP3      H1            -25.0796584125       -2.2936199386       -8.1862016866  W2        1906            0.0000000000
      5718      1906  TIP3      H2            -23.9278884125       -1.6010599386       -8.8830916866  W2        1906            0.0000000000
      5719      1907  TIP3      OH2           -36.1138784125        6.3552000614       -6.5075716866  W2        1907            0.0000000000
      5720      1907  TIP3      H1            -36.4057484125        7.1233700614       -6.9984416866  W2        1907            0.0000000000
      5721      1907  TIP3      H2            -36.7883584125        5.6958200614       -6.6704316866  W2        1907            0.0000000000
      5722      1908  TIP3      OH2           -22.9905884125       11.9337200614      -10.1048716866  W2        1908            0.0000000000
      5723      1908  TIP3      H1            -22.9172384125       12.8727400614       -9.9343416866  W2        1908            0.0000000000
      5724      1908  TIP3      H2            -22.0850784125       11.6285800614      -10.1611416866  W2        1908            0.0000000000
      5725      1909  TIP3      OH2           -40.0208684125        8.7181200614        2.3074083134  W2        1909            0.0000000000
      5726      1909  TIP3      H1            -40.5220284125        8.6900600614        1.4923783134  W2        1909            0.0000000000
      5727      1909  TIP3      H2            -40.0154984125        7.8124400614        2.6171383134  W2        1909            0.0000000000
      5728      1910  TIP3      OH2           -40.2705984125       11.4985000614       -0.8085716866  W2        1910            0.0000000000
      5729      1910  TIP3      H1            -39.3245384125       11.3542000614       -0.8276216866  W2        1910            0.0000000000
      5730      1910  TIP3      H2            -40.3829684125       12.2827800614       -0.2714516866  W2        1910            0.0000000000
      5731      1911  TIP3      OH2           -22.0727484125       12.1644700614        4.8737983134  W2        1911            0.0000000000
      5732      1911  TIP3      H1            -22.1220684125       11.2092800614        4.8365583134  W2        1911            0.0000000000
      5733      1911  TIP3      H2            -22.8995184125       12.4320000614        5.2751783134  W2        1911            0.0000000000
      5734      1912  TIP3      OH2           -31.0943484125       11.7383900614        3.7499383134  W2        1912            0.0000000000
      5735      1912  TIP3      H1            -31.0068884125       12.5648500614        4.2248483134  W2        1912            0.0000000000
      5736      1912  TIP3      H2            -31.9578384125       11.4087700614        3.9988683134  W2        1912            0.0000000000
      5737      1913  TIP3      OH2           -30.6797684125       15.5107600614       -6.4440016866  W2        1913            0.0000000000
      5738      1913  TIP3      H1            -30.7551684125       15.3894800614       -7.3904816866  W2        1913            0.0000000000
      5739      1913  TIP3      H2            -30.6468984125       16.4600300614       -6.3255416866  W2        1913            0.0000000000
      5740      1914  TIP3      OH2           -37.0263884125       14.2994600614       -4.6631016866  W2        1914            0.0000000000
      5741      1914  TIP3      H1            -36.8743484125       13.9515000614       -3.7844516866  W2        1914            0.0000000000
      5742      1914  TIP3      H2            -37.8773484125       13.9431900614       -4.9183816866  W2        1914            0.0000000000
      5743      1915  TIP3      OH2           -27.5781684125       14.6647800614       -9.4417616866  W2        1915            0.0000000000
      5744      1915  TIP3      H1            -27.2033284125       13.9203900614       -9.9125016866  W2        1915            0.0000000000
      5745      1915  TIP3      H2            -27.5737984125       14.3948400614       -8.5234316866  W2        1915            0.0000000000
      5746      1916  TIP3      OH2           -27.9093584125       14.5904900614       -6.6925416866  W2        1916            0.0000000000
      5747      1916  TIP3      H1            -28.8443784125       14.6906800614       -6.5138416866  W2        1916            0.0000000000
      5748      1916  TIP3      H2            -27.6291684125       13.8810900614       -6.1142216866  W2        1916            0.0000000000
      5749      1917  TIP3      OH2           -24.9207684125        3.6577200614        5.3540183134  W2        1917            0.0000000000
      5750      1917  TIP3      H1            -25.3280884125        4.1382800614        4.6333483134  W2        1917            0.0000000000
      5751      1917  TIP3      H2            -24.8801984125        2.7523200614        5.0460983134  W2        1917            0.0000000000
      5752      1918  TIP3      OH2           -37.7718184125       10.0416600614        3.3506883134  W2        1918            0.0000000000
      5753      1918  TIP3      H1            -37.5556884125        9.6802200614        4.2102683134  W2        1918            0.0000000000
      5754      1918  TIP3      H2            -38.6273484125        9.6670400614        3.1410383134  W2        1918            0.0000000000
      5755      1919  TIP3      OH2           -35.1530184125       -1.4882899386       -0.6538916866  W2        1919            0.0000000000
      5756      1919  TIP3      H1            -36.0146484125       -1.5754699386       -1.0616016866  W2        1919            0.0000000000
      5757      1919  TIP3      H2            -35.1754484125       -0.6322799386       -0.2261316866  W2        1919            0.0000000000
      5758      1920  TIP3      OH2           -30.4902384125       -1.7662499386        2.7208083134  W2        1920            0.0000000000
      5759      1920  TIP3      H1            -30.0699284125       -2.1815399386        3.4738683134  W2        1920            0.0000000000
      5760      1920  TIP3      H2            -31.4232784125       -1.9449199386        2.8380083134  W2        1920            0.0000000000
      5761      1921  TIP3      OH2           -27.1637484125        1.9892700614        3.5742583134  W2        1921            0.0000000000
      5762      1921  TIP3      H1            -27.6777984125        1.8634900614        4.3718583134  W2        1921            0.0000000000
      5763      1921  TIP3      H2            -27.3192784125        2.9015800614        3.3298783134  W2        1921            0.0000000000
      5764      1922  TIP3      OH2           -26.4012584125        6.8502700614      -10.6644416866  W2        1922            0.0000000000
      5765      1922  TIP3      H1            -26.3591784125        6.6276600614      -11.5944416866  W2        1922            0.0000000000
      5766      1922  TIP3      H2            -25.5520484125        7.2489800614      -10.4744516866  W2        1922            0.0000000000
      5767      1923  TIP3      OH2           -30.8285084125        0.7260900614       -9.9941116866  W2        1923            0.0000000000
      5768      1923  TIP3      H1            -31.0820284125        0.7452500614       -9.0713016866  W2        1923            0.0000000000
      5769      1923  TIP3      H2            -31.0852984125       -0.1453699386      -10.2954916866  W2        1923            0.0000000000
      5770      1924  TIP3      OH2           -35.0620084125        3.4771600614        0.4411283134  W2        1924            0.0000000000
      5771      1924  TIP3      H1            -35.7037984125        3.4368900614        1.1501383134  W2        1924            0.0000000000
      5772      1924  TIP3      H2            -35.0248084125        4.4036300614        0.2034283134  W2        1924            0.0000000000
      5773      1925  TIP3      OH2           -35.0650984125        3.6981700614       -4.6468716866  W2        1925            0.0000000000
      5774      1925  TIP3      H1            -35.9578084125        3.3577800614       -4.7054916866  W2        1925            0.0000000000
      5775      1925  TIP3      H2            -34.6144384125        3.3212600614       -5.4025516866  W2        1925            0.0000000000
      5776      1926  TIP3      OH2           -29.5295484125        4.1142000614       -5.8297916866  W2        1926            0.0000000000
      5777      1926  TIP3      H1            -29.9385184125        4.9290600614       -6.1213116866  W2        1926            0.0000000000
      5778      1926  TIP3      H2            -28.8089284125        3.9742100614       -6.4440816866  W2        1926            0.0000000000
      5779      1927  TIP3      OH2           -30.4273884125        4.2898400614        5.6582783134  W2        1927            0.0000000000
      5780      1927  TIP3      H1            -30.9900084125        3.5850000614        5.9790583134  W2        1927            0.0000000000
      5781      1927  TIP3      H2            -29.6010484125        4.1690300614        6.1260383134  W2        1927            0.0000000000
      5782      1928  TIP3      OH2           -28.5247784125        3.5602400614       -3.0158216866  W2        1928            0.0000000000
      5783      1928  TIP3      H1            -28.7203284125        4.1659200614       -3.7307616866  W2        1928            0.0000000000
      5784      1928  TIP3      H2            -28.3435184125        2.7267600614       -3.4501916866  W2        1928            0.0000000000
      5785      1929  TIP3      OH2           -37.3119584125        3.7975100614        2.3083283134  W2        1929            0.0000000000
      5786      1929  TIP3      H1            -37.3500184125        4.1976700614        3.1770383134  W2        1929            0.0000000000
      5787      1929  TIP3      H2            -37.8028484125        2.9807500614        2.3986183134  W2        1929            0.0000000000
      5788      1930  TIP3      OH2           -33.9462184125        1.1717400614      -10.8930716866  W2        1930            0.0000000000
      5789      1930  TIP3      H1            -34.3771484125        0.7267500614      -10.1633316866  W2        1930            0.0000000000
      5790      1930  TIP3      H2            -34.6643484125        1.5433700614      -11.4053216866  W2        1930            0.0000000000
      5791      1931  TIP3      OH2           -40.7038784125        0.9136900614       -3.8412016866  W2        1931            0.0000000000
      5792      1931  TIP3      H1            -40.0731084125        0.8849000614       -3.1218116866  W2        1931            0.0000000000
      5793      1931  TIP3      H2            -40.2544484125        0.4885600614       -4.5716116866  W2        1931            0.0000000000
      5794      1932  TIP3      OH2           -39.4296684125        1.6598900614       -8.4171616866  W2        1932            0.0000000000
      5795      1932  TIP3      H1            -38.9554984125        2.2508800614       -9.0020716866  W2        1932            0.0000000000
      5796      1932  TIP3      H2            -40.1470284125        2.1901800614       -8.0701516866  W2        1932            0.0000000000
      5797      1933  TIP3      OH2           -29.2608584125        5.1983700614        1.6554183134  W2        1933            0.0000000000
      5798      1933  TIP3      H1            -28.9373784125        4.5673400614        1.0124683134  W2        1933            0.0000000000
      5799      1933  TIP3      H2            -29.7009284125        4.6635900614        2.3161583134  W2        1933            0.0000000000
      5800      1934  TIP3      OH2           -32.4835684125        1.1259200614       -3.5604616866  W2        1934            0.0000000000
      5801      1934  TIP3      H1            -33.3944584125        1.1826000614       -3.2718616866  W2        1934            0.0000000000
      5802      1934  TIP3      H2            -31.9782784125        1.0654700614       -2.7497416866  W2        1934            0.0000000000
      5803      1935  TIP3      OH2           -37.6552284125        2.7545500614       -4.7337016866  W2        1935            0.0000000000
      5804      1935  TIP3      H1            -38.5444284125        2.8541000614       -5.0737416866  W2        1935            0.0000000000
      5805      1935  TIP3      H2            -37.3587384125        1.9128500614       -5.0799116866  W2        1935            0.0000000000
      5806      1936  TIP3      OH2           -34.0020484125        2.7548100614       -7.0772416866  W2        1936            0.0000000000
      5807      1936  TIP3      H1            -33.0704984125        2.8838100614       -6.8989316866  W2        1936            0.0000000000
      5808      1936  TIP3      H2            -34.2170184125        3.4242400614       -7.7267716866  W2        1936            0.0000000000
      5809      1937  TIP3      OH2           -28.0783784125        0.3605500614       -0.2962816866  W2        1937            0.0000000000
      5810      1937  TIP3      H1            -28.7552184125        0.4918600614        0.3676883134  W2        1937            0.0000000000
      5811      1937  TIP3      H2            -28.5638884125        0.2055000614       -1.1065116866  W2        1937            0.0000000000
      5812      1938  TIP3      OH2           -35.3280284125        3.9490300614       -9.5106316866  W2        1938            0.0000000000
      5813      1938  TIP3      H1            -35.8705184125        3.5694100614      -10.2018716866  W2        1938            0.0000000000
      5814      1938  TIP3      H2            -34.4945384125        4.1435000614       -9.9392216866  W2        1938            0.0000000000
      5815      1939  TIP3      OH2           -24.7908684125       16.0320900614        5.9804783134  W2        1939            0.0000000000
      5816      1939  TIP3      H1            -24.5909984125       16.4562800614        5.1460083134  W2        1939            0.0000000000
      5817      1939  TIP3      H2            -24.1354984125       16.3759100614        6.5875183134  W2        1939            0.0000000000
      5818      1940  TIP3      OH2           -37.1928884125        8.5062200614        5.5885283134  W2        1940            0.0000000000
      5819      1940  TIP3      H1            -36.4606484125        8.7608100614        6.1499783134  W2        1940            0.0000000000
      5820      1940  TIP3      H2            -37.9730184125        8.7107600614        6.1040683134  W2        1940            0.0000000000
      5821      1941  TIP3      OH2           -31.1635984125        3.9132200614       -1.6735016866  W2        1941            0.0000000000
      5822      1941  TIP3      H1            -30.5992584125        3.3668800614       -2.2205416866  W2        1941            0.0000000000
      5823      1941  TIP3      H2            -31.3112584125        3.3914100614       -0.8847416866  W2        1941            0.0000000000
      5824      1942  TIP3      OH2           -36.1616284125        0.0498300614       -5.2550216866  W2        1942            0.0000000000
      5825      1942  TIP3      H1            -36.4786784125       -0.8526399386       -5.2904816866  W2        1942            0.0000000000
      5826      1942  TIP3      H2            -35.3802184125        0.0515700614       -5.8078616866  W2        1942            0.0000000000
      5827      1943  TIP3      OH2           -32.5370084125        2.3018300614        0.7405383134  W2        1943            0.0000000000
      5828      1943  TIP3      H1            -33.3724784125        2.7557800614        0.8507783134  W2        1943            0.0000000000
      5829      1943  TIP3      H2            -32.0129484125        2.5776800614        1.4925283134  W2        1943            0.0000000000
      5830      1944  TIP3      OH2           -31.9927484125        8.5146000614       -7.5748216866  W2        1944            0.0000000000
      5831      1944  TIP3      H1            -32.7376484125        8.0071300614       -7.8970316866  W2        1944            0.0000000000
      5832      1944  TIP3      H2            -32.1270284125        8.5634000614       -6.6283416866  W2        1944            0.0000000000
      5833      1945  TIP3      OH2           -24.8428584125        7.6474200614        1.2119383134  W2        1945            0.0000000000
      5834      1945  TIP3      H1            -24.2009784125        8.1040500614        0.6681583134  W2        1945            0.0000000000
      5835      1945  TIP3      H2            -25.6731684125        7.7606600614        0.7493483134  W2        1945            0.0000000000
      5836      1946  TIP3      OH2           -28.0950684125        1.3285900614       -9.3755616866  W2        1946            0.0000000000
      5837      1946  TIP3      H1            -29.0336484125        1.4401500614       -9.5266816866  W2        1946            0.0000000000
      5838      1946  TIP3      H2            -27.7978584125        2.1852800614       -9.0689916866  W2        1946            0.0000000000
      5839      1947  TIP3      OH2           -30.4735384125        8.6989300614        3.6620883134  W2        1947            0.0000000000
      5840      1947  TIP3      H1            -30.8189284125        8.3171700614        4.4690483134  W2        1947            0.0000000000
      5841      1947  TIP3      H2            -30.6735284125        9.6322900614        3.7333783134  W2        1947            0.0000000000
      5842      1948  TIP3      OH2           -27.3767184125        3.1958600614       -7.7148216866  W2        1948            0.0000000000
      5843      1948  TIP3      H1            -26.4848184125        3.0583600614       -7.3957016866  W2        1948            0.0000000000
      5844      1948  TIP3      H2            -27.3203584125        3.9864700614       -8.2514716866  W2        1948            0.0000000000
      5845      1949  TIP3      OH2           -36.8679184125        7.8096000614       -1.8050316866  W2        1949            0.0000000000
      5846      1949  TIP3      H1            -36.1231984125        7.8071700614       -2.4063816866  W2        1949            0.0000000000
      5847      1949  TIP3      H2            -36.7902584125        6.9859800614       -1.3235216866  W2        1949            0.0000000000
      5848      1950  TIP3      OH2           -29.8673384125        9.9730300614       -8.5493616866  W2        1950            0.0000000000
      5849      1950  TIP3      H1            -30.1624984125       10.7998200614       -8.1678816866  W2        1950            0.0000000000
      5850      1950  TIP3      H2            -30.5703384125        9.3537200614       -8.3532216866  W2        1950            0.0000000000
      5851      1951  TIP3      OH2           -39.8599484125        6.2702900614        3.5098183134  W2        1951            0.0000000000
      5852      1951  TIP3      H1            -39.6370884125        5.8522500614        4.3415683134  W2        1951            0.0000000000
      5853      1951  TIP3      H2            -40.4619384125        5.6577900614        3.0870983134  W2        1951            0.0000000000
      5854      1952  TIP3      OH2           -32.8434584125        5.7872800614        5.7227883134  W2        1952            0.0000000000
      5855      1952  TIP3      H1            -33.1393784125        5.6215800614        4.8276983134  W2        1952            0.0000000000
      5856      1952  TIP3      H2            -31.9119384125        5.5673100614        5.7121783134  W2        1952            0.0000000000
      5857      1953  TIP3      OH2           -28.2231784125       11.1604800614        3.6125883134  W2        1953            0.0000000000
      5858      1953  TIP3      H1            -29.1237484125       11.3437400614        3.3449783134  W2        1953            0.0000000000
      5859      1953  TIP3      H2            -28.1890684125       11.4194100614        4.5334683134  W2        1953            0.0000000000
      5860      1954  TIP3      OH2           -22.4918484125        3.4052700614       -8.0201516866  W2        1954            0.0000000000
      5861      1954  TIP3      H1            -23.0462184125        3.0090700614       -8.6924016866  W2        1954            0.0000000000
      5862      1954  TIP3      H2            -22.3914884125        4.3157900614       -8.2978216866  W2        1954            0.0000000000
      5863      1955  TIP3      OH2           -22.5286484125        9.2054400614        4.8169983134  W2        1955            0.0000000000
      5864      1955  TIP3      H1            -23.3797984125        9.4438200614        4.4496383134  W2        1955            0.0000000000
      5865      1955  TIP3      H2            -21.9383084125        9.1887600614        4.0637083134  W2        1955            0.0000000000
      5866      1956  TIP3      OH2           -24.1966784125       12.1913100614       -7.5549416866  W2        1956            0.0000000000
      5867      1956  TIP3      H1            -24.5695684125       11.3656900614       -7.2458816866  W2        1956            0.0000000000
      5868      1956  TIP3      H2            -23.9193284125       12.0082500614       -8.4526016866  W2        1956            0.0000000000
      5869      1957  TIP3      OH2           -27.0362884125        6.9992600614       -0.5337516866  W2        1957            0.0000000000
      5870      1957  TIP3      H1            -27.9645984125        6.7674500614       -0.5608216866  W2        1957            0.0000000000
      5871      1957  TIP3      H2            -26.5851784125        6.2222400614       -0.8638716866  W2        1957            0.0000000000
      5872      1958  TIP3      OH2           -34.4929784125       11.3274200614       -4.4008816866  W2        1958            0.0000000000
      5873      1958  TIP3      H1            -33.9657584125       12.1008600614       -4.6010016866  W2        1958            0.0000000000
      5874      1958  TIP3      H2            -35.3731284125       11.5523400614       -4.7024816866  W2        1958            0.0000000000
      5875      1959  TIP3      OH2           -38.7382084125        6.1898300614       -9.8136416866  W2        1959            0.0000000000
      5876      1959  TIP3      H1            -38.1222184125        6.8165500614       -9.4341616866  W2        1959            0.0000000000
      5877      1959  TIP3      H2            -39.5999484125        6.5058100614       -9.5419916866  W2        1959            0.0000000000
      5878      1960  TIP3      OH2           -33.0657484125        8.9904100614       -4.8244516866  W2        1960            0.0000000000
      5879      1960  TIP3      H1            -33.3067484125        9.9158500614       -4.7829216866  W2        1960            0.0000000000
      5880      1960  TIP3      H2            -33.8063884125        8.5315400614       -4.4280616866  W2        1960            0.0000000000
      5881      1961  TIP3      OH2           -32.5510884125       13.1397700614        1.4906583134  W2        1961            0.0000000000
      5882      1961  TIP3      H1            -32.1886184125       13.9943300614        1.2570983134  W2        1961            0.0000000000
      5883      1961  TIP3      H2            -32.0195684125       12.8479300614        2.2312883134  W2        1961            0.0000000000
      5884      1962  TIP3      OH2           -34.3826684125       14.0121700614       -5.2792316866  W2        1962            0.0000000000
      5885      1962  TIP3      H1            -35.3326184125       14.1179100614       -5.2279016866  W2        1962            0.0000000000
      5886      1962  TIP3      H2            -34.0308584125       14.8329100614       -4.9344816866  W2        1962            0.0000000000
      5887      1963  TIP3      OH2           -29.0070084125        9.2388400614        1.1912183134  W2        1963            0.0000000000
      5888      1963  TIP3      H1            -29.4328784125        9.0110100614        2.0176183134  W2        1963            0.0000000000
      5889      1963  TIP3      H2            -28.4264284125        8.5000200614        1.0087483134  W2        1963            0.0000000000
      5890      1964  TIP3      OH2           -26.8041184125       10.1678900614       -9.7348816866  W2        1964            0.0000000000
      5891      1964  TIP3      H1            -26.4508084125        9.7878700614       -8.9305316866  W2        1964            0.0000000000
      5892      1964  TIP3      H2            -27.7527684125       10.0743700614       -9.6479516866  W2        1964            0.0000000000
      5893      1965  TIP3      OH2           -26.3485884125       13.7907900614        3.6606983134  W2        1965            0.0000000000
      5894      1965  TIP3      H1            -26.9502684125       13.2350800614        3.1653283134  W2        1965            0.0000000000
      5895      1965  TIP3      H2            -26.0672184125       14.4577700614        3.0344383134  W2        1965            0.0000000000
      5896      1966  TIP3      OH2           -22.3006784125       14.6471400614       -9.5338616866  W2        1966            0.0000000000
      5897      1966  TIP3      H1            -21.5568884125       15.2331900614       -9.6737016866  W2        1966            0.0000000000
      5898      1966  TIP3      H2            -22.9948684125       15.2157200614       -9.2006216866  W2        1966            0.0000000000
      5899      1967  TIP3      OH2           -38.2259984125        1.0235600614        3.0679583134  W2        1967            0.0000000000
      5900      1967  TIP3      H1            -39.1187684125        1.3621000614        3.0003583134  W2        1967            0.0000000000
      5901      1967  TIP3      H2            -38.3247184125        0.1681700614        3.4860383134  W2        1967            0.0000000000
      5902      1968  TIP3      OH2           -25.9381884125        8.8400900614       -7.5080916866  W2        1968            0.0000000000
      5903      1968  TIP3      H1            -26.2154284125        8.1120200614       -6.9519816866  W2        1968            0.0000000000
      5904      1968  TIP3      H2            -25.0108884125        8.9592900614       -7.3028316866  W2        1968            0.0000000000
      5905      1969  TIP3      OH2           -38.5747984125       12.8280000614        1.5028983134  W2        1969            0.0000000000
      5906      1969  TIP3      H1            -38.3577684125       11.8962400614        1.4718683134  W2        1969            0.0000000000
      5907      1969  TIP3      H2            -38.3284484125       13.1025000614        2.3861783134  W2        1969            0.0000000000
      5908      1970  TIP3      OH2           -32.7133384125       11.2795000614      -11.2878816866  W2        1970            0.0000000000
      5909      1970  TIP3      H1            -32.4743584125       10.5313100614      -11.8349916866  W2        1970            0.0000000000
      5910      1970  TIP3      H2            -32.9822084125       10.8916700614      -10.4551016866  W2        1970            0.0000000000
      5911      1971  TIP3      OH2           -33.7762784125       10.8498800614       -8.8316216866  W2        1971            0.0000000000
      5912      1971  TIP3      H1            -33.6294784125       10.3298600614       -8.0415316866  W2        1971            0.0000000000
      5913      1971  TIP3      H2            -33.7791084125       11.7566400614       -8.5250316866  W2        1971            0.0000000000
      5914      1972  TIP3      OH2           -37.3231684125        8.1022100614       -8.3210816866  W2        1972            0.0000000000
      5915      1972  TIP3      H1            -38.0092384125        8.4544600614       -7.7541116866  W2        1972            0.0000000000
      5916      1972  TIP3      H2            -36.8003784125        8.8651700614       -8.5676516866  W2        1972            0.0000000000
      5917      1973  TIP3      OH2           -29.4916584125        0.7645900614        1.9578183134  W2        1973            0.0000000000
      5918      1973  TIP3      H1            -28.7928684125        0.8384600614        2.6077883134  W2        1973            0.0000000000
      5919      1973  TIP3      H2            -29.8725184125       -0.0999099386        2.1121083134  W2        1973            0.0000000000
      5920      1974  TIP3      OH2           -28.7071684125        0.4167600614       -6.9449516866  W2        1974            0.0000000000
      5921      1974  TIP3      H1            -28.4873384125        0.8883000614       -7.7484116866  W2        1974            0.0000000000
      5922      1974  TIP3      H2            -28.1487684125        0.8110200614       -6.2748916866  W2        1974            0.0000000000
      5923      1975  TIP3      OH2           -31.0385584125       12.5472400614       -8.0822016866  W2        1975            0.0000000000
      5924      1975  TIP3      H1            -31.8549484125       13.0442100614       -8.0297716866  W2        1975            0.0000000000
      5925      1975  TIP3      H2            -30.5089284125       13.0225900614       -8.7223216866  W2        1975            0.0000000000
      5926      1976  TIP3      OH2           -31.5071784125        2.1446400614       -6.1101116866  W2        1976            0.0000000000
      5927      1976  TIP3      H1            -30.6949184125        2.6489600614       -6.0639416866  W2        1976            0.0000000000
      5928      1976  TIP3      H2            -31.7518784125        1.9996100614       -5.1961516866  W2        1976            0.0000000000
      5929      1977  TIP3      OH2           -30.9715384125        3.1309100614        3.0745483134  W2        1977            0.0000000000
      5930      1977  TIP3      H1            -30.8525084125        3.7044500614        3.8315883134  W2        1977            0.0000000000
      5931      1977  TIP3      H2            -30.3160784125        2.4428500614        3.1893283134  W2        1977            0.0000000000
      5932      1978  TIP3      OH2           -30.6235084125       -0.7740599386       -5.1720016866  W2        1978            0.0000000000
      5933      1978  TIP3      H1            -30.9701584125       -0.1569999386       -4.5275716866  W2        1978            0.0000000000
      5934      1978  TIP3      H2            -29.9648184125       -0.2734899386       -5.6534516866  W2        1978            0.0000000000
      5935      1979  TIP3      OH2           -33.7002484125       13.5909600614       -8.1005116866  W2        1979            0.0000000000
      5936      1979  TIP3      H1            -33.5393784125       14.3907100614       -8.6012516866  W2        1979            0.0000000000
      5937      1979  TIP3      H2            -33.8974684125       13.8975600614       -7.2154516866  W2        1979            0.0000000000
      5938      1980  TIP3      OH2           -34.9658084125        0.2888800614       -8.4847516866  W2        1980            0.0000000000
      5939      1980  TIP3      H1            -35.0493284125        1.1771900614       -8.1381116866  W2        1980            0.0000000000
      5940      1980  TIP3      H2            -34.0757784125        0.0235500614       -8.2530716866  W2        1980            0.0000000000
      5941      1981  TIP3      OH2           -24.7669584125        1.0379400614        3.9095183134  W2        1981            0.0000000000
      5942      1981  TIP3      H1            -25.6833784125        1.3001100614        3.8218883134  W2        1981            0.0000000000
      5943      1981  TIP3      H2            -24.4314584125        1.0348400614        3.0130483134  W2        1981            0.0000000000
      5944      1982  TIP3      OH2           -26.1648584125        4.7880400614       -1.9947516866  W2        1982            0.0000000000
      5945      1982  TIP3      H1            -26.9624184125        4.3730600614       -2.3232516866  W2        1982            0.0000000000
      5946      1982  TIP3      H2            -25.7197484125        4.0974100614       -1.5037016866  W2        1982            0.0000000000
      5947      1983  TIP3      OH2           -36.7072784125       10.7161000614       -9.4243016866  W2        1983            0.0000000000
      5948      1983  TIP3      H1            -36.1151284125       11.4155800614       -9.1480616866  W2        1983            0.0000000000
      5949      1983  TIP3      H2            -36.2479784125       10.2830500614      -10.1438416866  W2        1983            0.0000000000
      5950      1984  TIP3      OH2           -38.3913584125        3.3804000614      -10.3083616866  W2        1984            0.0000000000
      5951      1984  TIP3      H1            -38.4360984125        4.3197100614      -10.1296616866  W2        1984            0.0000000000
      5952      1984  TIP3      H2            -39.2790384125        3.1448900614      -10.5781516866  W2        1984            0.0000000000
      5953      1985  TIP3      OH2           -25.0783984125       14.0442900614       -0.3724016866  W2        1985            0.0000000000
      5954      1985  TIP3      H1            -25.2339684125       14.7227300614       -1.0294716866  W2        1985            0.0000000000
      5955      1985  TIP3      H2            -24.1457584125       14.1162200614       -0.1693416866  W2        1985            0.0000000000
      5956      1986  TIP3      OH2           -37.5831584125       -1.8379399386       -1.6352616866  W2        1986            0.0000000000
      5957      1986  TIP3      H1            -37.8121784125       -1.7786899386       -2.5627616866  W2        1986            0.0000000000
      5958      1986  TIP3      H2            -38.0258184125       -2.6293899386       -1.3288516866  W2        1986            0.0000000000
      5959      1987  TIP3      OH2           -38.6528284125       12.1027700614       -5.4746816866  W2        1987            0.0000000000
      5960      1987  TIP3      H1            -39.4849684125       12.5750400614       -5.4475416866  W2        1987            0.0000000000
      5961      1987  TIP3      H2            -38.1069984125       12.6125300614       -6.0733716866  W2        1987            0.0000000000
      5962      1988  TIP3      OH2           -39.3644584125       14.7151400614        5.8551183134  W2        1988            0.0000000000
      5963      1988  TIP3      H1            -38.8242384125       14.4985400614        6.6150383134  W2        1988            0.0000000000
      5964      1988  TIP3      H2            -39.8456584125       13.9097400614        5.6653683134  W2        1988            0.0000000000
      5965      1989  TIP3      OH2           -34.7671184125       13.6345800614        7.4755383134  W2        1989            0.0000000000
      5966      1989  TIP3      H1            -33.9993984125       13.1756600614        7.8164583134  W2        1989            0.0000000000
      5967      1989  TIP3      H2            -34.7884984125       13.4085600614        6.5456583134  W2        1989            0.0000000000
      5968      1990  TIP3      OH2           -30.6751584125       13.1426400614      -11.1492816866  W2        1990            0.0000000000
      5969      1990  TIP3      H1            -31.3190584125       12.5115000614      -10.8279116866  W2        1990            0.0000000000
      5970      1990  TIP3      H2            -29.9133284125       12.6114400614      -11.3809316866  W2        1990            0.0000000000
      5971      1991  TIP3      OH2           -28.1902484125       12.0146900614        6.2046883134  W2        1991            0.0000000000
      5972      1991  TIP3      H1            -28.5412984125       11.1579900614        6.4477283134  W2        1991            0.0000000000
      5973      1991  TIP3      H2            -27.4639284125       12.1573600614        6.8115883134  W2        1991            0.0000000000
      5974      1992  TIP3      OH2           -26.0708684125       12.9596300614      -10.9154816866  W2        1992            0.0000000000
      5975      1992  TIP3      H1            -25.7878284125       12.1651500614      -10.4627916866  W2        1992            0.0000000000
      5976      1992  TIP3      H2            -25.3310784125       13.1927300614      -11.4763716866  W2        1992            0.0000000000
      5977      1993  TIP3      OH2           -39.4575084125        8.5255500614        6.8095483134  W2        1993            0.0000000000
      5978      1993  TIP3      H1            -39.3134584125        7.6236200614        6.5232183134  W2        1993            0.0000000000
      5979      1993  TIP3      H2            -40.2297684125        8.8117600614        6.3217783134  W2        1993            0.0000000000
      5980      1994  TIP3      OH2           -35.1161384125        8.8691200614      -11.0579916866  W2        1994            0.0000000000
      5981      1994  TIP3      H1            -35.0517284125        8.0750800614      -10.5273516866  W2        1994            0.0000000000
      5982      1994  TIP3      H2            -34.4632184125        8.7504000614      -11.7477916866  W2        1994            0.0000000000
      5983      1995  TIP3      OH2           -32.8018984125        8.4953600614        6.2421883134  W2        1995            0.0000000000
      5984      1995  TIP3      H1            -33.1305184125        8.7661700614        5.3849283134  W2        1995            0.0000000000
      5985      1995  TIP3      H2            -32.6500784125        7.5543400614        6.1546883134  W2        1995            0.0000000000
      5986      1996  TIP3      OH2           -29.7637984125        9.9162900614      -11.3221916866  W2        1996            0.0000000000
      5987      1996  TIP3      H1            -30.0323884125       10.0965000614      -10.4213016866  W2        1996            0.0000000000
      5988      1996  TIP3      H2            -29.9702384125        8.9909100614      -11.4536116866  W2        1996            0.0000000000
      5989      1997  TIP3      OH2           -27.0673784125        8.4110900614        3.6254183134  W2        1997            0.0000000000
      5990      1997  TIP3      H1            -26.3218984125        8.9994600614        3.5058183134  W2        1997            0.0000000000
      5991      1997  TIP3      H2            -27.8246984125        8.9930600614        3.6887283134  W2        1997            0.0000000000
      5992      1998  TIP3      OH2           -38.6248584125        5.7258800614        6.2294783134  W2        1998            0.0000000000
      5993      1998  TIP3      H1            -38.2167384125        4.8685400614        6.1085383134  W2        1998            0.0000000000
      5994      1998  TIP3      H2            -38.8850984125        5.7400100614        7.1505083134  W2        1998            0.0000000000
      5995      1999  TIP3      OH2           -33.9667584125        6.8417400614       -8.7521916866  W2        1999            0.0000000000
      5996      1999  TIP3      H1            -34.4265584125        6.3575700614       -8.0663416866  W2        1999            0.0000000000
      5997      1999  TIP3      H2            -33.7118884125        6.1732800614       -9.3881416866  W2        1999            0.0000000000
      5998      2000  TIP3      OH2           -34.6778284125        4.7344500614        3.6037683134  W2        2000            0.0000000000
      5999      2000  TIP3      H1            -35.2962184125        5.4091100614        3.8842383134  W2        2000            0.0000000000
      6000      2000  TIP3      H2            -34.3337084125        5.0558400614        2.7703883134  W2        2000            0.0000000000
      6001      2001  TIP3      OH2           -32.8957184125        5.0849200614      -10.4898716866  W2        2001            0.0000000000
      6002      2001  TIP3      H1            -33.0762184125        4.9300400614      -11.4170416866  W2        2001            0.0000000000
      6003      2001  TIP3      H2            -31.9456684125        5.1927900614      -10.4450816866  W2        2001            0.0000000000
      6004      2002  TIP3      OH2           -29.6580084125        7.2059800614        6.8812483134  W2        2002            0.0000000000
      6005      2002  TIP3      H1            -28.7048884125        7.2898900614        6.8538483134  W2        2002            0.0000000000
      6006      2002  TIP3      H2            -29.8185484125        6.4941600614        7.5007383134  W2        2002            0.0000000000
      6007      2003  TIP3      OH2           -23.5058884125        7.4393400614      -11.0440616866  W2        2003            0.0000000000
      6008      2003  TIP3      H1            -23.7794084125        7.0148900614      -11.8572316866  W2        2003            0.0000000000
      6009      2003  TIP3      H2            -23.4664784125        8.3707900614      -11.2610216866  W2        2003            0.0000000000
      6010      2004  TIP3      OH2           -34.3384584125        2.0895300614        4.6860783134  W2        2004            0.0000000000
      6011      2004  TIP3      H1            -34.1883684125        1.3606600614        4.0840483134  W2        2004            0.0000000000
      6012      2004  TIP3      H2            -34.3362184125        2.8667000614        4.1272983134  W2        2004            0.0000000000
      6013      2005  TIP3      OH2           -33.9258884125        0.4591100614        2.1788183134  W2        2005            0.0000000000
      6014      2005  TIP3      H1            -33.3901384125        0.9107800614        1.5267483134  W2        2005            0.0000000000
      6015      2005  TIP3      H2            -34.7779284125        0.3510900614        1.7562283134  W2        2005            0.0000000000
      6016      2006  TIP3      OH2           -32.3440484125        5.8987300614        2.4183383134  W2        2006            0.0000000000
      6017      2006  TIP3      H1            -31.5935684125        5.7424800614        1.8451183134  W2        2006            0.0000000000
      6018      2006  TIP3      H2            -32.6832184125        6.7503900614        2.1428883134  W2        2006            0.0000000000
      6019      2007  TIP3      OH2           -27.9284284125        3.7139100614        7.4468683134  W2        2007            0.0000000000
      6020      2007  TIP3      H1            -27.7362984125        2.7828500614        7.3353183134  W2        2007            0.0000000000
      6021      2007  TIP3      H2            -27.0707984125        4.1388600614        7.4364083134  W2        2007            0.0000000000
      6022      2008  TIP3      OH2           -26.6117084125        6.5024300614        5.5241383134  W2        2008            0.0000000000
      6023      2008  TIP3      H1            -26.8932084125        7.2118900614        4.9465183134  W2        2008            0.0000000000
      6024      2008  TIP3      H2            -25.6692784125        6.4297300614        5.3732583134  W2        2008            0.0000000000
      6025      2009  TIP3      OH2           -35.8598284125        3.2878800614        6.5976383134  W2        2009            0.0000000000
      6026      2009  TIP3      H1            -36.6269284125        2.7553600614        6.3873983134  W2        2009            0.0000000000
      6027      2009  TIP3      H2            -35.1809284125        2.9779200614        5.9982683134  W2        2009            0.0000000000
      6028      2010  TIP3      OH2           -33.1203384125       -2.0843199386        2.6101783134  W2        2010            0.0000000000
      6029      2010  TIP3      H1            -33.2183784125       -1.1379999386        2.5047983134  W2        2010            0.0000000000
      6030      2010  TIP3      H2            -33.8627184125       -2.4569399386        2.1345283134  W2        2010            0.0000000000
      6031      2011  TIP3      OH2           -31.8562884125        2.2372200614        6.1740183134  W2        2011            0.0000000000
      6032      2011  TIP3      H1            -32.0917484125        2.0178900614        7.0755083134  W2        2011            0.0000000000
      6033      2011  TIP3      H2            -32.6395984125        2.0303400614        5.6642683134  W2        2011            0.0000000000
      6034      2012  TIP3      OH2           -29.1406284125        1.3645700614        5.2493683134  W2        2012            0.0000000000
      6035      2012  TIP3      H1            -30.0880884125        1.3965400614        5.3816983134  W2        2012            0.0000000000
      6036      2012  TIP3      H2            -28.8279584125        0.7392800614        5.9031883134  W2        2012            0.0000000000
      6037      2013  TIP3      OH2           -27.5064784125       -0.0013199386        7.2545583134  W2        2013            0.0000000000
      6038      2013  TIP3      H1            -27.6032984125       -0.9535899386        7.2487483134  W2        2013            0.0000000000
      6039      2013  TIP3      H2            -27.8281684125        0.2673600614        8.1151083134  W2        2013            0.0000000000
      6040      2014  TIP3      OH2           -37.6795484125        1.2082600614        6.3021083134  W2        2014            0.0000000000
      6041      2014  TIP3      H1            -37.4678084125        0.5018700614        5.6918583134  W2        2014            0.0000000000
      6042      2014  TIP3      H2            -37.7907984125        0.7708600614        7.1462283134  W2        2014            0.0000000000
      6043      2015  TIP3      OH2           -32.8985284125       -2.7905799386        5.2814583134  W2        2015            0.0000000000
      6044      2015  TIP3      H1            -32.1866884125       -3.4303599386        5.2673683134  W2        2015            0.0000000000
      6045      2015  TIP3      H2            -32.9994884125       -2.5237499386        4.3677683134  W2        2015            0.0000000000
      6046      2016  TIP3      OH2           -32.5447784125       -1.1077399386        7.3350883134  W2        2016            0.0000000000
      6047      2016  TIP3      H1            -32.6765584125       -1.5833599386        6.5149383134  W2        2016            0.0000000000
      6048      2016  TIP3      H2            -33.1440384125       -0.3633799386        7.2797983134  W2        2016            0.0000000000
      6049      2017  TIP3      OH2           -32.9985484125       15.7752900614       -9.4885116866  W2        2017            0.0000000000
      6050      2017  TIP3      H1            -32.0654784125       15.9331600614       -9.3446716866  W2        2017            0.0000000000
      6051      2017  TIP3      H2            -33.2626684125       16.4505900614      -10.1133616866  W2        2017            0.0000000000
      6052      2018  TIP3      OH2           -39.4300584125       10.4116700614      -10.0057016866  W2        2018            0.0000000000
      6053      2018  TIP3      H1            -38.5161384125       10.4905600614       -9.7323116866  W2        2018            0.0000000000
      6054      2018  TIP3      H2            -39.4227484125        9.7246300614      -10.6721416866  W2        2018            0.0000000000
      6055      2019  TIP3      OH2           -40.7809984125       15.8045200614       -4.9283116866  W2        2019            0.0000000000
      6056      2019  TIP3      H1            -41.4282884125       15.3426900614       -5.4611916866  W2        2019            0.0000000000
      6057      2019  TIP3      H2            -40.4265384125       15.1328500614       -4.3456916866  W2        2019            0.0000000000
      6058      2020  TIP3      OH2           -39.9110784125       13.8852200614       -3.1236916866  W2        2020            0.0000000000
      6059      2020  TIP3      H1            -40.2453984125       13.0049500614       -2.9516716866  W2        2020            0.0000000000
      6060      2020  TIP3      H2            -39.6888384125       14.2307200614       -2.2591316866  W2        2020            0.0000000000
      6061      2021  TIP3      OH2           -22.3625984125       14.6948600614       -0.1432116866  W2        2021            0.0000000000
      6062      2021  TIP3      H1            -22.3839284125       14.8797000614        0.7957283134  W2        2021            0.0000000000
      6063      2021  TIP3      H2            -21.6719784125       15.2632600614       -0.4840716866  W2        2021            0.0000000000
      6064      2022  TIP3      OH2           -22.7993084125       14.2619700614        2.7786983134  W2        2022            0.0000000000
      6065      2022  TIP3      H1            -23.2864384125       13.5263800614        2.4074383134  W2        2022            0.0000000000
      6066      2022  TIP3      H2            -22.2500384125       13.8683600614        3.4566383134  W2        2022            0.0000000000
      6067      2023  TIP3      OH2           -24.3485784125       10.0517800614        7.4167283134  W2        2023            0.0000000000
      6068      2023  TIP3      H1            -25.2144684125        9.9467500614        7.8109583134  W2        2023            0.0000000000
      6069      2023  TIP3      H2            -23.9719884125       10.8101100614        7.8631983134  W2        2023            0.0000000000
      6070      2024  TIP3      OH2           -23.0476084125        8.3081500614       -7.0690216866  W2        2024            0.0000000000
      6071      2024  TIP3      H1            -22.1974684125        8.7292400614       -6.9418616866  W2        2024            0.0000000000
      6072      2024  TIP3      H2            -23.0420984125        7.5681600614       -6.4618816866  W2        2024            0.0000000000
      6073      2025  TIP3      OH2           -22.6530484125        6.3618900614       -5.2454516866  W2        2025            0.0000000000
      6074      2025  TIP3      H1            -23.3795884125        5.8821500614       -4.8476916866  W2        2025            0.0000000000
      6075      2025  TIP3      H2            -22.0717184125        6.5673600614       -4.5132916866  W2        2025            0.0000000000
      6076      2026  TIP3      OH2           -22.8939284125        9.1466400614       -0.2976916866  W2        2026            0.0000000000
      6077      2026  TIP3      H1            -22.0605084125        8.7686400614       -0.5783316866  W2        2026            0.0000000000
      6078      2026  TIP3      H2            -22.7818984125       10.0897600614       -0.4167816866  W2        2026            0.0000000000
      6079      2027  TIP3      OH2           -24.4076984125       12.0243900614        2.0091483134  W2        2027            0.0000000000
      6080      2027  TIP3      H1            -25.0551684125       12.3495400614        2.6346683134  W2        2027            0.0000000000
      6081      2027  TIP3      H2            -24.9252984125       11.5841600614        1.3349783134  W2        2027            0.0000000000
      6082      2028  TIP3      OH2           -22.3847384125        6.2627400614       -8.8543216866  W2        2028            0.0000000000
      6083      2028  TIP3      H1            -22.9066284125        6.6191500614       -9.5732316866  W2        2028            0.0000000000
      6084      2028  TIP3      H2            -22.4178184125        6.9375200614       -8.1762316866  W2        2028            0.0000000000
      6085      2029  TIP3      OH2           -24.0358384125        3.5023000614      -10.3036116866  W2        2029            0.0000000000
      6086      2029  TIP3      H1            -23.9393984125        4.1690000614      -10.9836416866  W2        2029            0.0000000000
      6087      2029  TIP3      H2            -24.1758784125        2.6869300614      -10.7850616866  W2        2029            0.0000000000
      6088      2030  TIP3      OH2           -24.8663684125        4.8825400614       -4.6825816866  W2        2030            0.0000000000
      6089      2030  TIP3      H1            -25.0164884125        3.9374000614       -4.7028016866  W2        2030            0.0000000000
      6090      2030  TIP3      H2            -25.2199184125        5.1636800614       -3.8386716866  W2        2030            0.0000000000
      6091      2031  TIP3      OH2           -39.8311284125        6.9607600614       -0.6722016866  W2        2031            0.0000000000
      6092      2031  TIP3      H1            -39.6468384125        6.8789300614       -1.6079116866  W2        2031            0.0000000000
      6093      2031  TIP3      H2            -38.9818384125        6.8364600614       -0.2485616866  W2        2031            0.0000000000
      6094      2032  TIP3      OH2           -24.0100784125        6.8528700614        4.9562483134  W2        2032            0.0000000000
      6095      2032  TIP3      H1            -23.4273484125        6.1181000614        5.1479683134  W2        2032            0.0000000000
      6096      2032  TIP3      H2            -23.4461484125        7.6249000614        5.0028283134  W2        2032            0.0000000000
      6097      2033  TIP3      OH2           -22.5133684125        4.7554500614        5.6407883134  W2        2033            0.0000000000
      6098      2033  TIP3      H1            -23.3766984125        4.3766600614        5.4752583134  W2        2033            0.0000000000
      6099      2033  TIP3      H2            -21.9089984125        4.0169300614        5.5663683134  W2        2033            0.0000000000
      6100      2034  TIP3      OH2           -24.7884584125        0.9102800614      -11.1860616866  W2        2034            0.0000000000
      6101      2034  TIP3      H1            -24.1778784125        0.5389600614      -10.5492416866  W2        2034            0.0000000000
      6102      2034  TIP3      H2            -25.6253084125        0.4889700614      -10.9900616866  W2        2034            0.0000000000
      6103      2035  TIP3      OH2           -25.1558884125        2.4651200614       -6.2200716866  W2        2035            0.0000000000
      6104      2035  TIP3      H1            -24.8761784125        1.5581600614       -6.0959016866  W2        2035            0.0000000000
      6105      2035  TIP3      H2            -24.3967184125        2.8992700614       -6.6091516866  W2        2035            0.0000000000
      6106      2036  TIP3      OH2           -24.5440584125        3.0468600614       -0.7841816866  W2        2036            0.0000000000
      6107      2036  TIP3      H1            -23.6112584125        3.2588500614       -0.8185816866  W2        2036            0.0000000000
      6108      2036  TIP3      H2            -24.7793084125        3.1480700614        0.1381183134  W2        2036            0.0000000000
      6109      2037  TIP3      OH2           -24.5148684125        3.7833900614        1.9917583134  W2        2037            0.0000000000
      6110      2037  TIP3      H1            -25.3577384125        4.0514300614        2.3577383134  W2        2037            0.0000000000
      6111      2037  TIP3      H2            -24.0724384125        4.6055800614        1.7808683134  W2        2037            0.0000000000
      6112      2038  TIP3      OH2           -40.2336484125        2.2312600614        5.4686783134  W2        2038            0.0000000000
      6113      2038  TIP3      H1            -39.3141584125        2.1090900614        5.7049883134  W2        2038            0.0000000000
      6114      2038  TIP3      H2            -40.6831984125        1.4812300614        5.8580283134  W2        2038            0.0000000000
      6115      2039  TIP3      OH2           -22.2317084125       -2.2365899386        7.3452583134  W2        2039            0.0000000000
      6116      2039  TIP3      H1            -21.8820084125       -2.8902399386        6.7397283134  W2        2039            0.0000000000
      6117      2039  TIP3      H2            -22.0847584125       -1.3991799386        6.9055183134  W2        2039            0.0000000000
      6118      2040  TIP3      OH2           -24.5424084125       -0.2719499386       -6.1718716866  W2        2040            0.0000000000
      6119      2040  TIP3      H1            -24.3599084125       -0.7207999386       -5.3463716866  W2        2040            0.0000000000
      6120      2040  TIP3      H2            -25.1421184125       -0.8565099386       -6.6354116866  W2        2040            0.0000000000
      6121      2041  TIP3      OH2           -39.0123984125        0.5434200614       -1.6400316866  W2        2041            0.0000000000
      6122      2041  TIP3      H1            -38.5672384125       -0.2483299386       -1.3380616866  W2        2041            0.0000000000
      6123      2041  TIP3      H2            -38.5460984125        1.2599400614       -1.2094716866  W2        2041            0.0000000000
      6124      2042  TIP3      OH2           -40.7083684125        3.5427200614       -0.5710116866  W2        2042            0.0000000000
      6125      2042  TIP3      H1            -40.2163884125        3.3217700614       -1.3618116866  W2        2042            0.0000000000
      6126      2042  TIP3      H2            -40.3462784125        4.3830600614       -0.2900616866  W2        2042            0.0000000000
      6127      2043  TIP3      OH2           -22.7119884125       -0.1271299386        5.6943883134  W2        2043            0.0000000000
      6128      2043  TIP3      H1            -23.6294184125        0.1435800614        5.6587383134  W2        2043            0.0000000000
      6129      2043  TIP3      H2            -22.5890484125       -0.6622899386        4.9103583134  W2        2043            0.0000000000
      6130      2044  TIP3      OH2           -22.6757884125       -0.2041399386       -9.6438416866  W2        2044            0.0000000000
      6131      2044  TIP3      H1            -22.2635284125       -0.9255699386      -10.1190416866  W2        2044            0.0000000000
      6132      2044  TIP3      H2            -21.9941384125        0.4653200614       -9.5854116866  W2        2044            0.0000000000
      6133      2045  TIP3      OH2           -40.3947184125       -0.1993699386       -6.5167716866  W2        2045            0.0000000000
      6134      2045  TIP3      H1            -41.3198784125        0.0092900614       -6.6462216866  W2        2045            0.0000000000
      6135      2045  TIP3      H2            -39.9407284125        0.2847100614       -7.2065416866  W2        2045            0.0000000000
      6136      2046  TIP3      OH2           -25.6239984125       14.7848000614       -4.5710316866  W2        2046            0.0000000000
      6137      2046  TIP3      H1            -24.9717084125       14.4370100614       -5.1791216866  W2        2046            0.0000000000
      6138      2046  TIP3      H2            -25.1136184125       15.2731200614       -3.9250616866  W2        2046            0.0000000000
      6139      2047  TIP3      OH2           -40.4311784125       -1.4614699386        1.8274783134  W2        2047            0.0000000000
      6140      2047  TIP3      H1            -41.0961284125       -1.7074399386        2.4705683134  W2        2047            0.0000000000
      6141      2047  TIP3      H2            -40.8740484125       -0.8394299386        1.2502783134  W2        2047            0.0000000000
      6142      2048  TIP3      OH2           -38.2392484125       11.7139400614        5.9720583134  W2        2048            0.0000000000
      6143      2048  TIP3      H1            -39.0599984125       11.8885900614        5.5115283134  W2        2048            0.0000000000
      6144      2048  TIP3      H2            -38.4914684125       11.6404100614        6.8924983134  W2        2048            0.0000000000
      6145      2049  TIP3      OH2           -35.2849584125       12.6880600614        2.2304583134  W2        2049            0.0000000000
      6146      2049  TIP3      H1            -35.7098484125       13.4979100614        1.9479183134  W2        2049            0.0000000000
      6147      2049  TIP3      H2            -34.3806784125       12.7734700614        1.9284383134  W2        2049            0.0000000000
      6148      2050  TIP3      OH2           -30.9738184125       14.0870600614        5.1898283134  W2        2050            0.0000000000
      6149      2050  TIP3      H1            -30.7890684125       13.7536700614        6.0678583134  W2        2050            0.0000000000
      6150      2050  TIP3      H2            -30.1273684125       14.3969200614        4.8677483134  W2        2050            0.0000000000
      6151      2051  TIP3      OH2           -28.6287784125       15.3729500614        4.4339683134  W2        2051            0.0000000000
      6152      2051  TIP3      H1            -27.9518884125       14.7401800614        4.1938883134  W2        2051            0.0000000000
      6153      2051  TIP3      H2            -28.3068984125       15.7740000614        5.2412983134  W2        2051            0.0000000000
      6154      2052  TIP3      OH2           -23.7113984125       -2.0374999386        3.5134683134  W2        2052            0.0000000000
      6155      2052  TIP3      H1            -24.5240484125       -1.7124699386        3.1259383134  W2        2052            0.0000000000
      6156      2052  TIP3      H2            -23.4785484125       -2.7976499386        2.9803783134  W2        2052            0.0000000000
      6157      2053  TIP3      OH2           -37.8832884125       15.9444500614        2.2779883134  W2        2053            0.0000000000
      6158      2053  TIP3      H1            -38.6036484125       16.3845500614        1.8267583134  W2        2053            0.0000000000
      6159      2053  TIP3      H2            -38.2488884125       15.6939200614        3.1263883134  W2        2053            0.0000000000
      6160      2054  TIP3      OH2           -35.4160284125       15.5448400614        1.3077083134  W2        2054            0.0000000000
      6161      2054  TIP3      H1            -36.2808084125       15.6166900614        1.7117183134  W2        2054            0.0000000000
      6162      2054  TIP3      H2            -35.4711284125       16.0915700614        0.5239583134  W2        2054            0.0000000000
      6163      2055  TIP3      OH2           -30.7054684125       15.4327300614        0.4833083134  W2        2055            0.0000000000
      6164      2055  TIP3      H1            -31.1620684125       15.9617000614       -0.1708516866  W2        2055            0.0000000000
      6165      2055  TIP3      H2            -30.5426684125       16.0358700614        1.2085383134  W2        2055            0.0000000000
      6166      2056  TIP3      OH2           -28.3778384125       14.3106900614        1.4283383134  W2        2056            0.0000000000
      6167      2056  TIP3      H1            -29.2824684125       14.4757100614        1.1625483134  W2        2056            0.0000000000
      6168      2056  TIP3      H2            -27.9489784125       15.1639100614        1.3626783134  W2        2056            0.0000000000
      6169      2057  TIP3      OH2           -25.7736484125       15.8806000614        1.7231183134  W2        2057            0.0000000000
      6170      2057  TIP3      H1            -25.9554484125       16.7964900614        1.5126083134  W2        2057            0.0000000000
      6171      2057  TIP3      H2            -25.5968684125       15.4703100614        0.8765783134  W2        2057            0.0000000000
      6172      2058  TIP3      OH2           -38.4684784125       14.5677000614       -0.8118316866  W2        2058            0.0000000000
      6173      2058  TIP3      H1            -38.4868784125       14.1422100614        0.0453983134  W2        2058            0.0000000000
      6174      2058  TIP3      H2            -37.6636884125       14.2492000614       -1.2206116866  W2        2058            0.0000000000
      6175      2059  TIP3      OH2           -36.3271684125       13.2775700614       -2.1568416866  W2        2059            0.0000000000
      6176      2059  TIP3      H1            -36.5460984125       12.3613100614       -1.9872416866  W2        2059            0.0000000000
      6177      2059  TIP3      H2            -35.5029484125       13.4176100614       -1.6907016866  W2        2059            0.0000000000
      6178      2060  TIP3      OH2           -33.7899184125       13.7475000614       -1.3080416866  W2        2060            0.0000000000
      6179      2060  TIP3      H1            -33.5773484125       12.8594000614       -1.5949516866  W2        2060            0.0000000000
      6180      2060  TIP3      H2            -33.7254084125       13.7132700614       -0.3536416866  W2        2060            0.0000000000
      6181      2061  TIP3      OH2           -30.2815484125       -0.5884399386       -2.1637116866  W2        2061            0.0000000000
      6182      2061  TIP3      H1            -30.9558684125       -1.2178799386       -1.9081316866  W2        2061            0.0000000000
      6183      2061  TIP3      H2            -29.7176284125       -1.0725499386       -2.7669216866  W2        2061            0.0000000000
      6184      2062  TIP3      OH2           -25.1388284125       -2.4810399386       -2.0510016866  W2        2062            0.0000000000
      6185      2062  TIP3      H1            -24.5350684125       -1.9334999386       -2.5529016866  W2        2062            0.0000000000
      6186      2062  TIP3      H2            -26.0086284125       -2.1619999386       -2.2915916866  W2        2062            0.0000000000
      6187      2063  TIP3      OH2           -23.4117884125       -1.3421699386       -3.7179116866  W2        2063            0.0000000000
      6188      2063  TIP3      H1            -22.8000384125       -1.8565999386       -4.2445516866  W2        2063            0.0000000000
      6189      2063  TIP3      H2            -23.0294484125       -0.4649599386       -3.6944716866  W2        2063            0.0000000000
      6190      2064  TIP3      OH2           -37.9547984125       -1.9544099386       -4.3417216866  W2        2064            0.0000000000
      6191      2064  TIP3      H1            -38.7318184125       -2.1889199386       -4.8491316866  W2        2064            0.0000000000
      6192      2064  TIP3      H2            -37.4244384125       -2.7511999386       -4.3329216866  W2        2064            0.0000000000
      6193      2065  TIP3      OH2           -39.1184584125       -2.1565999386       -8.5381116866  W2        2065            0.0000000000
      6194      2065  TIP3      H1            -38.6793884125       -1.5455499386       -9.1297616866  W2        2065            0.0000000000
      6195      2065  TIP3      H2            -39.7522184125       -1.6181899386       -8.0641116866  W2        2065            0.0000000000
      6196      2066  TIP3      OH2           -33.3755384125       -2.0276999386       -4.5284116866  W2        2066            0.0000000000
      6197      2066  TIP3      H1            -32.5011984125       -1.6392699386       -4.5579816866  W2        2066            0.0000000000
      6198      2066  TIP3      H2            -33.5114584125       -2.2429199386       -3.6056916866  W2        2066            0.0000000000
      6199      2067  TIP3      OH2           -27.8186984125       -1.9977199386       -2.8792416866  W2        2067            0.0000000000
      6200      2067  TIP3      H1            -27.7425384125       -1.9025599386       -3.8286416866  W2        2067            0.0000000000
      6201      2067  TIP3      H2            -28.0937784125       -2.9054299386       -2.7503316866  W2        2067            0.0000000000
      6202      2068  TIP3      OH2           -26.4654384125       -1.9719399386       -7.1867416866  W2        2068            0.0000000000
      6203      2068  TIP3      H1            -27.1683284125       -1.3570199386       -7.3966016866  W2        2068            0.0000000000
      6204      2068  TIP3      H2            -26.9102984125       -2.8092699386       -7.0556516866  W2        2068            0.0000000000
      6205      2069  TIP3      OH2           -39.2175084125       13.7916200614       -7.6406016866  W2        2069            0.0000000000
      6206      2069  TIP3      H1            -39.9025184125       13.7535100614       -8.3080916866  W2        2069            0.0000000000
      6207      2069  TIP3      H2            -39.2137884125       14.7043800614       -7.3523916866  W2        2069            0.0000000000
      6208      2070  TIP3      OH2           -37.2575484125       -0.2404499386      -10.0957016866  W2        2070            0.0000000000
      6209      2070  TIP3      H1            -36.7662084125       -0.8702099386      -10.6231516866  W2        2070            0.0000000000
      6210      2070  TIP3      H2            -36.6339184125        0.0554900614       -9.4325816866  W2        2070            0.0000000000
      6211      2071  TIP3      OH2           -32.2315384125        0.0527000614       -7.6386516866  W2        2071            0.0000000000
      6212      2071  TIP3      H1            -32.0534084125       -0.5939799386       -6.9557916866  W2        2071            0.0000000000
      6213      2071  TIP3      H2            -32.2849184125        0.8864700614       -7.1715416866  W2        2071            0.0000000000
      6214      2072  TIP3      OH2           -30.3531584125       15.0011100614       -9.2429816866  W2        2072            0.0000000000
      6215      2072  TIP3      H1            -29.4871384125       15.3678500614       -9.4211616866  W2        2072            0.0000000000
      6216      2072  TIP3      H2            -30.5998784125       14.5619100614      -10.0569016866  W2        2072            0.0000000000
      6217      2073  TIP3      OH2           -23.6441984125       14.5641400614       -6.5638716866  W2        2073            0.0000000000
      6218      2073  TIP3      H1            -23.8384884125       13.8163500614       -7.1289116866  W2        2073            0.0000000000
      6219      2073  TIP3      H2            -23.6831884125       15.3221500614       -7.1470816866  W2        2073            0.0000000000
      6220      2074  TIP3      OH2           -37.9969984125       -1.4402199386        5.1758983134  W2        2074            0.0000000000
      6221      2074  TIP3      H1            -38.3631784125       -2.2059599386        5.6183683134  W2        2074            0.0000000000
      6222      2074  TIP3      H2            -37.0841484125       -1.4111999386        5.4624083134  W2        2074            0.0000000000
      6223      2075  TIP3      OH2           -36.0239184125       -2.0897799386        6.7116083134  W2        2075            0.0000000000
      6224      2075  TIP3      H1            -35.1255584125       -2.3637599386        6.5269483134  W2        2075            0.0000000000
      6225      2075  TIP3      H2            -36.4106084125       -2.8321799386        7.1758683134  W2        2075            0.0000000000
      6226      2076  TIP3      OH2           -37.3993884125       14.7117000614      -10.6153916866  W2        2076            0.0000000000
      6227      2076  TIP3      H1            -37.6669284125       14.9979900614       -9.7420816866  W2        2076            0.0000000000
      6228      2076  TIP3      H2            -36.6281284125       14.1656200614      -10.4631416866  W2        2076            0.0000000000
      6229      2077  TIP3      OH2           -27.6026884125       -2.7572499386        6.8938883134  W2        2077            0.0000000000
      6230      2077  TIP3      H1            -27.5259684125       -3.1831799386        7.7476583134  W2        2077            0.0000000000
      6231      2077  TIP3      H2            -26.7090284125       -2.7437799386        6.5512383134  W2        2077            0.0000000000
      6232      2078  TIP3      OH2           -24.4265784125       13.3153800614        5.5863083134  W2        2078            0.0000000000
      6233      2078  TIP3      H1            -25.2083884125       13.1291800614        5.0663683134  W2        2078            0.0000000000
      6234      2078  TIP3      H2            -24.4985884125       14.2448100614        5.8035583134  W2        2078            0.0000000000
      6235      2079  TIP3      OH2           -10.0205384125        7.2018200614       -4.3829716866  W2        2079            0.0000000000
      6236      2079  TIP3      H1             -9.9314284125        8.1456400614       -4.5152616866  W2        2079            0.0000000000
      6237      2079  TIP3      H2            -10.6587784125        6.9264600614       -5.0410316866  W2        2079            0.0000000000
      6238      2080  TIP3      OH2           -11.0874084125        6.4568900614       -0.9641516866  W2        2080            0.0000000000
      6239      2080  TIP3      H1            -11.1256584125        5.8105200614       -0.2591916866  W2        2080            0.0000000000
      6240      2080  TIP3      H2            -11.4097584125        5.9903300614       -1.7352816866  W2        2080            0.0000000000
      6241      2081  TIP3      OH2           -18.7189084125        6.0711000614        0.6288383134  W2        2081            0.0000000000
      6242      2081  TIP3      H1            -18.6776984125        5.4454300614        1.3520783134  W2        2081            0.0000000000
      6243      2081  TIP3      H2            -18.0161384125        6.6949600614        0.8108783134  W2        2081            0.0000000000
      6244      2082  TIP3      OH2            -7.3813884125        9.3959300614       -2.6626416866  W2        2082            0.0000000000
      6245      2082  TIP3      H1             -7.8221184125        8.6755300614       -2.2120816866  W2        2082            0.0000000000
      6246      2082  TIP3      H2             -7.3944184125       10.1166500614       -2.0328716866  W2        2082            0.0000000000
      6247      2083  TIP3      OH2           -17.7955984125       10.5209900614       -0.8362516866  W2        2083            0.0000000000
      6248      2083  TIP3      H1            -18.1650784125        9.7190400614       -1.2058216866  W2        2083            0.0000000000
      6249      2083  TIP3      H2            -16.8544884125       10.3524800614       -0.7899116866  W2        2083            0.0000000000
      6250      2084  TIP3      OH2           -21.1855484125        4.1812500614       -5.4433716866  W2        2084            0.0000000000
      6251      2084  TIP3      H1            -21.6332084125        5.0271200614       -5.4617216866  W2        2084            0.0000000000
      6252      2084  TIP3      H2            -21.7464284125        3.6016700614       -5.9588616866  W2        2084            0.0000000000
      6253      2085  TIP3      OH2           -20.4749384125        6.3432100614       -3.3175716866  W2        2085            0.0000000000
      6254      2085  TIP3      H1            -20.2615884125        5.5733700614       -2.7902716866  W2        2085            0.0000000000
      6255      2085  TIP3      H2            -19.7371784125        6.4328800614       -3.9208116866  W2        2085            0.0000000000
      6256      2086  TIP3      OH2           -10.2698384125       14.5001000614       -2.4506016866  W2        2086            0.0000000000
      6257      2086  TIP3      H1             -9.6501984125       13.8235700614       -2.7236816866  W2        2086            0.0000000000
      6258      2086  TIP3      H2            -10.4780984125       14.2821800614       -1.5421116866  W2        2086            0.0000000000
      6259      2087  TIP3      OH2           -12.6979684125        8.8890300614       -0.5580516866  W2        2087            0.0000000000
      6260      2087  TIP3      H1            -12.3941784125        8.2031700614       -1.1526416866  W2        2087            0.0000000000
      6261      2087  TIP3      H2            -11.9765684125        9.0079000614        0.0597483134  W2        2087            0.0000000000
      6262      2088  TIP3      OH2            -4.0349884125        0.4905600614        0.3025683134  W2        2088            0.0000000000
      6263      2088  TIP3      H1             -3.9857684125        1.1006800614        1.0384783134  W2        2088            0.0000000000
      6264      2088  TIP3      H2             -3.6094784125        0.9516500614       -0.4203216866  W2        2088            0.0000000000
      6265      2089  TIP3      OH2            -9.5572684125        3.2832700614       -0.2305716866  W2        2089            0.0000000000
      6266      2089  TIP3      H1             -9.4146784125        2.3369700614       -0.2104116866  W2        2089            0.0000000000
      6267      2089  TIP3      H2             -9.6633684125        3.4902500614       -1.1590816866  W2        2089            0.0000000000
      6268      2090  TIP3      OH2           -16.4024384125        1.3849100614       -2.9580916866  W2        2090            0.0000000000
      6269      2090  TIP3      H1            -16.3593284125        2.2447600614       -3.3764616866  W2        2090            0.0000000000
      6270      2090  TIP3      H2            -16.8600284125        0.8323800614       -3.5917716866  W2        2090            0.0000000000
      6271      2091  TIP3      OH2            -8.6801684125        1.5154700614       -4.5572616866  W2        2091            0.0000000000
      6272      2091  TIP3      H1             -8.0337384125        1.1867900614       -3.9325016866  W2        2091            0.0000000000
      6273      2091  TIP3      H2             -8.1702284125        2.0333700614       -5.1801216866  W2        2091            0.0000000000
      6274      2092  TIP3      OH2           -19.7822884125        3.7814900614       -2.1959516866  W2        2092            0.0000000000
      6275      2092  TIP3      H1            -19.1286284125        3.2316600614       -1.7639416866  W2        2092            0.0000000000
      6276      2092  TIP3      H2            -19.7583584125        3.5073900614       -3.1127516866  W2        2092            0.0000000000
      6277      2093  TIP3      OH2           -14.6258384125        5.3316200614       -2.9808016866  W2        2093            0.0000000000
      6278      2093  TIP3      H1            -14.0097384125        4.8051600614       -2.4714016866  W2        2093            0.0000000000
      6279      2093  TIP3      H2            -15.2119584125        4.6914900614       -3.3844416866  W2        2093            0.0000000000
      6280      2094  TIP3      OH2            -3.6435284125        1.9684800614        2.5385483134  W2        2094            0.0000000000
      6281      2094  TIP3      H1             -4.3320684125        2.6265500614        2.4432083134  W2        2094            0.0000000000
      6282      2094  TIP3      H2             -3.6280684125        1.7712700614        3.4750883134  W2        2094            0.0000000000
      6283      2095  TIP3      OH2           -17.5922484125        0.3027500614        1.1159883134  W2        2095            0.0000000000
      6284      2095  TIP3      H1            -17.8110784125        0.8328100614        0.3495883134  W2        2095            0.0000000000
      6285      2095  TIP3      H2            -18.2601584125        0.5293000614        1.7631283134  W2        2095            0.0000000000
      6286      2096  TIP3      OH2           -10.2232684125        9.8028600614       -5.3401016866  W2        2096            0.0000000000
      6287      2096  TIP3      H1            -10.5187584125        9.4800900614       -6.1914116866  W2        2096            0.0000000000
      6288      2096  TIP3      H2            -10.5474884125       10.7025300614       -5.2988416866  W2        2096            0.0000000000
      6289      2097  TIP3      OH2           -15.0231084125        7.9783200614        1.4033583134  W2        2097            0.0000000000
      6290      2097  TIP3      H1            -15.7631984125        8.5764700614        1.5068783134  W2        2097            0.0000000000
      6291      2097  TIP3      H2            -14.3091584125        8.5322800614        1.0877183134  W2        2097            0.0000000000
      6292      2098  TIP3      OH2            -6.9163284125        0.8064000614       -2.5766716866  W2        2098            0.0000000000
      6293      2098  TIP3      H1             -7.1315284125        0.0407400614       -2.0440716866  W2        2098            0.0000000000
      6294      2098  TIP3      H2             -6.2605884125        1.2788600614       -2.0638216866  W2        2098            0.0000000000
      6295      2099  TIP3      OH2           -17.9985184125        2.1949300614       -0.9317916866  W2        2099            0.0000000000
      6296      2099  TIP3      H1            -17.3848884125        2.8276900614       -0.5585516866  W2        2099            0.0000000000
      6297      2099  TIP3      H2            -17.4864484125        1.7224300614       -1.5881016866  W2        2099            0.0000000000
      6298      2100  TIP3      OH2           -16.6156784125        9.9426200614        2.1905083134  W2        2100            0.0000000000
      6299      2100  TIP3      H1            -16.6209184125       10.8219700614        1.8124383134  W2        2100            0.0000000000
      6300      2100  TIP3      H2            -17.4692684125        9.8590300614        2.6154983134  W2        2100            0.0000000000
      6301      2101  TIP3      OH2           -20.4945884125        9.6134100614       -7.0275616866  W2        2101            0.0000000000
      6302      2101  TIP3      H1            -20.7664984125        9.8425100614       -7.9162716866  W2        2101            0.0000000000
      6303      2101  TIP3      H2            -20.4490184125       10.4512900614       -6.5670316866  W2        2101            0.0000000000
      6304      2102  TIP3      OH2            -6.8696184125       11.2350000614       -0.3147116866  W2        2102            0.0000000000
      6305      2102  TIP3      H1             -7.8112484125       11.2933900614       -0.1530216866  W2        2102            0.0000000000
      6306      2102  TIP3      H2             -6.5930084125       12.1410500614       -0.4517416866  W2        2102            0.0000000000
      6307      2103  TIP3      OH2            -6.5689184125       -0.4784699386        1.1026783134  W2        2103            0.0000000000
      6308      2103  TIP3      H1             -7.3049984125        0.1322400614        1.0648083134  W2        2103            0.0000000000
      6309      2103  TIP3      H2             -5.8855184125       -0.0635699386        0.5763183134  W2        2103            0.0000000000
      6310      2104  TIP3      OH2           -13.5657784125       -2.3917399386       -1.4315216866  W2        2104            0.0000000000
      6311      2104  TIP3      H1            -13.6833584125       -3.3401399386       -1.4856916866  W2        2104            0.0000000000
      6312      2104  TIP3      H2            -14.4207684125       -2.0591299386       -1.1584116866  W2        2104            0.0000000000
      6313      2105  TIP3      OH2            -8.6174984125       13.0163500614       -3.6895516866  W2        2105            0.0000000000
      6314      2105  TIP3      H1             -8.1922684125       12.3091400614       -4.1745916866  W2        2105            0.0000000000
      6315      2105  TIP3      H2             -8.3004984125       13.8176200614       -4.1063316866  W2        2105            0.0000000000
      6316      2106  TIP3      OH2            -7.4578484125       10.9172000614       -5.1808916866  W2        2106            0.0000000000
      6317      2106  TIP3      H1             -7.7153684125       10.2272100614       -5.7923016866  W2        2106            0.0000000000
      6318      2106  TIP3      H2             -7.3867684125       10.4743200614       -4.3353016866  W2        2106            0.0000000000
      6319      2107  TIP3      OH2            -5.7718284125        9.4838700614        3.2964583134  W2        2107            0.0000000000
      6320      2107  TIP3      H1             -5.6321984125        8.8921200614        2.5571583134  W2        2107            0.0000000000
      6321      2107  TIP3      H2             -5.6045484125       10.3564600614        2.9403383134  W2        2107            0.0000000000
      6322      2108  TIP3      OH2           -11.2992884125        6.4458200614       -6.9309416866  W2        2108            0.0000000000
      6323      2108  TIP3      H1            -12.0107384125        6.9807900614       -7.2828916866  W2        2108            0.0000000000
      6324      2108  TIP3      H2            -10.6083284125        6.5010300614       -7.5910516866  W2        2108            0.0000000000
      6325      2109  TIP3      OH2           -11.2453684125        4.9032500614       -9.8924416866  W2        2109            0.0000000000
      6326      2109  TIP3      H1            -10.5443784125        4.9259400614       -9.2410416866  W2        2109            0.0000000000
      6327      2109  TIP3      H2            -10.9430784125        4.2752200614      -10.5485116866  W2        2109            0.0000000000
      6328      2110  TIP3      OH2            -3.9298984125        5.8236700614        1.3624983134  W2        2110            0.0000000000
      6329      2110  TIP3      H1             -4.5824884125        6.5182300614        1.4515883134  W2        2110            0.0000000000
      6330      2110  TIP3      H2             -3.4648684125        6.0337600614        0.5526583134  W2        2110            0.0000000000
      6331      2111  TIP3      OH2            -7.8935184125        6.6551500614       -5.9793516866  W2        2111            0.0000000000
      6332      2111  TIP3      H1             -8.6254184125        6.8835200614       -5.4062916866  W2        2111            0.0000000000
      6333      2111  TIP3      H2             -7.4462984125        5.9414200614       -5.5246016866  W2        2111            0.0000000000
      6334      2112  TIP3      OH2            -7.9961684125        4.8294100614        3.0883483134  W2        2112            0.0000000000
      6335      2112  TIP3      H1             -7.9162584125        5.5928500614        3.6601983134  W2        2112            0.0000000000
      6336      2112  TIP3      H2             -8.5973984125        5.1086500614        2.3978583134  W2        2112            0.0000000000
      6337      2113  TIP3      OH2           -16.2481484125        7.2857700614       -4.0968516866  W2        2113            0.0000000000
      6338      2113  TIP3      H1            -16.5786284125        6.9151100614       -4.9151516866  W2        2113            0.0000000000
      6339      2113  TIP3      H2            -15.6597384125        6.6151700614       -3.7500216866  W2        2113            0.0000000000
      6340      2114  TIP3      OH2           -14.8813984125       10.7138300614       -1.4156316866  W2        2114            0.0000000000
      6341      2114  TIP3      H1            -14.9762684125       10.1351400614       -2.1721716866  W2        2114            0.0000000000
      6342      2114  TIP3      H2            -14.1520384125       10.3424000614       -0.9193516866  W2        2114            0.0000000000
      6343      2115  TIP3      OH2           -15.8815984125        6.0543300614       -0.4633516866  W2        2115            0.0000000000
      6344      2115  TIP3      H1            -15.3163484125        6.1757500614       -1.2262316866  W2        2115            0.0000000000
      6345      2115  TIP3      H2            -15.5627084125        6.6918300614        0.1754983134  W2        2115            0.0000000000
      6346      2116  TIP3      OH2            -9.5723784125       11.5575200614        0.2706983134  W2        2116            0.0000000000
      6347      2116  TIP3      H1             -9.8127184125       12.2198300614        0.9186183134  W2        2116            0.0000000000
      6348      2116  TIP3      H2             -9.7705584125       10.7230400614        0.6956583134  W2        2116            0.0000000000
      6349      2117  TIP3      OH2           -15.0015284125       10.4536000614        4.2538383134  W2        2117            0.0000000000
      6350      2117  TIP3      H1            -15.3127784125       11.2359200614        4.7091583134  W2        2117            0.0000000000
      6351      2117  TIP3      H2            -15.6515084125       10.3005100614        3.5680383134  W2        2117            0.0000000000
      6352      2118  TIP3      OH2            -9.0225684125        5.8174400614       -8.2942316866  W2        2118            0.0000000000
      6353      2118  TIP3      H1             -8.4430184125        5.9674700614       -7.5473416866  W2        2118            0.0000000000
      6354      2118  TIP3      H2             -8.6085684125        6.2881800614       -9.0175916866  W2        2118            0.0000000000
      6355      2119  TIP3      OH2           -18.0815384125        6.6517100614        3.4824083134  W2        2119            0.0000000000
      6356      2119  TIP3      H1            -18.0112184125        7.3023900614        4.1809083134  W2        2119            0.0000000000
      6357      2119  TIP3      H2            -18.9723184125        6.7544600614        3.1474983134  W2        2119            0.0000000000
      6358      2120  TIP3      OH2           -11.2960784125       12.5542900614       -4.8589216866  W2        2120            0.0000000000
      6359      2120  TIP3      H1            -10.8223184125       12.8499200614       -4.0815016866  W2        2120            0.0000000000
      6360      2120  TIP3      H2            -11.8591484125       13.2924500614       -5.0919616866  W2        2120            0.0000000000
      6361      2121  TIP3      OH2           -16.7619384125       12.5251000614        5.0172183134  W2        2121            0.0000000000
      6362      2121  TIP3      H1            -16.7544084125       12.3890700614        4.0697683134  W2        2121            0.0000000000
      6363      2121  TIP3      H2            -17.6778984125       12.4079100614        5.2692183134  W2        2121            0.0000000000
      6364      2122  TIP3      OH2            -5.3237284125       -2.4325199386       -8.4812616866  W2        2122            0.0000000000
      6365      2122  TIP3      H1             -6.2236584125       -2.2936199386       -8.1862016866  W2        2122            0.0000000000
      6366      2122  TIP3      H2             -5.0718884125       -1.6010599386       -8.8830916866  W2        2122            0.0000000000
      6367      2123  TIP3      OH2           -17.2578784125        6.3552000614       -6.5075716866  W2        2123            0.0000000000
      6368      2123  TIP3      H1            -17.5497484125        7.1233700614       -6.9984416866  W2        2123            0.0000000000
      6369      2123  TIP3      H2            -17.9323584125        5.6958200614       -6.6704316866  W2        2123            0.0000000000
      6370      2124  TIP3      OH2            -4.1345884125       11.9337200614      -10.1048716866  W2        2124            0.0000000000
      6371      2124  TIP3      H1             -4.0612384125       12.8727400614       -9.9343416866  W2        2124            0.0000000000
      6372      2124  TIP3      H2             -3.2290784125       11.6285800614      -10.1611416866  W2        2124            0.0000000000
      6373      2125  TIP3      OH2           -21.1648684125        8.7181200614        2.3074083134  W2        2125            0.0000000000
      6374      2125  TIP3      H1            -21.6660284125        8.6900600614        1.4923783134  W2        2125            0.0000000000
      6375      2125  TIP3      H2            -21.1594984125        7.8124400614        2.6171383134  W2        2125            0.0000000000
      6376      2126  TIP3      OH2           -21.4145984125       11.4985000614       -0.8085716866  W2        2126            0.0000000000
      6377      2126  TIP3      H1            -20.4685384125       11.3542000614       -0.8276216866  W2        2126            0.0000000000
      6378      2126  TIP3      H2            -21.5269684125       12.2827800614       -0.2714516866  W2        2126            0.0000000000
      6379      2127  TIP3      OH2            -3.2167484125       12.1644700614        4.8737983134  W2        2127            0.0000000000
      6380      2127  TIP3      H1             -3.2660684125       11.2092800614        4.8365583134  W2        2127            0.0000000000
      6381      2127  TIP3      H2             -4.0435184125       12.4320000614        5.2751783134  W2        2127            0.0000000000
      6382      2128  TIP3      OH2           -12.2383484125       11.7383900614        3.7499383134  W2        2128            0.0000000000
      6383      2128  TIP3      H1            -12.1508884125       12.5648500614        4.2248483134  W2        2128            0.0000000000
      6384      2128  TIP3      H2            -13.1018384125       11.4087700614        3.9988683134  W2        2128            0.0000000000
      6385      2129  TIP3      OH2           -11.8237684125       15.5107600614       -6.4440016866  W2        2129            0.0000000000
      6386      2129  TIP3      H1            -11.8991684125       15.3894800614       -7.3904816866  W2        2129            0.0000000000
      6387      2129  TIP3      H2            -11.7908984125       16.4600300614       -6.3255416866  W2        2129            0.0000000000
      6388      2130  TIP3      OH2           -18.1703884125       14.2994600614       -4.6631016866  W2        2130            0.0000000000
      6389      2130  TIP3      H1            -18.0183484125       13.9515000614       -3.7844516866  W2        2130            0.0000000000
      6390      2130  TIP3      H2            -19.0213484125       13.9431900614       -4.9183816866  W2        2130            0.0000000000
      6391      2131  TIP3      OH2            -8.7221684125       14.6647800614       -9.4417616866  W2        2131            0.0000000000
      6392      2131  TIP3      H1             -8.3473284125       13.9203900614       -9.9125016866  W2        2131            0.0000000000
      6393      2131  TIP3      H2             -8.7177984125       14.3948400614       -8.5234316866  W2        2131            0.0000000000
      6394      2132  TIP3      OH2            -9.0533584125       14.5904900614       -6.6925416866  W2        2132            0.0000000000
      6395      2132  TIP3      H1             -9.9883784125       14.6906800614       -6.5138416866  W2        2132            0.0000000000
      6396      2132  TIP3      H2             -8.7731684125       13.8810900614       -6.1142216866  W2        2132            0.0000000000
      6397      2133  TIP3      OH2            -6.0647684125        3.6577200614        5.3540183134  W2        2133            0.0000000000
      6398      2133  TIP3      H1             -6.4720884125        4.1382800614        4.6333483134  W2        2133            0.0000000000
      6399      2133  TIP3      H2             -6.0241984125        2.7523200614        5.0460983134  W2        2133            0.0000000000
      6400      2134  TIP3      OH2           -18.9158184125       10.0416600614        3.3506883134  W2        2134            0.0000000000
      6401      2134  TIP3      H1            -18.6996884125        9.6802200614        4.2102683134  W2        2134            0.0000000000
      6402      2134  TIP3      H2            -19.7713484125        9.6670400614        3.1410383134  W2        2134            0.0000000000
      6403      2135  TIP3      OH2           -16.2970184125       -1.4882899386       -0.6538916866  W2        2135            0.0000000000
      6404      2135  TIP3      H1            -17.1586484125       -1.5754699386       -1.0616016866  W2        2135            0.0000000000
      6405      2135  TIP3      H2            -16.3194484125       -0.6322799386       -0.2261316866  W2        2135            0.0000000000
      6406      2136  TIP3      OH2           -11.6342384125       -1.7662499386        2.7208083134  W2        2136            0.0000000000
      6407      2136  TIP3      H1            -11.2139284125       -2.1815399386        3.4738683134  W2        2136            0.0000000000
      6408      2136  TIP3      H2            -12.5672784125       -1.9449199386        2.8380083134  W2        2136            0.0000000000
      6409      2137  TIP3      OH2            -8.3077484125        1.9892700614        3.5742583134  W2        2137            0.0000000000
      6410      2137  TIP3      H1             -8.8217984125        1.8634900614        4.3718583134  W2        2137            0.0000000000
      6411      2137  TIP3      H2             -8.4632784125        2.9015800614        3.3298783134  W2        2137            0.0000000000
      6412      2138  TIP3      OH2            -7.5452584125        6.8502700614      -10.6644416866  W2        2138            0.0000000000
      6413      2138  TIP3      H1             -7.5031784125        6.6276600614      -11.5944416866  W2        2138            0.0000000000
      6414      2138  TIP3      H2             -6.6960484125        7.2489800614      -10.4744516866  W2        2138            0.0000000000
      6415      2139  TIP3      OH2           -11.9725084125        0.7260900614       -9.9941116866  W2        2139            0.0000000000
      6416      2139  TIP3      H1            -12.2260284125        0.7452500614       -9.0713016866  W2        2139            0.0000000000
      6417      2139  TIP3      H2            -12.2292984125       -0.1453699386      -10.2954916866  W2        2139            0.0000000000
      6418      2140  TIP3      OH2           -16.2060084125        3.4771600614        0.4411283134  W2        2140            0.0000000000
      6419      2140  TIP3      H1            -16.8477984125        3.4368900614        1.1501383134  W2        2140            0.0000000000
      6420      2140  TIP3      H2            -16.1688084125        4.4036300614        0.2034283134  W2        2140            0.0000000000
      6421      2141  TIP3      OH2           -16.2090984125        3.6981700614       -4.6468716866  W2        2141            0.0000000000
      6422      2141  TIP3      H1            -17.1018084125        3.3577800614       -4.7054916866  W2        2141            0.0000000000
      6423      2141  TIP3      H2            -15.7584384125        3.3212600614       -5.4025516866  W2        2141            0.0000000000
      6424      2142  TIP3      OH2           -10.6735484125        4.1142000614       -5.8297916866  W2        2142            0.0000000000
      6425      2142  TIP3      H1            -11.0825184125        4.9290600614       -6.1213116866  W2        2142            0.0000000000
      6426      2142  TIP3      H2             -9.9529284125        3.9742100614       -6.4440816866  W2        2142            0.0000000000
      6427      2143  TIP3      OH2           -11.5713884125        4.2898400614        5.6582783134  W2        2143            0.0000000000
      6428      2143  TIP3      H1            -12.1340084125        3.5850000614        5.9790583134  W2        2143            0.0000000000
      6429      2143  TIP3      H2            -10.7450484125        4.1690300614        6.1260383134  W2        2143            0.0000000000
      6430      2144  TIP3      OH2            -9.6687784125        3.5602400614       -3.0158216866  W2        2144            0.0000000000
      6431      2144  TIP3      H1             -9.8643284125        4.1659200614       -3.7307616866  W2        2144            0.0000000000
      6432      2144  TIP3      H2             -9.4875184125        2.7267600614       -3.4501916866  W2        2144            0.0000000000
      6433      2145  TIP3      OH2           -18.4559584125        3.7975100614        2.3083283134  W2        2145            0.0000000000
      6434      2145  TIP3      H1            -18.4940184125        4.1976700614        3.1770383134  W2        2145            0.0000000000
      6435      2145  TIP3      H2            -18.9468484125        2.9807500614        2.3986183134  W2        2145            0.0000000000
      6436      2146  TIP3      OH2           -15.0902184125        1.1717400614      -10.8930716866  W2        2146            0.0000000000
      6437      2146  TIP3      H1            -15.5211484125        0.7267500614      -10.1633316866  W2        2146            0.0000000000
      6438      2146  TIP3      H2            -15.8083484125        1.5433700614      -11.4053216866  W2        2146            0.0000000000
      6439      2147  TIP3      OH2           -21.8478784125        0.9136900614       -3.8412016866  W2        2147            0.0000000000
      6440      2147  TIP3      H1            -21.2171084125        0.8849000614       -3.1218116866  W2        2147            0.0000000000
      6441      2147  TIP3      H2            -21.3984484125        0.4885600614       -4.5716116866  W2        2147            0.0000000000
      6442      2148  TIP3      OH2           -20.5736684125        1.6598900614       -8.4171616866  W2        2148            0.0000000000
      6443      2148  TIP3      H1            -20.0994984125        2.2508800614       -9.0020716866  W2        2148            0.0000000000
      6444      2148  TIP3      H2            -21.2910284125        2.1901800614       -8.0701516866  W2        2148            0.0000000000
      6445      2149  TIP3      OH2           -10.4048584125        5.1983700614        1.6554183134  W2        2149            0.0000000000
      6446      2149  TIP3      H1            -10.0813784125        4.5673400614        1.0124683134  W2        2149            0.0000000000
      6447      2149  TIP3      H2            -10.8449284125        4.6635900614        2.3161583134  W2        2149            0.0000000000
      6448      2150  TIP3      OH2           -13.6275684125        1.1259200614       -3.5604616866  W2        2150            0.0000000000
      6449      2150  TIP3      H1            -14.5384584125        1.1826000614       -3.2718616866  W2        2150            0.0000000000
      6450      2150  TIP3      H2            -13.1222784125        1.0654700614       -2.7497416866  W2        2150            0.0000000000
      6451      2151  TIP3      OH2           -18.7992284125        2.7545500614       -4.7337016866  W2        2151            0.0000000000
      6452      2151  TIP3      H1            -19.6884284125        2.8541000614       -5.0737416866  W2        2151            0.0000000000
      6453      2151  TIP3      H2            -18.5027384125        1.9128500614       -5.0799116866  W2        2151            0.0000000000
      6454      2152  TIP3      OH2           -15.1460484125        2.7548100614       -7.0772416866  W2        2152            0.0000000000
      6455      2152  TIP3      H1            -14.2144984125        2.8838100614       -6.8989316866  W2        2152            0.0000000000
      6456      2152  TIP3      H2            -15.3610184125        3.4242400614       -7.7267716866  W2        2152            0.0000000000
      6457      2153  TIP3      OH2            -9.2223784125        0.3605500614       -0.2962816866  W2        2153            0.0000000000
      6458      2153  TIP3      H1             -9.8992184125        0.4918600614        0.3676883134  W2        2153            0.0000000000
      6459      2153  TIP3      H2             -9.7078884125        0.2055000614       -1.1065116866  W2        2153            0.0000000000
      6460      2154  TIP3      OH2           -16.4720284125        3.9490300614       -9.5106316866  W2        2154            0.0000000000
      6461      2154  TIP3      H1            -17.0145184125        3.5694100614      -10.2018716866  W2        2154            0.0000000000
      6462      2154  TIP3      H2            -15.6385384125        4.1435000614       -9.9392216866  W2        2154            0.0000000000
      6463      2155  TIP3      OH2            -5.9348684125       16.0320900614        5.9804783134  W2        2155            0.0000000000
      6464      2155  TIP3      H1             -5.7349984125       16.4562800614        5.1460083134  W2        2155            0.0000000000
      6465      2155  TIP3      H2             -5.2794984125       16.3759100614        6.5875183134  W2        2155            0.0000000000
      6466      2156  TIP3      OH2           -18.3368884125        8.5062200614        5.5885283134  W2        2156            0.0000000000
      6467      2156  TIP3      H1            -17.6046484125        8.7608100614        6.1499783134  W2        2156            0.0000000000
      6468      2156  TIP3      H2            -19.1170184125        8.7107600614        6.1040683134  W2        2156            0.0000000000
      6469      2157  TIP3      OH2           -12.3075984125        3.9132200614       -1.6735016866  W2        2157            0.0000000000
      6470      2157  TIP3      H1            -11.7432584125        3.3668800614       -2.2205416866  W2        2157            0.0000000000
      6471      2157  TIP3      H2            -12.4552584125        3.3914100614       -0.8847416866  W2        2157            0.0000000000
      6472      2158  TIP3      OH2           -17.3056284125        0.0498300614       -5.2550216866  W2        2158            0.0000000000
      6473      2158  TIP3      H1            -17.6226784125       -0.8526399386       -5.2904816866  W2        2158            0.0000000000
      6474      2158  TIP3      H2            -16.5242184125        0.0515700614       -5.8078616866  W2        2158            0.0000000000
      6475      2159  TIP3      OH2           -13.6810084125        2.3018300614        0.7405383134  W2        2159            0.0000000000
      6476      2159  TIP3      H1            -14.5164784125        2.7557800614        0.8507783134  W2        2159            0.0000000000
      6477      2159  TIP3      H2            -13.1569484125        2.5776800614        1.4925283134  W2        2159            0.0000000000
      6478      2160  TIP3      OH2           -13.1367484125        8.5146000614       -7.5748216866  W2        2160            0.0000000000
      6479      2160  TIP3      H1            -13.8816484125        8.0071300614       -7.8970316866  W2        2160            0.0000000000
      6480      2160  TIP3      H2            -13.2710284125        8.5634000614       -6.6283416866  W2        2160            0.0000000000
      6481      2161  TIP3      OH2            -5.9868584125        7.6474200614        1.2119383134  W2        2161            0.0000000000
      6482      2161  TIP3      H1             -5.3449784125        8.1040500614        0.6681583134  W2        2161            0.0000000000
      6483      2161  TIP3      H2             -6.8171684125        7.7606600614        0.7493483134  W2        2161            0.0000000000
      6484      2162  TIP3      OH2            -9.2390684125        1.3285900614       -9.3755616866  W2        2162            0.0000000000
      6485      2162  TIP3      H1            -10.1776484125        1.4401500614       -9.5266816866  W2        2162            0.0000000000
      6486      2162  TIP3      H2             -8.9418584125        2.1852800614       -9.0689916866  W2        2162            0.0000000000
      6487      2163  TIP3      OH2           -11.6175384125        8.6989300614        3.6620883134  W2        2163            0.0000000000
      6488      2163  TIP3      H1            -11.9629284125        8.3171700614        4.4690483134  W2        2163            0.0000000000
      6489      2163  TIP3      H2            -11.8175284125        9.6322900614        3.7333783134  W2        2163            0.0000000000
      6490      2164  TIP3      OH2            -8.5207184125        3.1958600614       -7.7148216866  W2        2164            0.0000000000
      6491      2164  TIP3      H1             -7.6288184125        3.0583600614       -7.3957016866  W2        2164            0.0000000000
      6492      2164  TIP3      H2             -8.4643584125        3.9864700614       -8.2514716866  W2        2164            0.0000000000
      6493      2165  TIP3      OH2           -18.0119184125        7.8096000614       -1.8050316866  W2        2165            0.0000000000
      6494      2165  TIP3      H1            -17.2671984125        7.8071700614       -2.4063816866  W2        2165            0.0000000000
      6495      2165  TIP3      H2            -17.9342584125        6.9859800614       -1.3235216866  W2        2165            0.0000000000
      6496      2166  TIP3      OH2           -11.0113384125        9.9730300614       -8.5493616866  W2        2166            0.0000000000
      6497      2166  TIP3      H1            -11.3064984125       10.7998200614       -8.1678816866  W2        2166            0.0000000000
      6498      2166  TIP3      H2            -11.7143384125        9.3537200614       -8.3532216866  W2        2166            0.0000000000
      6499      2167  TIP3      OH2           -21.0039484125        6.2702900614        3.5098183134  W2        2167            0.0000000000
      6500      2167  TIP3      H1            -20.7810884125        5.8522500614        4.3415683134  W2        2167            0.0000000000
      6501      2167  TIP3      H2            -21.6059384125        5.6577900614        3.0870983134  W2        2167            0.0000000000
      6502      2168  TIP3      OH2           -13.9874584125        5.7872800614        5.7227883134  W2        2168            0.0000000000
      6503      2168  TIP3      H1            -14.2833784125        5.6215800614        4.8276983134  W2        2168            0.0000000000
      6504      2168  TIP3      H2            -13.0559384125        5.5673100614        5.7121783134  W2        2168            0.0000000000
      6505      2169  TIP3      OH2            -9.3671784125       11.1604800614        3.6125883134  W2        2169            0.0000000000
      6506      2169  TIP3      H1            -10.2677484125       11.3437400614        3.3449783134  W2        2169            0.0000000000
      6507      2169  TIP3      H2             -9.3330684125       11.4194100614        4.5334683134  W2        2169            0.0000000000
      6508      2170  TIP3      OH2            -3.6358484125        3.4052700614       -8.0201516866  W2        2170            0.0000000000
      6509      2170  TIP3      H1             -4.1902184125        3.0090700614       -8.6924016866  W2        2170            0.0000000000
      6510      2170  TIP3      H2             -3.5354884125        4.3157900614       -8.2978216866  W2        2170            0.0000000000
      6511      2171  TIP3      OH2            -3.6726484125        9.2054400614        4.8169983134  W2        2171            0.0000000000
      6512      2171  TIP3      H1             -4.5237984125        9.4438200614        4.4496383134  W2        2171            0.0000000000
      6513      2171  TIP3      H2             -3.0823084125        9.1887600614        4.0637083134  W2        2171            0.0000000000
      6514      2172  TIP3      OH2            -5.3406784125       12.1913100614       -7.5549416866  W2        2172            0.0000000000
      6515      2172  TIP3      H1             -5.7135684125       11.3656900614       -7.2458816866  W2        2172            0.0000000000
      6516      2172  TIP3      H2             -5.0633284125       12.0082500614       -8.4526016866  W2        2172            0.0000000000
      6517      2173  TIP3      OH2            -8.1802884125        6.9992600614       -0.5337516866  W2        2173            0.0000000000
      6518      2173  TIP3      H1             -9.1085984125        6.7674500614       -0.5608216866  W2        2173            0.0000000000
      6519      2173  TIP3      H2             -7.7291784125        6.2222400614       -0.8638716866  W2        2173            0.0000000000
      6520      2174  TIP3      OH2           -15.6369784125       11.3274200614       -4.4008816866  W2        2174            0.0000000000
      6521      2174  TIP3      H1            -15.1097584125       12.1008600614       -4.6010016866  W2        2174            0.0000000000
      6522      2174  TIP3      H2            -16.5171284125       11.5523400614       -4.7024816866  W2        2174            0.0000000000
      6523      2175  TIP3      OH2           -19.8822084125        6.1898300614       -9.8136416866  W2        2175            0.0000000000
      6524      2175  TIP3      H1            -19.2662184125        6.8165500614       -9.4341616866  W2        2175            0.0000000000
      6525      2175  TIP3      H2            -20.7439484125        6.5058100614       -9.5419916866  W2        2175            0.0000000000
      6526      2176  TIP3      OH2           -14.2097484125        8.9904100614       -4.8244516866  W2        2176            0.0000000000
      6527      2176  TIP3      H1            -14.4507484125        9.9158500614       -4.7829216866  W2        2176            0.0000000000
      6528      2176  TIP3      H2            -14.9503884125        8.5315400614       -4.4280616866  W2        2176            0.0000000000
      6529      2177  TIP3      OH2           -13.6950884125       13.1397700614        1.4906583134  W2        2177            0.0000000000
      6530      2177  TIP3      H1            -13.3326184125       13.9943300614        1.2570983134  W2        2177            0.0000000000
      6531      2177  TIP3      H2            -13.1635684125       12.8479300614        2.2312883134  W2        2177            0.0000000000
      6532      2178  TIP3      OH2           -15.5266684125       14.0121700614       -5.2792316866  W2        2178            0.0000000000
      6533      2178  TIP3      H1            -16.4766184125       14.1179100614       -5.2279016866  W2        2178            0.0000000000
      6534      2178  TIP3      H2            -15.1748584125       14.8329100614       -4.9344816866  W2        2178            0.0000000000
      6535      2179  TIP3      OH2           -10.1510084125        9.2388400614        1.1912183134  W2        2179            0.0000000000
      6536      2179  TIP3      H1            -10.5768784125        9.0110100614        2.0176183134  W2        2179            0.0000000000
      6537      2179  TIP3      H2             -9.5704284125        8.5000200614        1.0087483134  W2        2179            0.0000000000
      6538      2180  TIP3      OH2            -7.9481184125       10.1678900614       -9.7348816866  W2        2180            0.0000000000
      6539      2180  TIP3      H1             -7.5948084125        9.7878700614       -8.9305316866  W2        2180            0.0000000000
      6540      2180  TIP3      H2             -8.8967684125       10.0743700614       -9.6479516866  W2        2180            0.0000000000
      6541      2181  TIP3      OH2            -7.4925884125       13.7907900614        3.6606983134  W2        2181            0.0000000000
      6542      2181  TIP3      H1             -8.0942684125       13.2350800614        3.1653283134  W2        2181            0.0000000000
      6543      2181  TIP3      H2             -7.2112184125       14.4577700614        3.0344383134  W2        2181            0.0000000000
      6544      2182  TIP3      OH2            -3.4446784125       14.6471400614       -9.5338616866  W2        2182            0.0000000000
      6545      2182  TIP3      H1             -2.7008884125       15.2331900614       -9.6737016866  W2        2182            0.0000000000
      6546      2182  TIP3      H2             -4.1388684125       15.2157200614       -9.2006216866  W2        2182            0.0000000000
      6547      2183  TIP3      OH2           -19.3699984125        1.0235600614        3.0679583134  W2        2183            0.0000000000
      6548      2183  TIP3      H1            -20.2627684125        1.3621000614        3.0003583134  W2        2183            0.0000000000
      6549      2183  TIP3      H2            -19.4687184125        0.1681700614        3.4860383134  W2        2183            0.0000000000
      6550      2184  TIP3      OH2            -7.0821884125        8.8400900614       -7.5080916866  W2        2184            0.0000000000
      6551      2184  TIP3      H1             -7.3594284125        8.1120200614       -6.9519816866  W2        2184            0.0000000000
      6552      2184  TIP3      H2             -6.1548884125        8.9592900614       -7.3028316866  W2        2184            0.0000000000
      6553      2185  TIP3      OH2           -19.7187984125       12.8280000614        1.5028983134  W2        2185            0.0000000000
      6554      2185  TIP3      H1            -19.5017684125       11.8962400614        1.4718683134  W2        2185            0.0000000000
      6555      2185  TIP3      H2            -19.4724484125       13.1025000614        2.3861783134  W2        2185            0.0000000000
      6556      2186  TIP3      OH2           -13.8573384125       11.2795000614      -11.2878816866  W2        2186            0.0000000000
      6557      2186  TIP3      H1            -13.6183584125       10.5313100614      -11.8349916866  W2        2186            0.0000000000
      6558      2186  TIP3      H2            -14.1262084125       10.8916700614      -10.4551016866  W2        2186            0.0000000000
      6559      2187  TIP3      OH2           -14.9202784125       10.8498800614       -8.8316216866  W2        2187            0.0000000000
      6560      2187  TIP3      H1            -14.7734784125       10.3298600614       -8.0415316866  W2        2187            0.0000000000
      6561      2187  TIP3      H2            -14.9231084125       11.7566400614       -8.5250316866  W2        2187            0.0000000000
      6562      2188  TIP3      OH2           -18.4671684125        8.1022100614       -8.3210816866  W2        2188            0.0000000000
      6563      2188  TIP3      H1            -19.1532384125        8.4544600614       -7.7541116866  W2        2188            0.0000000000
      6564      2188  TIP3      H2            -17.9443784125        8.8651700614       -8.5676516866  W2        2188            0.0000000000
      6565      2189  TIP3      OH2           -10.6356584125        0.7645900614        1.9578183134  W2        2189            0.0000000000
      6566      2189  TIP3      H1             -9.9368684125        0.8384600614        2.6077883134  W2        2189            0.0000000000
      6567      2189  TIP3      H2            -11.0165184125       -0.0999099386        2.1121083134  W2        2189            0.0000000000
      6568      2190  TIP3      OH2            -9.8511684125        0.4167600614       -6.9449516866  W2        2190            0.0000000000
      6569      2190  TIP3      H1             -9.6313384125        0.8883000614       -7.7484116866  W2        2190            0.0000000000
      6570      2190  TIP3      H2             -9.2927684125        0.8110200614       -6.2748916866  W2        2190            0.0000000000
      6571      2191  TIP3      OH2           -12.1825584125       12.5472400614       -8.0822016866  W2        2191            0.0000000000
      6572      2191  TIP3      H1            -12.9989484125       13.0442100614       -8.0297716866  W2        2191            0.0000000000
      6573      2191  TIP3      H2            -11.6529284125       13.0225900614       -8.7223216866  W2        2191            0.0000000000
      6574      2192  TIP3      OH2           -12.6511784125        2.1446400614       -6.1101116866  W2        2192            0.0000000000
      6575      2192  TIP3      H1            -11.8389184125        2.6489600614       -6.0639416866  W2        2192            0.0000000000
      6576      2192  TIP3      H2            -12.8958784125        1.9996100614       -5.1961516866  W2        2192            0.0000000000
      6577      2193  TIP3      OH2           -12.1155384125        3.1309100614        3.0745483134  W2        2193            0.0000000000
      6578      2193  TIP3      H1            -11.9965084125        3.7044500614        3.8315883134  W2        2193            0.0000000000
      6579      2193  TIP3      H2            -11.4600784125        2.4428500614        3.1893283134  W2        2193            0.0000000000
      6580      2194  TIP3      OH2           -11.7675084125       -0.7740599386       -5.1720016866  W2        2194            0.0000000000
      6581      2194  TIP3      H1            -12.1141584125       -0.1569999386       -4.5275716866  W2        2194            0.0000000000
      6582      2194  TIP3      H2            -11.1088184125       -0.2734899386       -5.6534516866  W2        2194            0.0000000000
      6583      2195  TIP3      OH2           -14.8442484125       13.5909600614       -8.1005116866  W2        2195            0.0000000000
      6584      2195  TIP3      H1            -14.6833784125       14.3907100614       -8.6012516866  W2        2195            0.0000000000
      6585      2195  TIP3      H2            -15.0414684125       13.8975600614       -7.2154516866  W2        2195            0.0000000000
      6586      2196  TIP3      OH2           -16.1098084125        0.2888800614       -8.4847516866  W2        2196            0.0000000000
      6587      2196  TIP3      H1            -16.1933284125        1.1771900614       -8.1381116866  W2        2196            0.0000000000
      6588      2196  TIP3      H2            -15.2197784125        0.0235500614       -8.2530716866  W2        2196            0.0000000000
      6589      2197  TIP3      OH2            -5.9109584125        1.0379400614        3.9095183134  W2        2197            0.0000000000
      6590      2197  TIP3      H1             -6.8273784125        1.3001100614        3.8218883134  W2        2197            0.0000000000
      6591      2197  TIP3      H2             -5.5754584125        1.0348400614        3.0130483134  W2        2197            0.0000000000
      6592      2198  TIP3      OH2            -7.3088584125        4.7880400614       -1.9947516866  W2        2198            0.0000000000
      6593      2198  TIP3      H1             -8.1064184125        4.3730600614       -2.3232516866  W2        2198            0.0000000000
      6594      2198  TIP3      H2             -6.8637484125        4.0974100614       -1.5037016866  W2        2198            0.0000000000
      6595      2199  TIP3      OH2           -17.8512784125       10.7161000614       -9.4243016866  W2        2199            0.0000000000
      6596      2199  TIP3      H1            -17.2591284125       11.4155800614       -9.1480616866  W2        2199            0.0000000000
      6597      2199  TIP3      H2            -17.3919784125       10.2830500614      -10.1438416866  W2        2199            0.0000000000
      6598      2200  TIP3      OH2           -19.5353584125        3.3804000614      -10.3083616866  W2        2200            0.0000000000
      6599      2200  TIP3      H1            -19.5800984125        4.3197100614      -10.1296616866  W2        2200            0.0000000000
      6600      2200  TIP3      H2            -20.4230384125        3.1448900614      -10.5781516866  W2        2200            0.0000000000
      6601      2201  TIP3      OH2            -6.2223984125       14.0442900614       -0.3724016866  W2        2201            0.0000000000
      6602      2201  TIP3      H1             -6.3779684125       14.7227300614       -1.0294716866  W2        2201            0.0000000000
      6603      2201  TIP3      H2             -5.2897584125       14.1162200614       -0.1693416866  W2        2201            0.0000000000
      6604      2202  TIP3      OH2           -18.7271584125       -1.8379399386       -1.6352616866  W2        2202            0.0000000000
      6605      2202  TIP3      H1            -18.9561784125       -1.7786899386       -2.5627616866  W2        2202            0.0000000000
      6606      2202  TIP3      H2            -19.1698184125       -2.6293899386       -1.3288516866  W2        2202            0.0000000000
      6607      2203  TIP3      OH2           -19.7968284125       12.1027700614       -5.4746816866  W2        2203            0.0000000000
      6608      2203  TIP3      H1            -20.6289684125       12.5750400614       -5.4475416866  W2        2203            0.0000000000
      6609      2203  TIP3      H2            -19.2509984125       12.6125300614       -6.0733716866  W2        2203            0.0000000000
      6610      2204  TIP3      OH2           -20.5084584125       14.7151400614        5.8551183134  W2        2204            0.0000000000
      6611      2204  TIP3      H1            -19.9682384125       14.4985400614        6.6150383134  W2        2204            0.0000000000
      6612      2204  TIP3      H2            -20.9896584125       13.9097400614        5.6653683134  W2        2204            0.0000000000
      6613      2205  TIP3      OH2           -15.9111184125       13.6345800614        7.4755383134  W2        2205            0.0000000000
      6614      2205  TIP3      H1            -15.1433984125       13.1756600614        7.8164583134  W2        2205            0.0000000000
      6615      2205  TIP3      H2            -15.9324984125       13.4085600614        6.5456583134  W2        2205            0.0000000000
      6616      2206  TIP3      OH2           -11.8191584125       13.1426400614      -11.1492816866  W2        2206            0.0000000000
      6617      2206  TIP3      H1            -12.4630584125       12.5115000614      -10.8279116866  W2        2206            0.0000000000
      6618      2206  TIP3      H2            -11.0573284125       12.6114400614      -11.3809316866  W2        2206            0.0000000000
      6619      2207  TIP3      OH2            -9.3342484125       12.0146900614        6.2046883134  W2        2207            0.0000000000
      6620      2207  TIP3      H1             -9.6852984125       11.1579900614        6.4477283134  W2        2207            0.0000000000
      6621      2207  TIP3      H2             -8.6079284125       12.1573600614        6.8115883134  W2        2207            0.0000000000
      6622      2208  TIP3      OH2            -7.2148684125       12.9596300614      -10.9154816866  W2        2208            0.0000000000
      6623      2208  TIP3      H1             -6.9318284125       12.1651500614      -10.4627916866  W2        2208            0.0000000000
      6624      2208  TIP3      H2             -6.4750784125       13.1927300614      -11.4763716866  W2        2208            0.0000000000
      6625      2209  TIP3      OH2           -20.6015084125        8.5255500614        6.8095483134  W2        2209            0.0000000000
      6626      2209  TIP3      H1            -20.4574584125        7.6236200614        6.5232183134  W2        2209            0.0000000000
      6627      2209  TIP3      H2            -21.3737684125        8.8117600614        6.3217783134  W2        2209            0.0000000000
      6628      2210  TIP3      OH2           -16.2601384125        8.8691200614      -11.0579916866  W2        2210            0.0000000000
      6629      2210  TIP3      H1            -16.1957284125        8.0750800614      -10.5273516866  W2        2210            0.0000000000
      6630      2210  TIP3      H2            -15.6072184125        8.7504000614      -11.7477916866  W2        2210            0.0000000000
      6631      2211  TIP3      OH2           -13.9458984125        8.4953600614        6.2421883134  W2        2211            0.0000000000
      6632      2211  TIP3      H1            -14.2745184125        8.7661700614        5.3849283134  W2        2211            0.0000000000
      6633      2211  TIP3      H2            -13.7940784125        7.5543400614        6.1546883134  W2        2211            0.0000000000
      6634      2212  TIP3      OH2           -10.9077984125        9.9162900614      -11.3221916866  W2        2212            0.0000000000
      6635      2212  TIP3      H1            -11.1763884125       10.0965000614      -10.4213016866  W2        2212            0.0000000000
      6636      2212  TIP3      H2            -11.1142384125        8.9909100614      -11.4536116866  W2        2212            0.0000000000
      6637      2213  TIP3      OH2            -8.2113784125        8.4110900614        3.6254183134  W2        2213            0.0000000000
      6638      2213  TIP3      H1             -7.4658984125        8.9994600614        3.5058183134  W2        2213            0.0000000000
      6639      2213  TIP3      H2             -8.9686984125        8.9930600614        3.6887283134  W2        2213            0.0000000000
      6640      2214  TIP3      OH2           -19.7688584125        5.7258800614        6.2294783134  W2        2214            0.0000000000
      6641      2214  TIP3      H1            -19.3607384125        4.8685400614        6.1085383134  W2        2214            0.0000000000
      6642      2214  TIP3      H2            -20.0290984125        5.7400100614        7.1505083134  W2        2214            0.0000000000
      6643      2215  TIP3      OH2           -15.1107584125        6.8417400614       -8.7521916866  W2        2215            0.0000000000
      6644      2215  TIP3      H1            -15.5705584125        6.3575700614       -8.0663416866  W2        2215            0.0000000000
      6645      2215  TIP3      H2            -14.8558884125        6.1732800614       -9.3881416866  W2        2215            0.0000000000
      6646      2216  TIP3      OH2           -15.8218284125        4.7344500614        3.6037683134  W2        2216            0.0000000000
      6647      2216  TIP3      H1            -16.4402184125        5.4091100614        3.8842383134  W2        2216            0.0000000000
      6648      2216  TIP3      H2            -15.4777084125        5.0558400614        2.7703883134  W2        2216            0.0000000000
      6649      2217  TIP3      OH2           -14.0397184125        5.0849200614      -10.4898716866  W2        2217            0.0000000000
      6650      2217  TIP3      H1            -14.2202184125        4.9300400614      -11.4170416866  W2        2217            0.0000000000
      6651      2217  TIP3      H2            -13.0896684125        5.1927900614      -10.4450816866  W2        2217            0.0000000000
      6652      2218  TIP3      OH2           -10.8020084125        7.2059800614        6.8812483134  W2        2218            0.0000000000
      6653      2218  TIP3      H1             -9.8488884125        7.2898900614        6.8538483134  W2        2218            0.0000000000
      6654      2218  TIP3      H2            -10.9625484125        6.4941600614        7.5007383134  W2        2218            0.0000000000
      6655      2219  TIP3      OH2            -4.6498884125        7.4393400614      -11.0440616866  W2        2219            0.0000000000
      6656      2219  TIP3      H1             -4.9234084125        7.0148900614      -11.8572316866  W2        2219            0.0000000000
      6657      2219  TIP3      H2             -4.6104784125        8.3707900614      -11.2610216866  W2        2219            0.0000000000
      6658      2220  TIP3      OH2           -15.4824584125        2.0895300614        4.6860783134  W2        2220            0.0000000000
      6659      2220  TIP3      H1            -15.3323684125        1.3606600614        4.0840483134  W2        2220            0.0000000000
      6660      2220  TIP3      H2            -15.4802184125        2.8667000614        4.1272983134  W2        2220            0.0000000000
      6661      2221  TIP3      OH2           -15.0698884125        0.4591100614        2.1788183134  W2        2221            0.0000000000
      6662      2221  TIP3      H1            -14.5341384125        0.9107800614        1.5267483134  W2        2221            0.0000000000
      6663      2221  TIP3      H2            -15.9219284125        0.3510900614        1.7562283134  W2        2221            0.0000000000
      6664      2222  TIP3      OH2           -13.4880484125        5.8987300614        2.4183383134  W2        2222            0.0000000000
      6665      2222  TIP3      H1            -12.7375684125        5.7424800614        1.8451183134  W2        2222            0.0000000000
      6666      2222  TIP3      H2            -13.8272184125        6.7503900614        2.1428883134  W2        2222            0.0000000000
      6667      2223  TIP3      OH2            -9.0724284125        3.7139100614        7.4468683134  W2        2223            0.0000000000
      6668      2223  TIP3      H1             -8.8802984125        2.7828500614        7.3353183134  W2        2223            0.0000000000
      6669      2223  TIP3      H2             -8.2147984125        4.1388600614        7.4364083134  W2        2223            0.0000000000
      6670      2224  TIP3      OH2            -7.7557084125        6.5024300614        5.5241383134  W2        2224            0.0000000000
      6671      2224  TIP3      H1             -8.0372084125        7.2118900614        4.9465183134  W2        2224            0.0000000000
      6672      2224  TIP3      H2             -6.8132784125        6.4297300614        5.3732583134  W2        2224            0.0000000000
      6673      2225  TIP3      OH2           -17.0038284125        3.2878800614        6.5976383134  W2        2225            0.0000000000
      6674      2225  TIP3      H1            -17.7709284125        2.7553600614        6.3873983134  W2        2225            0.0000000000
      6675      2225  TIP3      H2            -16.3249284125        2.9779200614        5.9982683134  W2        2225            0.0000000000
      6676      2226  TIP3      OH2           -14.2643384125       -2.0843199386        2.6101783134  W2        2226            0.0000000000
      6677      2226  TIP3      H1            -14.3623784125       -1.1379999386        2.5047983134  W2        2226            0.0000000000
      6678      2226  TIP3      H2            -15.0067184125       -2.4569399386        2.1345283134  W2        2226            0.0000000000
      6679      2227  TIP3      OH2           -13.0002884125        2.2372200614        6.1740183134  W2        2227            0.0000000000
      6680      2227  TIP3      H1            -13.2357484125        2.0178900614        7.0755083134  W2        2227            0.0000000000
      6681      2227  TIP3      H2            -13.7835984125        2.0303400614        5.6642683134  W2        2227            0.0000000000
      6682      2228  TIP3      OH2           -10.2846284125        1.3645700614        5.2493683134  W2        2228            0.0000000000
      6683      2228  TIP3      H1            -11.2320884125        1.3965400614        5.3816983134  W2        2228            0.0000000000
      6684      2228  TIP3      H2             -9.9719584125        0.7392800614        5.9031883134  W2        2228            0.0000000000
      6685      2229  TIP3      OH2            -8.6504784125       -0.0013199386        7.2545583134  W2        2229            0.0000000000
      6686      2229  TIP3      H1             -8.7472984125       -0.9535899386        7.2487483134  W2        2229            0.0000000000
      6687      2229  TIP3      H2             -8.9721684125        0.2673600614        8.1151083134  W2        2229            0.0000000000
      6688      2230  TIP3      OH2           -18.8235484125        1.2082600614        6.3021083134  W2        2230            0.0000000000
      6689      2230  TIP3      H1            -18.6118084125        0.5018700614        5.6918583134  W2        2230            0.0000000000
      6690      2230  TIP3      H2            -18.9347984125        0.7708600614        7.1462283134  W2        2230            0.0000000000
      6691      2231  TIP3      OH2           -14.0425284125       -2.7905799386        5.2814583134  W2        2231            0.0000000000
      6692      2231  TIP3      H1            -13.3306884125       -3.4303599386        5.2673683134  W2        2231            0.0000000000
      6693      2231  TIP3      H2            -14.1434884125       -2.5237499386        4.3677683134  W2        2231            0.0000000000
      6694      2232  TIP3      OH2           -13.6887784125       -1.1077399386        7.3350883134  W2        2232            0.0000000000
      6695      2232  TIP3      H1            -13.8205584125       -1.5833599386        6.5149383134  W2        2232            0.0000000000
      6696      2232  TIP3      H2            -14.2880384125       -0.3633799386        7.2797983134  W2        2232            0.0000000000
      6697      2233  TIP3      OH2           -14.1425484125       15.7752900614       -9.4885116866  W2        2233            0.0000000000
      6698      2233  TIP3      H1            -13.2094784125       15.9331600614       -9.3446716866  W2        2233            0.0000000000
      6699      2233  TIP3      H2            -14.4066684125       16.4505900614      -10.1133616866  W2        2233            0.0000000000
      6700      2234  TIP3      OH2           -20.5740584125       10.4116700614      -10.0057016866  W2        2234            0.0000000000
      6701      2234  TIP3      H1            -19.6601384125       10.4905600614       -9.7323116866  W2        2234            0.0000000000
      6702      2234  TIP3      H2            -20.5667484125        9.7246300614      -10.6721416866  W2        2234            0.0000000000
      6703      2235  TIP3      OH2           -21.9249984125       15.8045200614       -4.9283116866  W2        2235            0.0000000000
      6704      2235  TIP3      H1            -22.5722884125       15.3426900614       -5.4611916866  W2        2235            0.0000000000
      6705      2235  TIP3      H2            -21.5705384125       15.1328500614       -4.3456916866  W2        2235            0.0000000000
      6706      2236  TIP3      OH2           -21.0550784125       13.8852200614       -3.1236916866  W2        2236            0.0000000000
      6707      2236  TIP3      H1            -21.3893984125       13.0049500614       -2.9516716866  W2        2236            0.0000000000
      6708      2236  TIP3      H2            -20.8328384125       14.2307200614       -2.2591316866  W2        2236            0.0000000000
      6709      2237  TIP3      OH2            -3.5065984125       14.6948600614       -0.1432116866  W2        2237            0.0000000000
      6710      2237  TIP3      H1             -3.5279284125       14.8797000614        0.7957283134  W2        2237            0.0000000000
      6711      2237  TIP3      H2             -2.8159784125       15.2632600614       -0.4840716866  W2        2237            0.0000000000
      6712      2238  TIP3      OH2            -3.9433084125       14.2619700614        2.7786983134  W2        2238            0.0000000000
      6713      2238  TIP3      H1             -4.4304384125       13.5263800614        2.4074383134  W2        2238            0.0000000000
      6714      2238  TIP3      H2             -3.3940384125       13.8683600614        3.4566383134  W2        2238            0.0000000000
      6715      2239  TIP3      OH2            -5.4925784125       10.0517800614        7.4167283134  W2        2239            0.0000000000
      6716      2239  TIP3      H1             -6.3584684125        9.9467500614        7.8109583134  W2        2239            0.0000000000
      6717      2239  TIP3      H2             -5.1159884125       10.8101100614        7.8631983134  W2        2239            0.0000000000
      6718      2240  TIP3      OH2            -4.1916084125        8.3081500614       -7.0690216866  W2        2240            0.0000000000
      6719      2240  TIP3      H1             -3.3414684125        8.7292400614       -6.9418616866  W2        2240            0.0000000000
      6720      2240  TIP3      H2             -4.1860984125        7.5681600614       -6.4618816866  W2        2240            0.0000000000
      6721      2241  TIP3      OH2            -3.7970484125        6.3618900614       -5.2454516866  W2        2241            0.0000000000
      6722      2241  TIP3      H1             -4.5235884125        5.8821500614       -4.8476916866  W2        2241            0.0000000000
      6723      2241  TIP3      H2             -3.2157184125        6.5673600614       -4.5132916866  W2        2241            0.0000000000
      6724      2242  TIP3      OH2            -4.0379284125        9.1466400614       -0.2976916866  W2        2242            0.0000000000
      6725      2242  TIP3      H1             -3.2045084125        8.7686400614       -0.5783316866  W2        2242            0.0000000000
      6726      2242  TIP3      H2             -3.9258984125       10.0897600614       -0.4167816866  W2        2242            0.0000000000
      6727      2243  TIP3      OH2            -5.5516984125       12.0243900614        2.0091483134  W2        2243            0.0000000000
      6728      2243  TIP3      H1             -6.1991684125       12.3495400614        2.6346683134  W2        2243            0.0000000000
      6729      2243  TIP3      H2             -6.0692984125       11.5841600614        1.3349783134  W2        2243            0.0000000000
      6730      2244  TIP3      OH2            -3.5287384125        6.2627400614       -8.8543216866  W2        2244            0.0000000000
      6731      2244  TIP3      H1             -4.0506284125        6.6191500614       -9.5732316866  W2        2244            0.0000000000
      6732      2244  TIP3      H2             -3.5618184125        6.9375200614       -8.1762316866  W2        2244            0.0000000000
      6733      2245  TIP3      OH2            -5.1798384125        3.5023000614      -10.3036116866  W2        2245            0.0000000000
      6734      2245  TIP3      H1             -5.0833984125        4.1690000614      -10.9836416866  W2        2245            0.0000000000
      6735      2245  TIP3      H2             -5.3198784125        2.6869300614      -10.7850616866  W2        2245            0.0000000000
      6736      2246  TIP3      OH2            -6.0103684125        4.8825400614       -4.6825816866  W2        2246            0.0000000000
      6737      2246  TIP3      H1             -6.1604884125        3.9374000614       -4.7028016866  W2        2246            0.0000000000
      6738      2246  TIP3      H2             -6.3639184125        5.1636800614       -3.8386716866  W2        2246            0.0000000000
      6739      2247  TIP3      OH2           -20.9751284125        6.9607600614       -0.6722016866  W2        2247            0.0000000000
      6740      2247  TIP3      H1            -20.7908384125        6.8789300614       -1.6079116866  W2        2247            0.0000000000
      6741      2247  TIP3      H2            -20.1258384125        6.8364600614       -0.2485616866  W2        2247            0.0000000000
      6742      2248  TIP3      OH2            -5.1540784125        6.8528700614        4.9562483134  W2        2248            0.0000000000
      6743      2248  TIP3      H1             -4.5713484125        6.1181000614        5.1479683134  W2        2248            0.0000000000
      6744      2248  TIP3      H2             -4.5901484125        7.6249000614        5.0028283134  W2        2248            0.0000000000
      6745      2249  TIP3      OH2            -3.6573684125        4.7554500614        5.6407883134  W2        2249            0.0000000000
      6746      2249  TIP3      H1             -4.5206984125        4.3766600614        5.4752583134  W2        2249            0.0000000000
      6747      2249  TIP3      H2             -3.0529984125        4.0169300614        5.5663683134  W2        2249            0.0000000000
      6748      2250  TIP3      OH2            -5.9324584125        0.9102800614      -11.1860616866  W2        2250            0.0000000000
      6749      2250  TIP3      H1             -5.3218784125        0.5389600614      -10.5492416866  W2        2250            0.0000000000
      6750      2250  TIP3      H2             -6.7693084125        0.4889700614      -10.9900616866  W2        2250            0.0000000000
      6751      2251  TIP3      OH2            -6.2998884125        2.4651200614       -6.2200716866  W2        2251            0.0000000000
      6752      2251  TIP3      H1             -6.0201784125        1.5581600614       -6.0959016866  W2        2251            0.0000000000
      6753      2251  TIP3      H2             -5.5407184125        2.8992700614       -6.6091516866  W2        2251            0.0000000000
      6754      2252  TIP3      OH2            -5.6880584125        3.0468600614       -0.7841816866  W2        2252            0.0000000000
      6755      2252  TIP3      H1             -4.7552584125        3.2588500614       -0.8185816866  W2        2252            0.0000000000
      6756      2252  TIP3      H2             -5.9233084125        3.1480700614        0.1381183134  W2        2252            0.0000000000
      6757      2253  TIP3      OH2            -5.6588684125        3.7833900614        1.9917583134  W2        2253            0.0000000000
      6758      2253  TIP3      H1             -6.5017384125        4.0514300614        2.3577383134  W2        2253            0.0000000000
      6759      2253  TIP3      H2             -5.2164384125        4.6055800614        1.7808683134  W2        2253            0.0000000000
      6760      2254  TIP3      OH2           -21.3776484125        2.2312600614        5.4686783134  W2        2254            0.0000000000
      6761      2254  TIP3      H1            -20.4581584125        2.1090900614        5.7049883134  W2        2254            0.0000000000
      6762      2254  TIP3      H2            -21.8271984125        1.4812300614        5.8580283134  W2        2254            0.0000000000
      6763      2255  TIP3      OH2            -3.3757084125       -2.2365899386        7.3452583134  W2        2255            0.0000000000
      6764      2255  TIP3      H1             -3.0260084125       -2.8902399386        6.7397283134  W2        2255            0.0000000000
      6765      2255  TIP3      H2             -3.2287584125       -1.3991799386        6.9055183134  W2        2255            0.0000000000
      6766      2256  TIP3      OH2            -5.6864084125       -0.2719499386       -6.1718716866  W2        2256            0.0000000000
      6767      2256  TIP3      H1             -5.5039084125       -0.7207999386       -5.3463716866  W2        2256            0.0000000000
      6768      2256  TIP3      H2             -6.2861184125       -0.8565099386       -6.6354116866  W2        2256            0.0000000000
      6769      2257  TIP3      OH2           -20.1563984125        0.5434200614       -1.6400316866  W2        2257            0.0000000000
      6770      2257  TIP3      H1            -19.7112384125       -0.2483299386       -1.3380616866  W2        2257            0.0000000000
      6771      2257  TIP3      H2            -19.6900984125        1.2599400614       -1.2094716866  W2        2257            0.0000000000
      6772      2258  TIP3      OH2           -21.8523684125        3.5427200614       -0.5710116866  W2        2258            0.0000000000
      6773      2258  TIP3      H1            -21.3603884125        3.3217700614       -1.3618116866  W2        2258            0.0000000000
      6774      2258  TIP3      H2            -21.4902784125        4.3830600614       -0.2900616866  W2        2258            0.0000000000
      6775      2259  TIP3      OH2            -3.8559884125       -0.1271299386        5.6943883134  W2        2259            0.0000000000
      6776      2259  TIP3      H1             -4.7734184125        0.1435800614        5.6587383134  W2        2259            0.0000000000
      6777      2259  TIP3      H2             -3.7330484125       -0.6622899386        4.9103583134  W2        2259            0.0000000000
      6778      2260  TIP3      OH2            -3.8197884125       -0.2041399386       -9.6438416866  W2        2260            0.0000000000
      6779      2260  TIP3      H1             -3.4075284125       -0.9255699386      -10.1190416866  W2        2260            0.0000000000
      6780      2260  TIP3      H2             -3.1381384125        0.4653200614       -9.5854116866  W2        2260            0.0000000000
      6781      2261  TIP3      OH2           -21.5387184125       -0.1993699386       -6.5167716866  W2        2261            0.0000000000
      6782      2261  TIP3      H1            -22.4638784125        0.0092900614       -6.6462216866  W2        2261            0.0000000000
      6783      2261  TIP3      H2            -21.0847284125        0.2847100614       -7.2065416866  W2        2261            0.0000000000
      6784      2262  TIP3      OH2            -6.7679984125       14.7848000614       -4.5710316866  W2        2262            0.0000000000
      6785      2262  TIP3      H1             -6.1157084125       14.4370100614       -5.1791216866  W2        2262            0.0000000000
      6786      2262  TIP3      H2             -6.2576184125       15.2731200614       -3.9250616866  W2        2262            0.0000000000
      6787      2263  TIP3      OH2           -21.5751784125       -1.4614699386        1.8274783134  W2        2263            0.0000000000
      6788      2263  TIP3      H1            -22.2401284125       -1.7074399386        2.4705683134  W2        2263            0.0000000000
      6789      2263  TIP3      H2            -22.0180484125       -0.8394299386        1.2502783134  W2        2263            0.0000000000
      6790      2264  TIP3      OH2           -19.3832484125       11.7139400614        5.9720583134  W2        2264            0.0000000000
      6791      2264  TIP3      H1            -20.2039984125       11.8885900614        5.5115283134  W2        2264            0.0000000000
      6792      2264  TIP3      H2            -19.6354684125       11.6404100614        6.8924983134  W2        2264            0.0000000000
      6793      2265  TIP3      OH2           -16.4289584125       12.6880600614        2.2304583134  W2        2265            0.0000000000
      6794      2265  TIP3      H1            -16.8538484125       13.4979100614        1.9479183134  W2        2265            0.0000000000
      6795      2265  TIP3      H2            -15.5246784125       12.7734700614        1.9284383134  W2        2265            0.0000000000
      6796      2266  TIP3      OH2           -12.1178184125       14.0870600614        5.1898283134  W2        2266            0.0000000000
      6797      2266  TIP3      H1            -11.9330684125       13.7536700614        6.0678583134  W2        2266            0.0000000000
      6798      2266  TIP3      H2            -11.2713684125       14.3969200614        4.8677483134  W2        2266            0.0000000000
      6799      2267  TIP3      OH2            -9.7727784125       15.3729500614        4.4339683134  W2        2267            0.0000000000
      6800      2267  TIP3      H1             -9.0958884125       14.7401800614        4.1938883134  W2        2267            0.0000000000
      6801      2267  TIP3      H2             -9.4508984125       15.7740000614        5.2412983134  W2        2267            0.0000000000
      6802      2268  TIP3      OH2            -4.8553984125       -2.0374999386        3.5134683134  W2        2268            0.0000000000
      6803      2268  TIP3      H1             -5.6680484125       -1.7124699386        3.1259383134  W2        2268            0.0000000000
      6804      2268  TIP3      H2             -4.6225484125       -2.7976499386        2.9803783134  W2        2268            0.0000000000
      6805      2269  TIP3      OH2           -19.0272884125       15.9444500614        2.2779883134  W2        2269            0.0000000000
      6806      2269  TIP3      H1            -19.7476484125       16.3845500614        1.8267583134  W2        2269            0.0000000000
      6807      2269  TIP3      H2            -19.3928884125       15.6939200614        3.1263883134  W2        2269            0.0000000000
      6808      2270  TIP3      OH2           -16.5600284125       15.5448400614        1.3077083134  W2        2270            0.0000000000
      6809      2270  TIP3      H1            -17.4248084125       15.6166900614        1.7117183134  W2        2270            0.0000000000
      6810      2270  TIP3      H2            -16.6151284125       16.0915700614        0.5239583134  W2        2270            0.0000000000
      6811      2271  TIP3      OH2           -11.8494684125       15.4327300614        0.4833083134  W2        2271            0.0000000000
      6812      2271  TIP3      H1            -12.3060684125       15.9617000614       -0.1708516866  W2        2271            0.0000000000
      6813      2271  TIP3      H2            -11.6866684125       16.0358700614        1.2085383134  W2        2271            0.0000000000
      6814      2272  TIP3      OH2            -9.5218384125       14.3106900614        1.4283383134  W2        2272            0.0000000000
      6815      2272  TIP3      H1            -10.4264684125       14.4757100614        1.1625483134  W2        2272            0.0000000000
      6816      2272  TIP3      H2             -9.0929784125       15.1639100614        1.3626783134  W2        2272            0.0000000000
      6817      2273  TIP3      OH2            -6.9176484125       15.8806000614        1.7231183134  W2        2273            0.0000000000
      6818      2273  TIP3      H1             -7.0994484125       16.7964900614        1.5126083134  W2        2273            0.0000000000
      6819      2273  TIP3      H2             -6.7408684125       15.4703100614        0.8765783134  W2        2273            0.0000000000
      6820      2274  TIP3      OH2           -19.6124784125       14.5677000614       -0.8118316866  W2        2274            0.0000000000
      6821      2274  TIP3      H1            -19.6308784125       14.1422100614        0.0453983134  W2        2274            0.0000000000
      6822      2274  TIP3      H2            -18.8076884125       14.2492000614       -1.2206116866  W2        2274            0.0000000000
      6823      2275  TIP3      OH2           -17.4711684125       13.2775700614       -2.1568416866  W2        2275            0.0000000000
      6824      2275  TIP3      H1            -17.6900984125       12.3613100614       -1.9872416866  W2        2275            0.0000000000
      6825      2275  TIP3      H2            -16.6469484125       13.4176100614       -1.6907016866  W2        2275            0.0000000000
      6826      2276  TIP3      OH2           -14.9339184125       13.7475000614       -1.3080416866  W2        2276            0.0000000000
      6827      2276  TIP3      H1            -14.7213484125       12.8594000614       -1.5949516866  W2        2276            0.0000000000
      6828      2276  TIP3      H2            -14.8694084125       13.7132700614       -0.3536416866  W2        2276            0.0000000000
      6829      2277  TIP3      OH2           -11.4255484125       -0.5884399386       -2.1637116866  W2        2277            0.0000000000
      6830      2277  TIP3      H1            -12.0998684125       -1.2178799386       -1.9081316866  W2        2277            0.0000000000
      6831      2277  TIP3      H2            -10.8616284125       -1.0725499386       -2.7669216866  W2        2277            0.0000000000
      6832      2278  TIP3      OH2            -6.2828284125       -2.4810399386       -2.0510016866  W2        2278            0.0000000000
      6833      2278  TIP3      H1             -5.6790684125       -1.9334999386       -2.5529016866  W2        2278            0.0000000000
      6834      2278  TIP3      H2             -7.1526284125       -2.1619999386       -2.2915916866  W2        2278            0.0000000000
      6835      2279  TIP3      OH2            -4.5557884125       -1.3421699386       -3.7179116866  W2        2279            0.0000000000
      6836      2279  TIP3      H1             -3.9440384125       -1.8565999386       -4.2445516866  W2        2279            0.0000000000
      6837      2279  TIP3      H2             -4.1734484125       -0.4649599386       -3.6944716866  W2        2279            0.0000000000
      6838      2280  TIP3      OH2           -19.0987984125       -1.9544099386       -4.3417216866  W2        2280            0.0000000000
      6839      2280  TIP3      H1            -19.8758184125       -2.1889199386       -4.8491316866  W2        2280            0.0000000000
      6840      2280  TIP3      H2            -18.5684384125       -2.7511999386       -4.3329216866  W2        2280            0.0000000000
      6841      2281  TIP3      OH2           -20.2624584125       -2.1565999386       -8.5381116866  W2        2281            0.0000000000
      6842      2281  TIP3      H1            -19.8233884125       -1.5455499386       -9.1297616866  W2        2281            0.0000000000
      6843      2281  TIP3      H2            -20.8962184125       -1.6181899386       -8.0641116866  W2        2281            0.0000000000
      6844      2282  TIP3      OH2           -14.5195384125       -2.0276999386       -4.5284116866  W2        2282            0.0000000000
      6845      2282  TIP3      H1            -13.6451984125       -1.6392699386       -4.5579816866  W2        2282            0.0000000000
      6846      2282  TIP3      H2            -14.6554584125       -2.2429199386       -3.6056916866  W2        2282            0.0000000000
      6847      2283  TIP3      OH2            -8.9626984125       -1.9977199386       -2.8792416866  W2        2283            0.0000000000
      6848      2283  TIP3      H1             -8.8865384125       -1.9025599386       -3.8286416866  W2        2283            0.0000000000
      6849      2283  TIP3      H2             -9.2377784125       -2.9054299386       -2.7503316866  W2        2283            0.0000000000
      6850      2284  TIP3      OH2            -7.6094384125       -1.9719399386       -7.1867416866  W2        2284            0.0000000000
      6851      2284  TIP3      H1             -8.3123284125       -1.3570199386       -7.3966016866  W2        2284            0.0000000000
      6852      2284  TIP3      H2             -8.0542984125       -2.8092699386       -7.0556516866  W2        2284            0.0000000000
      6853      2285  TIP3      OH2           -20.3615084125       13.7916200614       -7.6406016866  W2        2285            0.0000000000
      6854      2285  TIP3      H1            -21.0465184125       13.7535100614       -8.3080916866  W2        2285            0.0000000000
      6855      2285  TIP3      H2            -20.3577884125       14.7043800614       -7.3523916866  W2        2285            0.0000000000
      6856      2286  TIP3      OH2           -18.4015484125       -0.2404499386      -10.0957016866  W2        2286            0.0000000000
      6857      2286  TIP3      H1            -17.9102084125       -0.8702099386      -10.6231516866  W2        2286            0.0000000000
      6858      2286  TIP3      H2            -17.7779184125        0.0554900614       -9.4325816866  W2        2286            0.0000000000
      6859      2287  TIP3      OH2           -13.3755384125        0.0527000614       -7.6386516866  W2        2287            0.0000000000
      6860      2287  TIP3      H1            -13.1974084125       -0.5939799386       -6.9557916866  W2        2287            0.0000000000
      6861      2287  TIP3      H2            -13.4289184125        0.8864700614       -7.1715416866  W2        2287            0.0000000000
      6862      2288  TIP3      OH2           -11.4971584125       15.0011100614       -9.2429816866  W2        2288            0.0000000000
      6863      2288  TIP3      H1            -10.6311384125       15.3678500614       -9.4211616866  W2        2288            0.0000000000
      6864      2288  TIP3      H2            -11.7438784125       14.5619100614      -10.0569016866  W2        2288            0.0000000000
      6865      2289  TIP3      OH2            -4.7881984125       14.5641400614       -6.5638716866  W2        2289            0.0000000000
      6866      2289  TIP3      H1             -4.9824884125       13.8163500614       -7.1289116866  W2        2289            0.0000000000
      6867      2289  TIP3      H2             -4.8271884125       15.3221500614       -7.1470816866  W2        2289            0.0000000000
      6868      2290  TIP3      OH2           -19.1409984125       -1.4402199386        5.1758983134  W2        2290            0.0000000000
      6869      2290  TIP3      H1            -19.5071784125       -2.2059599386        5.6183683134  W2        2290            0.0000000000
      6870      2290  TIP3      H2            -18.2281484125       -1.4111999386        5.4624083134  W2        2290            0.0000000000
      6871      2291  TIP3      OH2           -17.1679184125       -2.0897799386        6.7116083134  W2        2291            0.0000000000
      6872      2291  TIP3      H1            -16.2695584125       -2.3637599386        6.5269483134  W2        2291            0.0000000000
      6873      2291  TIP3      H2            -17.5546084125       -2.8321799386        7.1758683134  W2        2291            0.0000000000
      6874      2292  TIP3      OH2           -18.5433884125       14.7117000614      -10.6153916866  W2        2292            0.0000000000
      6875      2292  TIP3      H1            -18.8109284125       14.9979900614       -9.7420816866  W2        2292            0.0000000000
      6876      2292  TIP3      H2            -17.7721284125       14.1656200614      -10.4631416866  W2        2292            0.0000000000
      6877      2293  TIP3      OH2            -8.7466884125       -2.7572499386        6.8938883134  W2        2293            0.0000000000
      6878      2293  TIP3      H1             -8.6699684125       -3.1831799386        7.7476583134  W2        2293            0.0000000000
      6879      2293  TIP3      H2             -7.8530284125       -2.7437799386        6.5512383134  W2        2293            0.0000000000
      6880      2294  TIP3      OH2            -5.5705784125       13.3153800614        5.5863083134  W2        2294            0.0000000000
      6881      2294  TIP3      H1             -6.3523884125       13.1291800614        5.0663683134  W2        2294            0.0000000000
      6882      2294  TIP3      H2             -5.6425884125       14.2448100614        5.8035583134  W2        2294            0.0000000000
      6883      2295  TIP3      OH2             8.8354615875        7.2018200614       -4.3829716866  W2        2295            0.0000000000
      6884      2295  TIP3      H1              8.9245715875        8.1456400614       -4.5152616866  W2        2295            0.0000000000
      6885      2295  TIP3      H2              8.1972215875        6.9264600614       -5.0410316866  W2        2295            0.0000000000
      6886      2296  TIP3      OH2             7.7685915875        6.4568900614       -0.9641516866  W2        2296            0.0000000000
      6887      2296  TIP3      H1              7.7303415875        5.8105200614       -0.2591916866  W2        2296            0.0000000000
      6888      2296  TIP3      H2              7.4462415875        5.9903300614       -1.7352816866  W2        2296            0.0000000000
      6889      2297  TIP3      OH2             0.1370915875        6.0711000614        0.6288383134  W2        2297            0.0000000000
      6890      2297  TIP3      H1              0.1783015875        5.4454300614        1.3520783134  W2        2297            0.0000000000
      6891      2297  TIP3      H2              0.8398615875        6.6949600614        0.8108783134  W2        2297            0.0000000000
      6892      2298  TIP3      OH2            11.4746115875        9.3959300614       -2.6626416866  W2        2298            0.0000000000
      6893      2298  TIP3      H1             11.0338815875        8.6755300614       -2.2120816866  W2        2298            0.0000000000
      6894      2298  TIP3      H2             11.4615815875       10.1166500614       -2.0328716866  W2        2298            0.0000000000
      6895      2299  TIP3      OH2             1.0604015875       10.5209900614       -0.8362516866  W2        2299            0.0000000000
      6896      2299  TIP3      H1              0.6909215875        9.7190400614       -1.2058216866  W2        2299            0.0000000000
      6897      2299  TIP3      H2              2.0015115875       10.3524800614       -0.7899116866  W2        2299            0.0000000000
      6898      2300  TIP3      OH2            -2.3295484125        4.1812500614       -5.4433716866  W2        2300            0.0000000000
      6899      2300  TIP3      H1             -2.7772084125        5.0271200614       -5.4617216866  W2        2300            0.0000000000
      6900      2300  TIP3      H2             -2.8904284125        3.6016700614       -5.9588616866  W2        2300            0.0000000000
      6901      2301  TIP3      OH2            -1.6189384125        6.3432100614       -3.3175716866  W2        2301            0.0000000000
      6902      2301  TIP3      H1             -1.4055884125        5.5733700614       -2.7902716866  W2        2301            0.0000000000
      6903      2301  TIP3      H2             -0.8811784125        6.4328800614       -3.9208116866  W2        2301            0.0000000000
      6904      2302  TIP3      OH2             8.5861615875       14.5001000614       -2.4506016866  W2        2302            0.0000000000
      6905      2302  TIP3      H1              9.2058015875       13.8235700614       -2.7236816866  W2        2302            0.0000000000
      6906      2302  TIP3      H2              8.3779015875       14.2821800614       -1.5421116866  W2        2302            0.0000000000
      6907      2303  TIP3      OH2             6.1580315875        8.8890300614       -0.5580516866  W2        2303            0.0000000000
      6908      2303  TIP3      H1              6.4618215875        8.2031700614       -1.1526416866  W2        2303            0.0000000000
      6909      2303  TIP3      H2              6.8794315875        9.0079000614        0.0597483134  W2        2303            0.0000000000
      6910      2304  TIP3      OH2            14.8210115875        0.4905600614        0.3025683134  W2        2304            0.0000000000
      6911      2304  TIP3      H1             14.8702315875        1.1006800614        1.0384783134  W2        2304            0.0000000000
      6912      2304  TIP3      H2             15.2465215875        0.9516500614       -0.4203216866  W2        2304            0.0000000000
      6913      2305  TIP3      OH2             9.2987315875        3.2832700614       -0.2305716866  W2        2305            0.0000000000
      6914      2305  TIP3      H1              9.4413215875        2.3369700614       -0.2104116866  W2        2305            0.0000000000
      6915      2305  TIP3      H2              9.1926315875        3.4902500614       -1.1590816866  W2        2305            0.0000000000
      6916      2306  TIP3      OH2             2.4535615875        1.3849100614       -2.9580916866  W2        2306            0.0000000000
      6917      2306  TIP3      H1              2.4966715875        2.2447600614       -3.3764616866  W2        2306            0.0000000000
      6918      2306  TIP3      H2              1.9959715875        0.8323800614       -3.5917716866  W2        2306            0.0000000000
      6919      2307  TIP3      OH2            10.1758315875        1.5154700614       -4.5572616866  W2        2307            0.0000000000
      6920      2307  TIP3      H1             10.8222615875        1.1867900614       -3.9325016866  W2        2307            0.0000000000
      6921      2307  TIP3      H2             10.6857715875        2.0333700614       -5.1801216866  W2        2307            0.0000000000
      6922      2308  TIP3      OH2            -0.9262884125        3.7814900614       -2.1959516866  W2        2308            0.0000000000
      6923      2308  TIP3      H1             -0.2726284125        3.2316600614       -1.7639416866  W2        2308            0.0000000000
      6924      2308  TIP3      H2             -0.9023584125        3.5073900614       -3.1127516866  W2        2308            0.0000000000
      6925      2309  TIP3      OH2             4.2301615875        5.3316200614       -2.9808016866  W2        2309            0.0000000000
      6926      2309  TIP3      H1              4.8462615875        4.8051600614       -2.4714016866  W2        2309            0.0000000000
      6927      2309  TIP3      H2              3.6440415875        4.6914900614       -3.3844416866  W2        2309            0.0000000000
      6928      2310  TIP3      OH2            15.2124715875        1.9684800614        2.5385483134  W2        2310            0.0000000000
      6929      2310  TIP3      H1             14.5239315875        2.6265500614        2.4432083134  W2        2310            0.0000000000
      6930      2310  TIP3      H2             15.2279315875        1.7712700614        3.4750883134  W2        2310            0.0000000000
      6931      2311  TIP3      OH2             1.2637515875        0.3027500614        1.1159883134  W2        2311            0.0000000000
      6932      2311  TIP3      H1              1.0449215875        0.8328100614        0.3495883134  W2        2311            0.0000000000
      6933      2311  TIP3      H2              0.5958415875        0.5293000614        1.7631283134  W2        2311            0.0000000000
      6934      2312  TIP3      OH2             8.6327315875        9.8028600614       -5.3401016866  W2        2312            0.0000000000
      6935      2312  TIP3      H1              8.3372415875        9.4800900614       -6.1914116866  W2        2312            0.0000000000
      6936      2312  TIP3      H2              8.3085115875       10.7025300614       -5.2988416866  W2        2312            0.0000000000
      6937      2313  TIP3      OH2             3.8328915875        7.9783200614        1.4033583134  W2        2313            0.0000000000
      6938      2313  TIP3      H1              3.0928015875        8.5764700614        1.5068783134  W2        2313            0.0000000000
      6939      2313  TIP3      H2              4.5468415875        8.5322800614        1.0877183134  W2        2313            0.0000000000
      6940      2314  TIP3      OH2            11.9396715875        0.8064000614       -2.5766716866  W2        2314            0.0000000000
      6941      2314  TIP3      H1             11.7244715875        0.0407400614       -2.0440716866  W2        2314            0.0000000000
      6942      2314  TIP3      H2             12.5954115875        1.2788600614       -2.0638216866  W2        2314            0.0000000000
      6943      2315  TIP3      OH2             0.8574815875        2.1949300614       -0.9317916866  W2        2315            0.0000000000
      6944      2315  TIP3      H1              1.4711115875        2.8276900614       -0.5585516866  W2        2315            0.0000000000
      6945      2315  TIP3      H2              1.3695515875        1.7224300614       -1.5881016866  W2        2315            0.0000000000
      6946      2316  TIP3      OH2             2.2403215875        9.9426200614        2.1905083134  W2        2316            0.0000000000
      6947      2316  TIP3      H1              2.2350815875       10.8219700614        1.8124383134  W2        2316            0.0000000000
      6948      2316  TIP3      H2              1.3867315875        9.8590300614        2.6154983134  W2        2316            0.0000000000
      6949      2317  TIP3      OH2            -1.6385884125        9.6134100614       -7.0275616866  W2        2317            0.0000000000
      6950      2317  TIP3      H1             -1.9104984125        9.8425100614       -7.9162716866  W2        2317            0.0000000000
      6951      2317  TIP3      H2             -1.5930184125       10.4512900614       -6.5670316866  W2        2317            0.0000000000
      6952      2318  TIP3      OH2            11.9863815875       11.2350000614       -0.3147116866  W2        2318            0.0000000000
      6953      2318  TIP3      H1             11.0447515875       11.2933900614       -0.1530216866  W2        2318            0.0000000000
      6954      2318  TIP3      H2             12.2629915875       12.1410500614       -0.4517416866  W2        2318            0.0000000000
      6955      2319  TIP3      OH2            12.2870815875       -0.4784699386        1.1026783134  W2        2319            0.0000000000
      6956      2319  TIP3      H1             11.5510015875        0.1322400614        1.0648083134  W2        2319            0.0000000000
      6957      2319  TIP3      H2             12.9704815875       -0.0635699386        0.5763183134  W2        2319            0.0000000000
      6958      2320  TIP3      OH2             5.2902215875       -2.3917399386       -1.4315216866  W2        2320            0.0000000000
      6959      2320  TIP3      H1              5.1726415875       -3.3401399386       -1.4856916866  W2        2320            0.0000000000
      6960      2320  TIP3      H2              4.4352315875       -2.0591299386       -1.1584116866  W2        2320            0.0000000000
      6961      2321  TIP3      OH2            10.2385015875       13.0163500614       -3.6895516866  W2        2321            0.0000000000
      6962      2321  TIP3      H1             10.6637315875       12.3091400614       -4.1745916866  W2        2321            0.0000000000
      6963      2321  TIP3      H2             10.5555015875       13.8176200614       -4.1063316866  W2        2321            0.0000000000
      6964      2322  TIP3      OH2            11.3981515875       10.9172000614       -5.1808916866  W2        2322            0.0000000000
      6965      2322  TIP3      H1             11.1406315875       10.2272100614       -5.7923016866  W2        2322            0.0000000000
      6966      2322  TIP3      H2             11.4692315875       10.4743200614       -4.3353016866  W2        2322            0.0000000000
      6967      2323  TIP3      OH2            13.0841715875        9.4838700614        3.2964583134  W2        2323            0.0000000000
      6968      2323  TIP3      H1             13.2238015875        8.8921200614        2.5571583134  W2        2323            0.0000000000
      6969      2323  TIP3      H2             13.2514515875       10.3564600614        2.9403383134  W2        2323            0.0000000000
      6970      2324  TIP3      OH2             7.5567115875        6.4458200614       -6.9309416866  W2        2324            0.0000000000
      6971      2324  TIP3      H1              6.8452615875        6.9807900614       -7.2828916866  W2        2324            0.0000000000
      6972      2324  TIP3      H2              8.2476715875        6.5010300614       -7.5910516866  W2        2324            0.0000000000
      6973      2325  TIP3      OH2             7.6106315875        4.9032500614       -9.8924416866  W2        2325            0.0000000000
      6974      2325  TIP3      H1              8.3116215875        4.9259400614       -9.2410416866  W2        2325            0.0000000000
      6975      2325  TIP3      H2              7.9129215875        4.2752200614      -10.5485116866  W2        2325            0.0000000000
      6976      2326  TIP3      OH2            14.9261015875        5.8236700614        1.3624983134  W2        2326            0.0000000000
      6977      2326  TIP3      H1             14.2735115875        6.5182300614        1.4515883134  W2        2326            0.0000000000
      6978      2326  TIP3      H2             15.3911315875        6.0337600614        0.5526583134  W2        2326            0.0000000000
      6979      2327  TIP3      OH2            10.9624815875        6.6551500614       -5.9793516866  W2        2327            0.0000000000
      6980      2327  TIP3      H1             10.2305815875        6.8835200614       -5.4062916866  W2        2327            0.0000000000
      6981      2327  TIP3      H2             11.4097015875        5.9414200614       -5.5246016866  W2        2327            0.0000000000
      6982      2328  TIP3      OH2            10.8598315875        4.8294100614        3.0883483134  W2        2328            0.0000000000
      6983      2328  TIP3      H1             10.9397415875        5.5928500614        3.6601983134  W2        2328            0.0000000000
      6984      2328  TIP3      H2             10.2586015875        5.1086500614        2.3978583134  W2        2328            0.0000000000
      6985      2329  TIP3      OH2             2.6078515875        7.2857700614       -4.0968516866  W2        2329            0.0000000000
      6986      2329  TIP3      H1              2.2773715875        6.9151100614       -4.9151516866  W2        2329            0.0000000000
      6987      2329  TIP3      H2              3.1962615875        6.6151700614       -3.7500216866  W2        2329            0.0000000000
      6988      2330  TIP3      OH2             3.9746015875       10.7138300614       -1.4156316866  W2        2330            0.0000000000
      6989      2330  TIP3      H1              3.8797315875       10.1351400614       -2.1721716866  W2        2330            0.0000000000
      6990      2330  TIP3      H2              4.7039615875       10.3424000614       -0.9193516866  W2        2330            0.0000000000
      6991      2331  TIP3      OH2             2.9744015875        6.0543300614       -0.4633516866  W2        2331            0.0000000000
      6992      2331  TIP3      H1              3.5396515875        6.1757500614       -1.2262316866  W2        2331            0.0000000000
      6993      2331  TIP3      H2              3.2932915875        6.6918300614        0.1754983134  W2        2331            0.0000000000
      6994      2332  TIP3      OH2             9.2836215875       11.5575200614        0.2706983134  W2        2332            0.0000000000
      6995      2332  TIP3      H1              9.0432815875       12.2198300614        0.9186183134  W2        2332            0.0000000000
      6996      2332  TIP3      H2              9.0854415875       10.7230400614        0.6956583134  W2        2332            0.0000000000
      6997      2333  TIP3      OH2             3.8544715875       10.4536000614        4.2538383134  W2        2333            0.0000000000
      6998      2333  TIP3      H1              3.5432215875       11.2359200614        4.7091583134  W2        2333            0.0000000000
      6999      2333  TIP3      H2              3.2044915875       10.3005100614        3.5680383134  W2        2333            0.0000000000
      7000      2334  TIP3      OH2             9.8334315875        5.8174400614       -8.2942316866  W2        2334            0.0000000000
      7001      2334  TIP3      H1             10.4129815875        5.9674700614       -7.5473416866  W2        2334            0.0000000000
      7002      2334  TIP3      H2             10.2474315875        6.2881800614       -9.0175916866  W2        2334            0.0000000000
      7003      2335  TIP3      OH2             0.7744615875        6.6517100614        3.4824083134  W2        2335            0.0000000000
      7004      2335  TIP3      H1              0.8447815875        7.3023900614        4.1809083134  W2        2335            0.0000000000
      7005      2335  TIP3      H2             -0.1163184125        6.7544600614        3.1474983134  W2        2335            0.0000000000
      7006      2336  TIP3      OH2             7.5599215875       12.5542900614       -4.8589216866  W2        2336            0.0000000000
      7007      2336  TIP3      H1              8.0336815875       12.8499200614       -4.0815016866  W2        2336            0.0000000000
      7008      2336  TIP3      H2              6.9968515875       13.2924500614       -5.0919616866  W2        2336            0.0000000000
      7009      2337  TIP3      OH2             2.0940615875       12.5251000614        5.0172183134  W2        2337            0.0000000000
      7010      2337  TIP3      H1              2.1015915875       12.3890700614        4.0697683134  W2        2337            0.0000000000
      7011      2337  TIP3      H2              1.1781015875       12.4079100614        5.2692183134  W2        2337            0.0000000000
      7012      2338  TIP3      OH2            13.5322715875       -2.4325199386       -8.4812616866  W2        2338            0.0000000000
      7013      2338  TIP3      H1             12.6323415875       -2.2936199386       -8.1862016866  W2        2338            0.0000000000
      7014      2338  TIP3      H2             13.7841115875       -1.6010599386       -8.8830916866  W2        2338            0.0000000000
      7015      2339  TIP3      OH2             1.5981215875        6.3552000614       -6.5075716866  W2        2339            0.0000000000
      7016      2339  TIP3      H1              1.3062515875        7.1233700614       -6.9984416866  W2        2339            0.0000000000
      7017      2339  TIP3      H2              0.9236415875        5.6958200614       -6.6704316866  W2        2339            0.0000000000
      7018      2340  TIP3      OH2            14.7214115875       11.9337200614      -10.1048716866  W2        2340            0.0000000000
      7019      2340  TIP3      H1             14.7947615875       12.8727400614       -9.9343416866  W2        2340            0.0000000000
      7020      2340  TIP3      H2             15.6269215875       11.6285800614      -10.1611416866  W2        2340            0.0000000000
      7021      2341  TIP3      OH2            -2.3088684125        8.7181200614        2.3074083134  W2        2341            0.0000000000
      7022      2341  TIP3      H1             -2.8100284125        8.6900600614        1.4923783134  W2        2341            0.0000000000
      7023      2341  TIP3      H2             -2.3034984125        7.8124400614        2.6171383134  W2        2341            0.0000000000
      7024      2342  TIP3      OH2            -2.5585984125       11.4985000614       -0.8085716866  W2        2342            0.0000000000
      7025      2342  TIP3      H1             -1.6125384125       11.3542000614       -0.8276216866  W2        2342            0.0000000000
      7026      2342  TIP3      H2             -2.6709684125       12.2827800614       -0.2714516866  W2        2342            0.0000000000
      7027      2343  TIP3      OH2            15.6392515875       12.1644700614        4.8737983134  W2        2343            0.0000000000
      7028      2343  TIP3      H1             15.5899315875       11.2092800614        4.8365583134  W2        2343            0.0000000000
      7029      2343  TIP3      H2             14.8124815875       12.4320000614        5.2751783134  W2        2343            0.0000000000
      7030      2344  TIP3      OH2             6.6176515875       11.7383900614        3.7499383134  W2        2344            0.0000000000
      7031      2344  TIP3      H1              6.7051115875       12.5648500614        4.2248483134  W2        2344            0.0000000000
      7032      2344  TIP3      H2              5.7541615875       11.4087700614        3.9988683134  W2        2344            0.0000000000
      7033      2345  TIP3      OH2             7.0322315875       15.5107600614       -6.4440016866  W2        2345            0.0000000000
      7034      2345  TIP3      H1              6.9568315875       15.3894800614       -7.3904816866  W2        2345            0.0000000000
      7035      2345  TIP3      H2              7.0651015875       16.4600300614       -6.3255416866  W2        2345            0.0000000000
      7036      2346  TIP3      OH2             0.6856115875       14.2994600614       -4.6631016866  W2        2346            0.0000000000
      7037      2346  TIP3      H1              0.8376515875       13.9515000614       -3.7844516866  W2        2346            0.0000000000
      7038      2346  TIP3      H2             -0.1653484125       13.9431900614       -4.9183816866  W2        2346            0.0000000000
      7039      2347  TIP3      OH2            10.1338315875       14.6647800614       -9.4417616866  W2        2347            0.0000000000
      7040      2347  TIP3      H1             10.5086715875       13.9203900614       -9.9125016866  W2        2347            0.0000000000
      7041      2347  TIP3      H2             10.1382015875       14.3948400614       -8.5234316866  W2        2347            0.0000000000
      7042      2348  TIP3      OH2             9.8026415875       14.5904900614       -6.6925416866  W2        2348            0.0000000000
      7043      2348  TIP3      H1              8.8676215875       14.6906800614       -6.5138416866  W2        2348            0.0000000000
      7044      2348  TIP3      H2             10.0828315875       13.8810900614       -6.1142216866  W2        2348            0.0000000000
      7045      2349  TIP3      OH2            12.7912315875        3.6577200614        5.3540183134  W2        2349            0.0000000000
      7046      2349  TIP3      H1             12.3839115875        4.1382800614        4.6333483134  W2        2349            0.0000000000
      7047      2349  TIP3      H2             12.8318015875        2.7523200614        5.0460983134  W2        2349            0.0000000000
      7048      2350  TIP3      OH2            -0.0598184125       10.0416600614        3.3506883134  W2        2350            0.0000000000
      7049      2350  TIP3      H1              0.1563115875        9.6802200614        4.2102683134  W2        2350            0.0000000000
      7050      2350  TIP3      H2             -0.9153484125        9.6670400614        3.1410383134  W2        2350            0.0000000000
      7051      2351  TIP3      OH2             2.5589815875       -1.4882899386       -0.6538916866  W2        2351            0.0000000000
      7052      2351  TIP3      H1              1.6973515875       -1.5754699386       -1.0616016866  W2        2351            0.0000000000
      7053      2351  TIP3      H2              2.5365515875       -0.6322799386       -0.2261316866  W2        2351            0.0000000000
      7054      2352  TIP3      OH2             7.2217615875       -1.7662499386        2.7208083134  W2        2352            0.0000000000
      7055      2352  TIP3      H1              7.6420715875       -2.1815399386        3.4738683134  W2        2352            0.0000000000
      7056      2352  TIP3      H2              6.2887215875       -1.9449199386        2.8380083134  W2        2352            0.0000000000
      7057      2353  TIP3      OH2            10.5482515875        1.9892700614        3.5742583134  W2        2353            0.0000000000
      7058      2353  TIP3      H1             10.0342015875        1.8634900614        4.3718583134  W2        2353            0.0000000000
      7059      2353  TIP3      H2             10.3927215875        2.9015800614        3.3298783134  W2        2353            0.0000000000
      7060      2354  TIP3      OH2            11.3107415875        6.8502700614      -10.6644416866  W2        2354            0.0000000000
      7061      2354  TIP3      H1             11.3528215875        6.6276600614      -11.5944416866  W2        2354            0.0000000000
      7062      2354  TIP3      H2             12.1599515875        7.2489800614      -10.4744516866  W2        2354            0.0000000000
      7063      2355  TIP3      OH2             6.8834915875        0.7260900614       -9.9941116866  W2        2355            0.0000000000
      7064      2355  TIP3      H1              6.6299715875        0.7452500614       -9.0713016866  W2        2355            0.0000000000
      7065      2355  TIP3      H2              6.6267015875       -0.1453699386      -10.2954916866  W2        2355            0.0000000000
      7066      2356  TIP3      OH2             2.6499915875        3.4771600614        0.4411283134  W2        2356            0.0000000000
      7067      2356  TIP3      H1              2.0082015875        3.4368900614        1.1501383134  W2        2356            0.0000000000
      7068      2356  TIP3      H2              2.6871915875        4.4036300614        0.2034283134  W2        2356            0.0000000000
      7069      2357  TIP3      OH2             2.6469015875        3.6981700614       -4.6468716866  W2        2357            0.0000000000
      7070      2357  TIP3      H1              1.7541915875        3.3577800614       -4.7054916866  W2        2357            0.0000000000
      7071      2357  TIP3      H2              3.0975615875        3.3212600614       -5.4025516866  W2        2357            0.0000000000
      7072      2358  TIP3      OH2             8.1824515875        4.1142000614       -5.8297916866  W2        2358            0.0000000000
      7073      2358  TIP3      H1              7.7734815875        4.9290600614       -6.1213116866  W2        2358            0.0000000000
      7074      2358  TIP3      H2              8.9030715875        3.9742100614       -6.4440816866  W2        2358            0.0000000000
      7075      2359  TIP3      OH2             7.2846115875        4.2898400614        5.6582783134  W2        2359            0.0000000000
      7076      2359  TIP3      H1              6.7219915875        3.5850000614        5.9790583134  W2        2359            0.0000000000
      7077      2359  TIP3      H2              8.1109515875        4.1690300614        6.1260383134  W2        2359            0.0000000000
      7078      2360  TIP3      OH2             9.1872215875        3.5602400614       -3.0158216866  W2        2360            0.0000000000
      7079      2360  TIP3      H1              8.9916715875        4.1659200614       -3.7307616866  W2        2360            0.0000000000
      7080      2360  TIP3      H2              9.3684815875        2.7267600614       -3.4501916866  W2        2360            0.0000000000
      7081      2361  TIP3      OH2             0.4000415875        3.7975100614        2.3083283134  W2        2361            0.0000000000
      7082      2361  TIP3      H1              0.3619815875        4.1976700614        3.1770383134  W2        2361            0.0000000000
      7083      2361  TIP3      H2             -0.0908484125        2.9807500614        2.3986183134  W2        2361            0.0000000000
      7084      2362  TIP3      OH2             3.7657815875        1.1717400614      -10.8930716866  W2        2362            0.0000000000
      7085      2362  TIP3      H1              3.3348515875        0.7267500614      -10.1633316866  W2        2362            0.0000000000
      7086      2362  TIP3      H2              3.0476515875        1.5433700614      -11.4053216866  W2        2362            0.0000000000
      7087      2363  TIP3      OH2            -2.9918784125        0.9136900614       -3.8412016866  W2        2363            0.0000000000
      7088      2363  TIP3      H1             -2.3611084125        0.8849000614       -3.1218116866  W2        2363            0.0000000000
      7089      2363  TIP3      H2             -2.5424484125        0.4885600614       -4.5716116866  W2        2363            0.0000000000
      7090      2364  TIP3      OH2            -1.7176684125        1.6598900614       -8.4171616866  W2        2364            0.0000000000
      7091      2364  TIP3      H1             -1.2434984125        2.2508800614       -9.0020716866  W2        2364            0.0000000000
      7092      2364  TIP3      H2             -2.4350284125        2.1901800614       -8.0701516866  W2        2364            0.0000000000
      7093      2365  TIP3      OH2             8.4511415875        5.1983700614        1.6554183134  W2        2365            0.0000000000
      7094      2365  TIP3      H1              8.7746215875        4.5673400614        1.0124683134  W2        2365            0.0000000000
      7095      2365  TIP3      H2              8.0110715875        4.6635900614        2.3161583134  W2        2365            0.0000000000
      7096      2366  TIP3      OH2             5.2284315875        1.1259200614       -3.5604616866  W2        2366            0.0000000000
      7097      2366  TIP3      H1              4.3175415875        1.1826000614       -3.2718616866  W2        2366            0.0000000000
      7098      2366  TIP3      H2              5.7337215875        1.0654700614       -2.7497416866  W2        2366            0.0000000000
      7099      2367  TIP3      OH2             0.0567715875        2.7545500614       -4.7337016866  W2        2367            0.0000000000
      7100      2367  TIP3      H1             -0.8324284125        2.8541000614       -5.0737416866  W2        2367            0.0000000000
      7101      2367  TIP3      H2              0.3532615875        1.9128500614       -5.0799116866  W2        2367            0.0000000000
      7102      2368  TIP3      OH2             3.7099515875        2.7548100614       -7.0772416866  W2        2368            0.0000000000
      7103      2368  TIP3      H1              4.6415015875        2.8838100614       -6.8989316866  W2        2368            0.0000000000
      7104      2368  TIP3      H2              3.4949815875        3.4242400614       -7.7267716866  W2        2368            0.0000000000
      7105      2369  TIP3      OH2             9.6336215875        0.3605500614       -0.2962816866  W2        2369            0.0000000000
      7106      2369  TIP3      H1              8.9567815875        0.4918600614        0.3676883134  W2        2369            0.0000000000
      7107      2369  TIP3      H2              9.1481115875        0.2055000614       -1.1065116866  W2        2369            0.0000000000
      7108      2370  TIP3      OH2             2.3839715875        3.9490300614       -9.5106316866  W2        2370            0.0000000000
      7109      2370  TIP3      H1              1.8414815875        3.5694100614      -10.2018716866  W2        2370            0.0000000000
      7110      2370  TIP3      H2              3.2174615875        4.1435000614       -9.9392216866  W2        2370            0.0000000000
      7111      2371  TIP3      OH2            12.9211315875       16.0320900614        5.9804783134  W2        2371            0.0000000000
      7112      2371  TIP3      H1             13.1210015875       16.4562800614        5.1460083134  W2        2371            0.0000000000
      7113      2371  TIP3      H2             13.5765015875       16.3759100614        6.5875183134  W2        2371            0.0000000000
      7114      2372  TIP3      OH2             0.5191115875        8.5062200614        5.5885283134  W2        2372            0.0000000000
      7115      2372  TIP3      H1              1.2513515875        8.7608100614        6.1499783134  W2        2372            0.0000000000
      7116      2372  TIP3      H2             -0.2610184125        8.7107600614        6.1040683134  W2        2372            0.0000000000
      7117      2373  TIP3      OH2             6.5484015875        3.9132200614       -1.6735016866  W2        2373            0.0000000000
      7118      2373  TIP3      H1              7.1127415875        3.3668800614       -2.2205416866  W2        2373            0.0000000000
      7119      2373  TIP3      H2              6.4007415875        3.3914100614       -0.8847416866  W2        2373            0.0000000000
      7120      2374  TIP3      OH2             1.5503715875        0.0498300614       -5.2550216866  W2        2374            0.0000000000
      7121      2374  TIP3      H1              1.2333215875       -0.8526399386       -5.2904816866  W2        2374            0.0000000000
      7122      2374  TIP3      H2              2.3317815875        0.0515700614       -5.8078616866  W2        2374            0.0000000000
      7123      2375  TIP3      OH2             5.1749915875        2.3018300614        0.7405383134  W2        2375            0.0000000000
      7124      2375  TIP3      H1              4.3395215875        2.7557800614        0.8507783134  W2        2375            0.0000000000
      7125      2375  TIP3      H2              5.6990515875        2.5776800614        1.4925283134  W2        2375            0.0000000000
      7126      2376  TIP3      OH2             5.7192515875        8.5146000614       -7.5748216866  W2        2376            0.0000000000
      7127      2376  TIP3      H1              4.9743515875        8.0071300614       -7.8970316866  W2        2376            0.0000000000
      7128      2376  TIP3      H2              5.5849715875        8.5634000614       -6.6283416866  W2        2376            0.0000000000
      7129      2377  TIP3      OH2            12.8691415875        7.6474200614        1.2119383134  W2        2377            0.0000000000
      7130      2377  TIP3      H1             13.5110215875        8.1040500614        0.6681583134  W2        2377            0.0000000000
      7131      2377  TIP3      H2             12.0388315875        7.7606600614        0.7493483134  W2        2377            0.0000000000
      7132      2378  TIP3      OH2             9.6169315875        1.3285900614       -9.3755616866  W2        2378            0.0000000000
      7133      2378  TIP3      H1              8.6783515875        1.4401500614       -9.5266816866  W2        2378            0.0000000000
      7134      2378  TIP3      H2              9.9141415875        2.1852800614       -9.0689916866  W2        2378            0.0000000000
      7135      2379  TIP3      OH2             7.2384615875        8.6989300614        3.6620883134  W2        2379            0.0000000000
      7136      2379  TIP3      H1              6.8930715875        8.3171700614        4.4690483134  W2        2379            0.0000000000
      7137      2379  TIP3      H2              7.0384715875        9.6322900614        3.7333783134  W2        2379            0.0000000000
      7138      2380  TIP3      OH2            10.3352815875        3.1958600614       -7.7148216866  W2        2380            0.0000000000
      7139      2380  TIP3      H1             11.2271815875        3.0583600614       -7.3957016866  W2        2380            0.0000000000
      7140      2380  TIP3      H2             10.3916415875        3.9864700614       -8.2514716866  W2        2380            0.0000000000
      7141      2381  TIP3      OH2             0.8440815875        7.8096000614       -1.8050316866  W2        2381            0.0000000000
      7142      2381  TIP3      H1              1.5888015875        7.8071700614       -2.4063816866  W2        2381            0.0000000000
      7143      2381  TIP3      H2              0.9217415875        6.9859800614       -1.3235216866  W2        2381            0.0000000000
      7144      2382  TIP3      OH2             7.8446615875        9.9730300614       -8.5493616866  W2        2382            0.0000000000
      7145      2382  TIP3      H1              7.5495015875       10.7998200614       -8.1678816866  W2        2382            0.0000000000
      7146      2382  TIP3      H2              7.1416615875        9.3537200614       -8.3532216866  W2        2382            0.0000000000
      7147      2383  TIP3      OH2            -2.1479484125        6.2702900614        3.5098183134  W2        2383            0.0000000000
      7148      2383  TIP3      H1             -1.9250884125        5.8522500614        4.3415683134  W2        2383            0.0000000000
      7149      2383  TIP3      H2             -2.7499384125        5.6577900614        3.0870983134  W2        2383            0.0000000000
      7150      2384  TIP3      OH2             4.8685415875        5.7872800614        5.7227883134  W2        2384            0.0000000000
      7151      2384  TIP3      H1              4.5726215875        5.6215800614        4.8276983134  W2        2384            0.0000000000
      7152      2384  TIP3      H2              5.8000615875        5.5673100614        5.7121783134  W2        2384            0.0000000000
      7153      2385  TIP3      OH2             9.4888215875       11.1604800614        3.6125883134  W2        2385            0.0000000000
      7154      2385  TIP3      H1              8.5882515875       11.3437400614        3.3449783134  W2        2385            0.0000000000
      7155      2385  TIP3      H2              9.5229315875       11.4194100614        4.5334683134  W2        2385            0.0000000000
      7156      2386  TIP3      OH2            15.2201515875        3.4052700614       -8.0201516866  W2        2386            0.0000000000
      7157      2386  TIP3      H1             14.6657815875        3.0090700614       -8.6924016866  W2        2386            0.0000000000
      7158      2386  TIP3      H2             15.3205115875        4.3157900614       -8.2978216866  W2        2386            0.0000000000
      7159      2387  TIP3      OH2            15.1833515875        9.2054400614        4.8169983134  W2        2387            0.0000000000
      7160      2387  TIP3      H1             14.3322015875        9.4438200614        4.4496383134  W2        2387            0.0000000000
      7161      2387  TIP3      H2             15.7736915875        9.1887600614        4.0637083134  W2        2387            0.0000000000
      7162      2388  TIP3      OH2            13.5153215875       12.1913100614       -7.5549416866  W2        2388            0.0000000000
      7163      2388  TIP3      H1             13.1424315875       11.3656900614       -7.2458816866  W2        2388            0.0000000000
      7164      2388  TIP3      H2             13.7926715875       12.0082500614       -8.4526016866  W2        2388            0.0000000000
      7165      2389  TIP3      OH2            10.6757115875        6.9992600614       -0.5337516866  W2        2389            0.0000000000
      7166      2389  TIP3      H1              9.7474015875        6.7674500614       -0.5608216866  W2        2389            0.0000000000
      7167      2389  TIP3      H2             11.1268215875        6.2222400614       -0.8638716866  W2        2389            0.0000000000
      7168      2390  TIP3      OH2             3.2190215875       11.3274200614       -4.4008816866  W2        2390            0.0000000000
      7169      2390  TIP3      H1              3.7462415875       12.1008600614       -4.6010016866  W2        2390            0.0000000000
      7170      2390  TIP3      H2              2.3388715875       11.5523400614       -4.7024816866  W2        2390            0.0000000000
      7171      2391  TIP3      OH2            -1.0262084125        6.1898300614       -9.8136416866  W2        2391            0.0000000000
      7172      2391  TIP3      H1             -0.4102184125        6.8165500614       -9.4341616866  W2        2391            0.0000000000
      7173      2391  TIP3      H2             -1.8879484125        6.5058100614       -9.5419916866  W2        2391            0.0000000000
      7174      2392  TIP3      OH2             4.6462515875        8.9904100614       -4.8244516866  W2        2392            0.0000000000
      7175      2392  TIP3      H1              4.4052515875        9.9158500614       -4.7829216866  W2        2392            0.0000000000
      7176      2392  TIP3      H2              3.9056115875        8.5315400614       -4.4280616866  W2        2392            0.0000000000
      7177      2393  TIP3      OH2             5.1609115875       13.1397700614        1.4906583134  W2        2393            0.0000000000
      7178      2393  TIP3      H1              5.5233815875       13.9943300614        1.2570983134  W2        2393            0.0000000000
      7179      2393  TIP3      H2              5.6924315875       12.8479300614        2.2312883134  W2        2393            0.0000000000
      7180      2394  TIP3      OH2             3.3293315875       14.0121700614       -5.2792316866  W2        2394            0.0000000000
      7181      2394  TIP3      H1              2.3793815875       14.1179100614       -5.2279016866  W2        2394            0.0000000000
      7182      2394  TIP3      H2              3.6811415875       14.8329100614       -4.9344816866  W2        2394            0.0000000000
      7183      2395  TIP3      OH2             8.7049915875        9.2388400614        1.1912183134  W2        2395            0.0000000000
      7184      2395  TIP3      H1              8.2791215875        9.0110100614        2.0176183134  W2        2395            0.0000000000
      7185      2395  TIP3      H2              9.2855715875        8.5000200614        1.0087483134  W2        2395            0.0000000000
      7186      2396  TIP3      OH2            10.9078815875       10.1678900614       -9.7348816866  W2        2396            0.0000000000
      7187      2396  TIP3      H1             11.2611915875        9.7878700614       -8.9305316866  W2        2396            0.0000000000
      7188      2396  TIP3      H2              9.9592315875       10.0743700614       -9.6479516866  W2        2396            0.0000000000
      7189      2397  TIP3      OH2            11.3634115875       13.7907900614        3.6606983134  W2        2397            0.0000000000
      7190      2397  TIP3      H1             10.7617315875       13.2350800614        3.1653283134  W2        2397            0.0000000000
      7191      2397  TIP3      H2             11.6447815875       14.4577700614        3.0344383134  W2        2397            0.0000000000
      7192      2398  TIP3      OH2            15.4113215875       14.6471400614       -9.5338616866  W2        2398            0.0000000000
      7193      2398  TIP3      H1             16.1551115875       15.2331900614       -9.6737016866  W2        2398            0.0000000000
      7194      2398  TIP3      H2             14.7171315875       15.2157200614       -9.2006216866  W2        2398            0.0000000000
      7195      2399  TIP3      OH2            -0.5139984125        1.0235600614        3.0679583134  W2        2399            0.0000000000
      7196      2399  TIP3      H1             -1.4067684125        1.3621000614        3.0003583134  W2        2399            0.0000000000
      7197      2399  TIP3      H2             -0.6127184125        0.1681700614        3.4860383134  W2        2399            0.0000000000
      7198      2400  TIP3      OH2            11.7738115875        8.8400900614       -7.5080916866  W2        2400            0.0000000000
      7199      2400  TIP3      H1             11.4965715875        8.1120200614       -6.9519816866  W2        2400            0.0000000000
      7200      2400  TIP3      H2             12.7011115875        8.9592900614       -7.3028316866  W2        2400            0.0000000000
      7201      2401  TIP3      OH2            -0.8627984125       12.8280000614        1.5028983134  W2        2401            0.0000000000
      7202      2401  TIP3      H1             -0.6457684125       11.8962400614        1.4718683134  W2        2401            0.0000000000
      7203      2401  TIP3      H2             -0.6164484125       13.1025000614        2.3861783134  W2        2401            0.0000000000
      7204      2402  TIP3      OH2             4.9986615875       11.2795000614      -11.2878816866  W2        2402            0.0000000000
      7205      2402  TIP3      H1              5.2376415875       10.5313100614      -11.8349916866  W2        2402            0.0000000000
      7206      2402  TIP3      H2              4.7297915875       10.8916700614      -10.4551016866  W2        2402            0.0000000000
      7207      2403  TIP3      OH2             3.9357215875       10.8498800614       -8.8316216866  W2        2403            0.0000000000
      7208      2403  TIP3      H1              4.0825215875       10.3298600614       -8.0415316866  W2        2403            0.0000000000
      7209      2403  TIP3      H2              3.9328915875       11.7566400614       -8.5250316866  W2        2403            0.0000000000
      7210      2404  TIP3      OH2             0.3888315875        8.1022100614       -8.3210816866  W2        2404            0.0000000000
      7211      2404  TIP3      H1             -0.2972384125        8.4544600614       -7.7541116866  W2        2404            0.0000000000
      7212      2404  TIP3      H2              0.9116215875        8.8651700614       -8.5676516866  W2        2404            0.0000000000
      7213      2405  TIP3      OH2             8.2203415875        0.7645900614        1.9578183134  W2        2405            0.0000000000
      7214      2405  TIP3      H1              8.9191315875        0.8384600614        2.6077883134  W2        2405            0.0000000000
      7215      2405  TIP3      H2              7.8394815875       -0.0999099386        2.1121083134  W2        2405            0.0000000000
      7216      2406  TIP3      OH2             9.0048315875        0.4167600614       -6.9449516866  W2        2406            0.0000000000
      7217      2406  TIP3      H1              9.2246615875        0.8883000614       -7.7484116866  W2        2406            0.0000000000
      7218      2406  TIP3      H2              9.5632315875        0.8110200614       -6.2748916866  W2        2406            0.0000000000
      7219      2407  TIP3      OH2             6.6734415875       12.5472400614       -8.0822016866  W2        2407            0.0000000000
      7220      2407  TIP3      H1              5.8570515875       13.0442100614       -8.0297716866  W2        2407            0.0000000000
      7221      2407  TIP3      H2              7.2030715875       13.0225900614       -8.7223216866  W2        2407            0.0000000000
      7222      2408  TIP3      OH2             6.2048215875        2.1446400614       -6.1101116866  W2        2408            0.0000000000
      7223      2408  TIP3      H1              7.0170815875        2.6489600614       -6.0639416866  W2        2408            0.0000000000
      7224      2408  TIP3      H2              5.9601215875        1.9996100614       -5.1961516866  W2        2408            0.0000000000
      7225      2409  TIP3      OH2             6.7404615875        3.1309100614        3.0745483134  W2        2409            0.0000000000
      7226      2409  TIP3      H1              6.8594915875        3.7044500614        3.8315883134  W2        2409            0.0000000000
      7227      2409  TIP3      H2              7.3959215875        2.4428500614        3.1893283134  W2        2409            0.0000000000
      7228      2410  TIP3      OH2             7.0884915875       -0.7740599386       -5.1720016866  W2        2410            0.0000000000
      7229      2410  TIP3      H1              6.7418415875       -0.1569999386       -4.5275716866  W2        2410            0.0000000000
      7230      2410  TIP3      H2              7.7471815875       -0.2734899386       -5.6534516866  W2        2410            0.0000000000
      7231      2411  TIP3      OH2             4.0117515875       13.5909600614       -8.1005116866  W2        2411            0.0000000000
      7232      2411  TIP3      H1              4.1726215875       14.3907100614       -8.6012516866  W2        2411            0.0000000000
      7233      2411  TIP3      H2              3.8145315875       13.8975600614       -7.2154516866  W2        2411            0.0000000000
      7234      2412  TIP3      OH2             2.7461915875        0.2888800614       -8.4847516866  W2        2412            0.0000000000
      7235      2412  TIP3      H1              2.6626715875        1.1771900614       -8.1381116866  W2        2412            0.0000000000
      7236      2412  TIP3      H2              3.6362215875        0.0235500614       -8.2530716866  W2        2412            0.0000000000
      7237      2413  TIP3      OH2            12.9450415875        1.0379400614        3.9095183134  W2        2413            0.0000000000
      7238      2413  TIP3      H1             12.0286215875        1.3001100614        3.8218883134  W2        2413            0.0000000000
      7239      2413  TIP3      H2             13.2805415875        1.0348400614        3.0130483134  W2        2413            0.0000000000
      7240      2414  TIP3      OH2            11.5471415875        4.7880400614       -1.9947516866  W2        2414            0.0000000000
      7241      2414  TIP3      H1             10.7495815875        4.3730600614       -2.3232516866  W2        2414            0.0000000000
      7242      2414  TIP3      H2             11.9922515875        4.0974100614       -1.5037016866  W2        2414            0.0000000000
      7243      2415  TIP3      OH2             1.0047215875       10.7161000614       -9.4243016866  W2        2415            0.0000000000
      7244      2415  TIP3      H1              1.5968715875       11.4155800614       -9.1480616866  W2        2415            0.0000000000
      7245      2415  TIP3      H2              1.4640215875       10.2830500614      -10.1438416866  W2        2415            0.0000000000
      7246      2416  TIP3      OH2            -0.6793584125        3.3804000614      -10.3083616866  W2        2416            0.0000000000
      7247      2416  TIP3      H1             -0.7240984125        4.3197100614      -10.1296616866  W2        2416            0.0000000000
      7248      2416  TIP3      H2             -1.5670384125        3.1448900614      -10.5781516866  W2        2416            0.0000000000
      7249      2417  TIP3      OH2            12.6336015875       14.0442900614       -0.3724016866  W2        2417            0.0000000000
      7250      2417  TIP3      H1             12.4780315875       14.7227300614       -1.0294716866  W2        2417            0.0000000000
      7251      2417  TIP3      H2             13.5662415875       14.1162200614       -0.1693416866  W2        2417            0.0000000000
      7252      2418  TIP3      OH2             0.1288415875       -1.8379399386       -1.6352616866  W2        2418            0.0000000000
      7253      2418  TIP3      H1             -0.1001784125       -1.7786899386       -2.5627616866  W2        2418            0.0000000000
      7254      2418  TIP3      H2             -0.3138184125       -2.6293899386       -1.3288516866  W2        2418            0.0000000000
      7255      2419  TIP3      OH2            -0.9408284125       12.1027700614       -5.4746816866  W2        2419            0.0000000000
      7256      2419  TIP3      H1             -1.7729684125       12.5750400614       -5.4475416866  W2        2419            0.0000000000
      7257      2419  TIP3      H2             -0.3949984125       12.6125300614       -6.0733716866  W2        2419            0.0000000000
      7258      2420  TIP3      OH2            -1.6524584125       14.7151400614        5.8551183134  W2        2420            0.0000000000
      7259      2420  TIP3      H1             -1.1122384125       14.4985400614        6.6150383134  W2        2420            0.0000000000
      7260      2420  TIP3      H2             -2.1336584125       13.9097400614        5.6653683134  W2        2420            0.0000000000
      7261      2421  TIP3      OH2             2.9448815875       13.6345800614        7.4755383134  W2        2421            0.0000000000
      7262      2421  TIP3      H1              3.7126015875       13.1756600614        7.8164583134  W2        2421            0.0000000000
      7263      2421  TIP3      H2              2.9235015875       13.4085600614        6.5456583134  W2        2421            0.0000000000
      7264      2422  TIP3      OH2             7.0368415875       13.1426400614      -11.1492816866  W2        2422            0.0000000000
      7265      2422  TIP3      H1              6.3929415875       12.5115000614      -10.8279116866  W2        2422            0.0000000000
      7266      2422  TIP3      H2              7.7986715875       12.6114400614      -11.3809316866  W2        2422            0.0000000000
      7267      2423  TIP3      OH2             9.5217515875       12.0146900614        6.2046883134  W2        2423            0.0000000000
      7268      2423  TIP3      H1              9.1707015875       11.1579900614        6.4477283134  W2        2423            0.0000000000
      7269      2423  TIP3      H2             10.2480715875       12.1573600614        6.8115883134  W2        2423            0.0000000000
      7270      2424  TIP3      OH2            11.6411315875       12.9596300614      -10.9154816866  W2        2424            0.0000000000
      7271      2424  TIP3      H1             11.9241715875       12.1651500614      -10.4627916866  W2        2424            0.0000000000
      7272      2424  TIP3      H2             12.3809215875       13.1927300614      -11.4763716866  W2        2424            0.0000000000
      7273      2425  TIP3      OH2            -1.7455084125        8.5255500614        6.8095483134  W2        2425            0.0000000000
      7274      2425  TIP3      H1             -1.6014584125        7.6236200614        6.5232183134  W2        2425            0.0000000000
      7275      2425  TIP3      H2             -2.5177684125        8.8117600614        6.3217783134  W2        2425            0.0000000000
      7276      2426  TIP3      OH2             2.5958615875        8.8691200614      -11.0579916866  W2        2426            0.0000000000
      7277      2426  TIP3      H1              2.6602715875        8.0750800614      -10.5273516866  W2        2426            0.0000000000
      7278      2426  TIP3      H2              3.2487815875        8.7504000614      -11.7477916866  W2        2426            0.0000000000
      7279      2427  TIP3      OH2             4.9101015875        8.4953600614        6.2421883134  W2        2427            0.0000000000
      7280      2427  TIP3      H1              4.5814815875        8.7661700614        5.3849283134  W2        2427            0.0000000000
      7281      2427  TIP3      H2              5.0619215875        7.5543400614        6.1546883134  W2        2427            0.0000000000
      7282      2428  TIP3      OH2             7.9482015875        9.9162900614      -11.3221916866  W2        2428            0.0000000000
      7283      2428  TIP3      H1              7.6796115875       10.0965000614      -10.4213016866  W2        2428            0.0000000000
      7284      2428  TIP3      H2              7.7417615875        8.9909100614      -11.4536116866  W2        2428            0.0000000000
      7285      2429  TIP3      OH2            10.6446215875        8.4110900614        3.6254183134  W2        2429            0.0000000000
      7286      2429  TIP3      H1             11.3901015875        8.9994600614        3.5058183134  W2        2429            0.0000000000
      7287      2429  TIP3      H2              9.8873015875        8.9930600614        3.6887283134  W2        2429            0.0000000000
      7288      2430  TIP3      OH2            -0.9128584125        5.7258800614        6.2294783134  W2        2430            0.0000000000
      7289      2430  TIP3      H1             -0.5047384125        4.8685400614        6.1085383134  W2        2430            0.0000000000
      7290      2430  TIP3      H2             -1.1730984125        5.7400100614        7.1505083134  W2        2430            0.0000000000
      7291      2431  TIP3      OH2             3.7452415875        6.8417400614       -8.7521916866  W2        2431            0.0000000000
      7292      2431  TIP3      H1              3.2854415875        6.3575700614       -8.0663416866  W2        2431            0.0000000000
      7293      2431  TIP3      H2              4.0001115875        6.1732800614       -9.3881416866  W2        2431            0.0000000000
      7294      2432  TIP3      OH2             3.0341715875        4.7344500614        3.6037683134  W2        2432            0.0000000000
      7295      2432  TIP3      H1              2.4157815875        5.4091100614        3.8842383134  W2        2432            0.0000000000
      7296      2432  TIP3      H2              3.3782915875        5.0558400614        2.7703883134  W2        2432            0.0000000000
      7297      2433  TIP3      OH2             4.8162815875        5.0849200614      -10.4898716866  W2        2433            0.0000000000
      7298      2433  TIP3      H1              4.6357815875        4.9300400614      -11.4170416866  W2        2433            0.0000000000
      7299      2433  TIP3      H2              5.7663315875        5.1927900614      -10.4450816866  W2        2433            0.0000000000
      7300      2434  TIP3      OH2             8.0539915875        7.2059800614        6.8812483134  W2        2434            0.0000000000
      7301      2434  TIP3      H1              9.0071115875        7.2898900614        6.8538483134  W2        2434            0.0000000000
      7302      2434  TIP3      H2              7.8934515875        6.4941600614        7.5007383134  W2        2434            0.0000000000
      7303      2435  TIP3      OH2            14.2061115875        7.4393400614      -11.0440616866  W2        2435            0.0000000000
      7304      2435  TIP3      H1             13.9325915875        7.0148900614      -11.8572316866  W2        2435            0.0000000000
      7305      2435  TIP3      H2             14.2455215875        8.3707900614      -11.2610216866  W2        2435            0.0000000000
      7306      2436  TIP3      OH2             3.3735415875        2.0895300614        4.6860783134  W2        2436            0.0000000000
      7307      2436  TIP3      H1              3.5236315875        1.3606600614        4.0840483134  W2        2436            0.0000000000
      7308      2436  TIP3      H2              3.3757815875        2.8667000614        4.1272983134  W2        2436            0.0000000000
      7309      2437  TIP3      OH2             3.7861115875        0.4591100614        2.1788183134  W2        2437            0.0000000000
      7310      2437  TIP3      H1              4.3218615875        0.9107800614        1.5267483134  W2        2437            0.0000000000
      7311      2437  TIP3      H2              2.9340715875        0.3510900614        1.7562283134  W2        2437            0.0000000000
      7312      2438  TIP3      OH2             5.3679515875        5.8987300614        2.4183383134  W2        2438            0.0000000000
      7313      2438  TIP3      H1              6.1184315875        5.7424800614        1.8451183134  W2        2438            0.0000000000
      7314      2438  TIP3      H2              5.0287815875        6.7503900614        2.1428883134  W2        2438            0.0000000000
      7315      2439  TIP3      OH2             9.7835715875        3.7139100614        7.4468683134  W2        2439            0.0000000000
      7316      2439  TIP3      H1              9.9757015875        2.7828500614        7.3353183134  W2        2439            0.0000000000
      7317      2439  TIP3      H2             10.6412015875        4.1388600614        7.4364083134  W2        2439            0.0000000000
      7318      2440  TIP3      OH2            11.1002915875        6.5024300614        5.5241383134  W2        2440            0.0000000000
      7319      2440  TIP3      H1             10.8187915875        7.2118900614        4.9465183134  W2        2440            0.0000000000
      7320      2440  TIP3      H2             12.0427215875        6.4297300614        5.3732583134  W2        2440            0.0000000000
      7321      2441  TIP3      OH2             1.8521715875        3.2878800614        6.5976383134  W2        2441            0.0000000000
      7322      2441  TIP3      H1              1.0850715875        2.7553600614        6.3873983134  W2        2441            0.0000000000
      7323      2441  TIP3      H2              2.5310715875        2.9779200614        5.9982683134  W2        2441            0.0000000000
      7324      2442  TIP3      OH2             4.5916615875       -2.0843199386        2.6101783134  W2        2442            0.0000000000
      7325      2442  TIP3      H1              4.4936215875       -1.1379999386        2.5047983134  W2        2442            0.0000000000
      7326      2442  TIP3      H2              3.8492815875       -2.4569399386        2.1345283134  W2        2442            0.0000000000
      7327      2443  TIP3      OH2             5.8557115875        2.2372200614        6.1740183134  W2        2443            0.0000000000
      7328      2443  TIP3      H1              5.6202515875        2.0178900614        7.0755083134  W2        2443            0.0000000000
      7329      2443  TIP3      H2              5.0724015875        2.0303400614        5.6642683134  W2        2443            0.0000000000
      7330      2444  TIP3      OH2             8.5713715875        1.3645700614        5.2493683134  W2        2444            0.0000000000
      7331      2444  TIP3      H1              7.6239115875        1.3965400614        5.3816983134  W2        2444            0.0000000000
      7332      2444  TIP3      H2              8.8840415875        0.7392800614        5.9031883134  W2        2444            0.0000000000
      7333      2445  TIP3      OH2            10.2055215875       -0.0013199386        7.2545583134  W2        2445            0.0000000000
      7334      2445  TIP3      H1             10.1087015875       -0.9535899386        7.2487483134  W2        2445            0.0000000000
      7335      2445  TIP3      H2              9.8838315875        0.2673600614        8.1151083134  W2        2445            0.0000000000
      7336      2446  TIP3      OH2             0.0324515875        1.2082600614        6.3021083134  W2        2446            0.0000000000
      7337      2446  TIP3      H1              0.2441915875        0.5018700614        5.6918583134  W2        2446            0.0000000000
      7338      2446  TIP3      H2             -0.0787984125        0.7708600614        7.1462283134  W2        2446            0.0000000000
      7339      2447  TIP3      OH2             4.8134715875       -2.7905799386        5.2814583134  W2        2447            0.0000000000
      7340      2447  TIP3      H1              5.5253115875       -3.4303599386        5.2673683134  W2        2447            0.0000000000
      7341      2447  TIP3      H2              4.7125115875       -2.5237499386        4.3677683134  W2        2447            0.0000000000
      7342      2448  TIP3      OH2             5.1672215875       -1.1077399386        7.3350883134  W2        2448            0.0000000000
      7343      2448  TIP3      H1              5.0354415875       -1.5833599386        6.5149383134  W2        2448            0.0000000000
      7344      2448  TIP3      H2              4.5679615875       -0.3633799386        7.2797983134  W2        2448            0.0000000000
      7345      2449  TIP3      OH2             4.7134515875       15.7752900614       -9.4885116866  W2        2449            0.0000000000
      7346      2449  TIP3      H1              5.6465215875       15.9331600614       -9.3446716866  W2        2449            0.0000000000
      7347      2449  TIP3      H2              4.4493315875       16.4505900614      -10.1133616866  W2        2449            0.0000000000
      7348      2450  TIP3      OH2            -1.7180584125       10.4116700614      -10.0057016866  W2        2450            0.0000000000
      7349      2450  TIP3      H1             -0.8041384125       10.4905600614       -9.7323116866  W2        2450            0.0000000000
      7350      2450  TIP3      H2             -1.7107484125        9.7246300614      -10.6721416866  W2        2450            0.0000000000
      7351      2451  TIP3      OH2            -3.0689984125       15.8045200614       -4.9283116866  W2        2451            0.0000000000
      7352      2451  TIP3      H1             -3.7162884125       15.3426900614       -5.4611916866  W2        2451            0.0000000000
      7353      2451  TIP3      H2             -2.7145384125       15.1328500614       -4.3456916866  W2        2451            0.0000000000
      7354      2452  TIP3      OH2            -2.1990784125       13.8852200614       -3.1236916866  W2        2452            0.0000000000
      7355      2452  TIP3      H1             -2.5333984125       13.0049500614       -2.9516716866  W2        2452            0.0000000000
      7356      2452  TIP3      H2             -1.9768384125       14.2307200614       -2.2591316866  W2        2452            0.0000000000
      7357      2453  TIP3      OH2            15.3494015875       14.6948600614       -0.1432116866  W2        2453            0.0000000000
      7358      2453  TIP3      H1             15.3280715875       14.8797000614        0.7957283134  W2        2453            0.0000000000
      7359      2453  TIP3      H2             16.0400215875       15.2632600614       -0.4840716866  W2        2453            0.0000000000
      7360      2454  TIP3      OH2            14.9126915875       14.2619700614        2.7786983134  W2        2454            0.0000000000
      7361      2454  TIP3      H1             14.4255615875       13.5263800614        2.4074383134  W2        2454            0.0000000000
      7362      2454  TIP3      H2             15.4619615875       13.8683600614        3.4566383134  W2        2454            0.0000000000
      7363      2455  TIP3      OH2            13.3634215875       10.0517800614        7.4167283134  W2        2455            0.0000000000
      7364      2455  TIP3      H1             12.4975315875        9.9467500614        7.8109583134  W2        2455            0.0000000000
      7365      2455  TIP3      H2             13.7400115875       10.8101100614        7.8631983134  W2        2455            0.0000000000
      7366      2456  TIP3      OH2            14.6643915875        8.3081500614       -7.0690216866  W2        2456            0.0000000000
      7367      2456  TIP3      H1             15.5145315875        8.7292400614       -6.9418616866  W2        2456            0.0000000000
      7368      2456  TIP3      H2             14.6699015875        7.5681600614       -6.4618816866  W2        2456            0.0000000000
      7369      2457  TIP3      OH2            15.0589515875        6.3618900614       -5.2454516866  W2        2457            0.0000000000
      7370      2457  TIP3      H1             14.3324115875        5.8821500614       -4.8476916866  W2        2457            0.0000000000
      7371      2457  TIP3      H2             15.6402815875        6.5673600614       -4.5132916866  W2        2457            0.0000000000
      7372      2458  TIP3      OH2            14.8180715875        9.1466400614       -0.2976916866  W2        2458            0.0000000000
      7373      2458  TIP3      H1             15.6514915875        8.7686400614       -0.5783316866  W2        2458            0.0000000000
      7374      2458  TIP3      H2             14.9301015875       10.0897600614       -0.4167816866  W2        2458            0.0000000000
      7375      2459  TIP3      OH2            13.3043015875       12.0243900614        2.0091483134  W2        2459            0.0000000000
      7376      2459  TIP3      H1             12.6568315875       12.3495400614        2.6346683134  W2        2459            0.0000000000
      7377      2459  TIP3      H2             12.7867015875       11.5841600614        1.3349783134  W2        2459            0.0000000000
      7378      2460  TIP3      OH2            15.3272615875        6.2627400614       -8.8543216866  W2        2460            0.0000000000
      7379      2460  TIP3      H1             14.8053715875        6.6191500614       -9.5732316866  W2        2460            0.0000000000
      7380      2460  TIP3      H2             15.2941815875        6.9375200614       -8.1762316866  W2        2460            0.0000000000
      7381      2461  TIP3      OH2            13.6761615875        3.5023000614      -10.3036116866  W2        2461            0.0000000000
      7382      2461  TIP3      H1             13.7726015875        4.1690000614      -10.9836416866  W2        2461            0.0000000000
      7383      2461  TIP3      H2             13.5361215875        2.6869300614      -10.7850616866  W2        2461            0.0000000000
      7384      2462  TIP3      OH2            12.8456315875        4.8825400614       -4.6825816866  W2        2462            0.0000000000
      7385      2462  TIP3      H1             12.6955115875        3.9374000614       -4.7028016866  W2        2462            0.0000000000
      7386      2462  TIP3      H2             12.4920815875        5.1636800614       -3.8386716866  W2        2462            0.0000000000
      7387      2463  TIP3      OH2            -2.1191284125        6.9607600614       -0.6722016866  W2        2463            0.0000000000
      7388      2463  TIP3      H1             -1.9348384125        6.8789300614       -1.6079116866  W2        2463            0.0000000000
      7389      2463  TIP3      H2             -1.2698384125        6.8364600614       -0.2485616866  W2        2463            0.0000000000
      7390      2464  TIP3      OH2            13.7019215875        6.8528700614        4.9562483134  W2        2464            0.0000000000
      7391      2464  TIP3      H1             14.2846515875        6.1181000614        5.1479683134  W2        2464            0.0000000000
      7392      2464  TIP3      H2             14.2658515875        7.6249000614        5.0028283134  W2        2464            0.0000000000
      7393      2465  TIP3      OH2            15.1986315875        4.7554500614        5.6407883134  W2        2465            0.0000000000
      7394      2465  TIP3      H1             14.3353015875        4.3766600614        5.4752583134  W2        2465            0.0000000000
      7395      2465  TIP3      H2             15.8030015875        4.0169300614        5.5663683134  W2        2465            0.0000000000
      7396      2466  TIP3      OH2            12.9235415875        0.9102800614      -11.1860616866  W2        2466            0.0000000000
      7397      2466  TIP3      H1             13.5341215875        0.5389600614      -10.5492416866  W2        2466            0.0000000000
      7398      2466  TIP3      H2             12.0866915875        0.4889700614      -10.9900616866  W2        2466            0.0000000000
      7399      2467  TIP3      OH2            12.5561115875        2.4651200614       -6.2200716866  W2        2467            0.0000000000
      7400      2467  TIP3      H1             12.8358215875        1.5581600614       -6.0959016866  W2        2467            0.0000000000
      7401      2467  TIP3      H2             13.3152815875        2.8992700614       -6.6091516866  W2        2467            0.0000000000
      7402      2468  TIP3      OH2            13.1679415875        3.0468600614       -0.7841816866  W2        2468            0.0000000000
      7403      2468  TIP3      H1             14.1007415875        3.2588500614       -0.8185816866  W2        2468            0.0000000000
      7404      2468  TIP3      H2             12.9326915875        3.1480700614        0.1381183134  W2        2468            0.0000000000
      7405      2469  TIP3      OH2            13.1971315875        3.7833900614        1.9917583134  W2        2469            0.0000000000
      7406      2469  TIP3      H1             12.3542615875        4.0514300614        2.3577383134  W2        2469            0.0000000000
      7407      2469  TIP3      H2             13.6395615875        4.6055800614        1.7808683134  W2        2469            0.0000000000
      7408      2470  TIP3      OH2            -2.5216484125        2.2312600614        5.4686783134  W2        2470            0.0000000000
      7409      2470  TIP3      H1             -1.6021584125        2.1090900614        5.7049883134  W2        2470            0.0000000000
      7410      2470  TIP3      H2             -2.9711984125        1.4812300614        5.8580283134  W2        2470            0.0000000000
      7411      2471  TIP3      OH2            15.4802915875       -2.2365899386        7.3452583134  W2        2471            0.0000000000
      7412      2471  TIP3      H1             15.8299915875       -2.8902399386        6.7397283134  W2        2471            0.0000000000
      7413      2471  TIP3      H2             15.6272415875       -1.3991799386        6.9055183134  W2        2471            0.0000000000
      7414      2472  TIP3      OH2            13.1695915875       -0.2719499386       -6.1718716866  W2        2472            0.0000000000
      7415      2472  TIP3      H1             13.3520915875       -0.7207999386       -5.3463716866  W2        2472            0.0000000000
      7416      2472  TIP3      H2             12.5698815875       -0.8565099386       -6.6354116866  W2        2472            0.0000000000
      7417      2473  TIP3      OH2            -1.3003984125        0.5434200614       -1.6400316866  W2        2473            0.0000000000
      7418      2473  TIP3      H1             -0.8552384125       -0.2483299386       -1.3380616866  W2        2473            0.0000000000
      7419      2473  TIP3      H2             -0.8340984125        1.2599400614       -1.2094716866  W2        2473            0.0000000000
      7420      2474  TIP3      OH2            -2.9963684125        3.5427200614       -0.5710116866  W2        2474            0.0000000000
      7421      2474  TIP3      H1             -2.5043884125        3.3217700614       -1.3618116866  W2        2474            0.0000000000
      7422      2474  TIP3      H2             -2.6342784125        4.3830600614       -0.2900616866  W2        2474            0.0000000000
      7423      2475  TIP3      OH2            15.0000115875       -0.1271299386        5.6943883134  W2        2475            0.0000000000
      7424      2475  TIP3      H1             14.0825815875        0.1435800614        5.6587383134  W2        2475            0.0000000000
      7425      2475  TIP3      H2             15.1229515875       -0.6622899386        4.9103583134  W2        2475            0.0000000000
      7426      2476  TIP3      OH2            15.0362115875       -0.2041399386       -9.6438416866  W2        2476            0.0000000000
      7427      2476  TIP3      H1             15.4484715875       -0.9255699386      -10.1190416866  W2        2476            0.0000000000
      7428      2476  TIP3      H2             15.7178615875        0.4653200614       -9.5854116866  W2        2476            0.0000000000
      7429      2477  TIP3      OH2            -2.6827184125       -0.1993699386       -6.5167716866  W2        2477            0.0000000000
      7430      2477  TIP3      H1             -3.6078784125        0.0092900614       -6.6462216866  W2        2477            0.0000000000
      7431      2477  TIP3      H2             -2.2287284125        0.2847100614       -7.2065416866  W2        2477            0.0000000000
      7432      2478  TIP3      OH2            12.0880015875       14.7848000614       -4.5710316866  W2        2478            0.0000000000
      7433      2478  TIP3      H1             12.7402915875       14.4370100614       -5.1791216866  W2        2478            0.0000000000
      7434      2478  TIP3      H2             12.5983815875       15.2731200614       -3.9250616866  W2        2478            0.0000000000
      7435      2479  TIP3      OH2            -2.7191784125       -1.4614699386        1.8274783134  W2        2479            0.0000000000
      7436      2479  TIP3      H1             -3.3841284125       -1.7074399386        2.4705683134  W2        2479            0.0000000000
      7437      2479  TIP3      H2             -3.1620484125       -0.8394299386        1.2502783134  W2        2479            0.0000000000
      7438      2480  TIP3      OH2            -0.5272484125       11.7139400614        5.9720583134  W2        2480            0.0000000000
      7439      2480  TIP3      H1             -1.3479984125       11.8885900614        5.5115283134  W2        2480            0.0000000000
      7440      2480  TIP3      H2             -0.7794684125       11.6404100614        6.8924983134  W2        2480            0.0000000000
      7441      2481  TIP3      OH2             2.4270415875       12.6880600614        2.2304583134  W2        2481            0.0000000000
      7442      2481  TIP3      H1              2.0021515875       13.4979100614        1.9479183134  W2        2481            0.0000000000
      7443      2481  TIP3      H2              3.3313215875       12.7734700614        1.9284383134  W2        2481            0.0000000000
      7444      2482  TIP3      OH2             6.7381815875       14.0870600614        5.1898283134  W2        2482            0.0000000000
      7445      2482  TIP3      H1              6.9229315875       13.7536700614        6.0678583134  W2        2482            0.0000000000
      7446      2482  TIP3      H2              7.5846315875       14.3969200614        4.8677483134  W2        2482            0.0000000000
      7447      2483  TIP3      OH2             9.0832215875       15.3729500614        4.4339683134  W2        2483            0.0000000000
      7448      2483  TIP3      H1              9.7601115875       14.7401800614        4.1938883134  W2        2483            0.0000000000
      7449      2483  TIP3      H2              9.4051015875       15.7740000614        5.2412983134  W2        2483            0.0000000000
      7450      2484  TIP3      OH2            14.0006015875       -2.0374999386        3.5134683134  W2        2484            0.0000000000
      7451      2484  TIP3      H1             13.1879515875       -1.7124699386        3.1259383134  W2        2484            0.0000000000
      7452      2484  TIP3      H2             14.2334515875       -2.7976499386        2.9803783134  W2        2484            0.0000000000
      7453      2485  TIP3      OH2            -0.1712884125       15.9444500614        2.2779883134  W2        2485            0.0000000000
      7454      2485  TIP3      H1             -0.8916484125       16.3845500614        1.8267583134  W2        2485            0.0000000000
      7455      2485  TIP3      H2             -0.5368884125       15.6939200614        3.1263883134  W2        2485            0.0000000000
      7456      2486  TIP3      OH2             2.2959715875       15.5448400614        1.3077083134  W2        2486            0.0000000000
      7457      2486  TIP3      H1              1.4311915875       15.6166900614        1.7117183134  W2        2486            0.0000000000
      7458      2486  TIP3      H2              2.2408715875       16.0915700614        0.5239583134  W2        2486            0.0000000000
      7459      2487  TIP3      OH2             7.0065315875       15.4327300614        0.4833083134  W2        2487            0.0000000000
      7460      2487  TIP3      H1              6.5499315875       15.9617000614       -0.1708516866  W2        2487            0.0000000000
      7461      2487  TIP3      H2              7.1693315875       16.0358700614        1.2085383134  W2        2487            0.0000000000
      7462      2488  TIP3      OH2             9.3341615875       14.3106900614        1.4283383134  W2        2488            0.0000000000
      7463      2488  TIP3      H1              8.4295315875       14.4757100614        1.1625483134  W2        2488            0.0000000000
      7464      2488  TIP3      H2              9.7630215875       15.1639100614        1.3626783134  W2        2488            0.0000000000
      7465      2489  TIP3      OH2            11.9383515875       15.8806000614        1.7231183134  W2        2489            0.0000000000
      7466      2489  TIP3      H1             11.7565515875       16.7964900614        1.5126083134  W2        2489            0.0000000000
      7467      2489  TIP3      H2             12.1151315875       15.4703100614        0.8765783134  W2        2489            0.0000000000
      7468      2490  TIP3      OH2            -0.7564784125       14.5677000614       -0.8118316866  W2        2490            0.0000000000
      7469      2490  TIP3      H1             -0.7748784125       14.1422100614        0.0453983134  W2        2490            0.0000000000
      7470      2490  TIP3      H2              0.0483115875       14.2492000614       -1.2206116866  W2        2490            0.0000000000
      7471      2491  TIP3      OH2             1.3848315875       13.2775700614       -2.1568416866  W2        2491            0.0000000000
      7472      2491  TIP3      H1              1.1659015875       12.3613100614       -1.9872416866  W2        2491            0.0000000000
      7473      2491  TIP3      H2              2.2090515875       13.4176100614       -1.6907016866  W2        2491            0.0000000000
      7474      2492  TIP3      OH2             3.9220815875       13.7475000614       -1.3080416866  W2        2492            0.0000000000
      7475      2492  TIP3      H1              4.1346515875       12.8594000614       -1.5949516866  W2        2492            0.0000000000
      7476      2492  TIP3      H2              3.9865915875       13.7132700614       -0.3536416866  W2        2492            0.0000000000
      7477      2493  TIP3      OH2             7.4304515875       -0.5884399386       -2.1637116866  W2        2493            0.0000000000
      7478      2493  TIP3      H1              6.7561315875       -1.2178799386       -1.9081316866  W2        2493            0.0000000000
      7479      2493  TIP3      H2              7.9943715875       -1.0725499386       -2.7669216866  W2        2493            0.0000000000
      7480      2494  TIP3      OH2            12.5731715875       -2.4810399386       -2.0510016866  W2        2494            0.0000000000
      7481      2494  TIP3      H1             13.1769315875       -1.9334999386       -2.5529016866  W2        2494            0.0000000000
      7482      2494  TIP3      H2             11.7033715875       -2.1619999386       -2.2915916866  W2        2494            0.0000000000
      7483      2495  TIP3      OH2            14.3002115875       -1.3421699386       -3.7179116866  W2        2495            0.0000000000
      7484      2495  TIP3      H1             14.9119615875       -1.8565999386       -4.2445516866  W2        2495            0.0000000000
      7485      2495  TIP3      H2             14.6825515875       -0.4649599386       -3.6944716866  W2        2495            0.0000000000
      7486      2496  TIP3      OH2            -0.2427984125       -1.9544099386       -4.3417216866  W2        2496            0.0000000000
      7487      2496  TIP3      H1             -1.0198184125       -2.1889199386       -4.8491316866  W2        2496            0.0000000000
      7488      2496  TIP3      H2              0.2875615875       -2.7511999386       -4.3329216866  W2        2496            0.0000000000
      7489      2497  TIP3      OH2            -1.4064584125       -2.1565999386       -8.5381116866  W2        2497            0.0000000000
      7490      2497  TIP3      H1             -0.9673884125       -1.5455499386       -9.1297616866  W2        2497            0.0000000000
      7491      2497  TIP3      H2             -2.0402184125       -1.6181899386       -8.0641116866  W2        2497            0.0000000000
      7492      2498  TIP3      OH2             4.3364615875       -2.0276999386       -4.5284116866  W2        2498            0.0000000000
      7493      2498  TIP3      H1              5.2108015875       -1.6392699386       -4.5579816866  W2        2498            0.0000000000
      7494      2498  TIP3      H2              4.2005415875       -2.2429199386       -3.6056916866  W2        2498            0.0000000000
      7495      2499  TIP3      OH2             9.8933015875       -1.9977199386       -2.8792416866  W2        2499            0.0000000000
      7496      2499  TIP3      H1              9.9694615875       -1.9025599386       -3.8286416866  W2        2499            0.0000000000
      7497      2499  TIP3      H2              9.6182215875       -2.9054299386       -2.7503316866  W2        2499            0.0000000000
      7498      2500  TIP3      OH2            11.2465615875       -1.9719399386       -7.1867416866  W2        2500            0.0000000000
      7499      2500  TIP3      H1             10.5436715875       -1.3570199386       -7.3966016866  W2        2500            0.0000000000
      7500      2500  TIP3      H2             10.8017015875       -2.8092699386       -7.0556516866  W2        2500            0.0000000000
      7501      2501  TIP3      OH2            -1.5055084125       13.7916200614       -7.6406016866  W2        2501            0.0000000000
      7502      2501  TIP3      H1             -2.1905184125       13.7535100614       -8.3080916866  W2        2501            0.0000000000
      7503      2501  TIP3      H2             -1.5017884125       14.7043800614       -7.3523916866  W2        2501            0.0000000000
      7504      2502  TIP3      OH2             0.4544515875       -0.2404499386      -10.0957016866  W2        2502            0.0000000000
      7505      2502  TIP3      H1              0.9457915875       -0.8702099386      -10.6231516866  W2        2502            0.0000000000
      7506      2502  TIP3      H2              1.0780815875        0.0554900614       -9.4325816866  W2        2502            0.0000000000
      7507      2503  TIP3      OH2             5.4804615875        0.0527000614       -7.6386516866  W2        2503            0.0000000000
      7508      2503  TIP3      H1              5.6585915875       -0.5939799386       -6.9557916866  W2        2503            0.0000000000
      7509      2503  TIP3      H2              5.4270815875        0.8864700614       -7.1715416866  W2        2503            0.0000000000
      7510      2504  TIP3      OH2             7.3588415875       15.0011100614       -9.2429816866  W2        2504            0.0000000000
      7511      2504  TIP3      H1              8.2248615875       15.3678500614       -9.4211616866  W2        2504            0.0000000000
      7512      2504  TIP3      H2              7.1121215875       14.5619100614      -10.0569016866  W2        2504            0.0000000000
      7513      2505  TIP3      OH2            14.0678015875       14.5641400614       -6.5638716866  W2        2505            0.0000000000
      7514      2505  TIP3      H1             13.8735115875       13.8163500614       -7.1289116866  W2        2505            0.0000000000
      7515      2505  TIP3      H2             14.0288115875       15.3221500614       -7.1470816866  W2        2505            0.0000000000
      7516      2506  TIP3      OH2            -0.2849984125       -1.4402199386        5.1758983134  W2        2506            0.0000000000
      7517      2506  TIP3      H1             -0.6511784125       -2.2059599386        5.6183683134  W2        2506            0.0000000000
      7518      2506  TIP3      H2              0.6278515875       -1.4111999386        5.4624083134  W2        2506            0.0000000000
      7519      2507  TIP3      OH2             1.6880815875       -2.0897799386        6.7116083134  W2        2507            0.0000000000
      7520      2507  TIP3      H1              2.5864415875       -2.3637599386        6.5269483134  W2        2507            0.0000000000
      7521      2507  TIP3      H2              1.3013915875       -2.8321799386        7.1758683134  W2        2507            0.0000000000
      7522      2508  TIP3      OH2             0.3126115875       14.7117000614      -10.6153916866  W2        2508            0.0000000000
      7523      2508  TIP3      H1              0.0450715875       14.9979900614       -9.7420816866  W2        2508            0.0000000000
      7524      2508  TIP3      H2              1.0838715875       14.1656200614      -10.4631416866  W2        2508            0.0000000000
      7525      2509  TIP3      OH2            10.1093115875       -2.7572499386        6.8938883134  W2        2509            0.0000000000
      7526      2509  TIP3      H1             10.1860315875       -3.1831799386        7.7476583134  W2        2509            0.0000000000
      7527      2509  TIP3      H2             11.0029715875       -2.7437799386        6.5512383134  W2        2509            0.0000000000
      7528      2510  TIP3      OH2            13.2854215875       13.3153800614        5.5863083134  W2        2510            0.0000000000
      7529      2510  TIP3      H1             12.5036115875       13.1291800614        5.0663683134  W2        2510            0.0000000000
      7530      2510  TIP3      H2             13.2134115875       14.2448100614        5.8035583134  W2        2510            0.0000000000
      7531      2511  TIP3      OH2            27.6914615875        7.2018200614       -4.3829716866  W2        2511            0.0000000000
      7532      2511  TIP3      H1             27.7805715875        8.1456400614       -4.5152616866  W2        2511            0.0000000000
      7533      2511  TIP3      H2             27.0532215875        6.9264600614       -5.0410316866  W2        2511            0.0000000000
      7534      2512  TIP3      OH2            26.6245915875        6.4568900614       -0.9641516866  W2        2512            0.0000000000
      7535      2512  TIP3      H1             26.5863415875        5.8105200614       -0.2591916866  W2        2512            0.0000000000
      7536      2512  TIP3      H2             26.3022415875        5.9903300614       -1.7352816866  W2        2512            0.0000000000
      7537      2513  TIP3      OH2            18.9930915875        6.0711000614        0.6288383134  W2        2513            0.0000000000
      7538      2513  TIP3      H1             19.0343015875        5.4454300614        1.3520783134  W2        2513            0.0000000000
      7539      2513  TIP3      H2             19.6958615875        6.6949600614        0.8108783134  W2        2513            0.0000000000
      7540      2514  TIP3      OH2            30.3306115875        9.3959300614       -2.6626416866  W2        2514            0.0000000000
      7541      2514  TIP3      H1             29.8898815875        8.6755300614       -2.2120816866  W2        2514            0.0000000000
      7542      2514  TIP3      H2             30.3175815875       10.1166500614       -2.0328716866  W2        2514            0.0000000000
      7543      2515  TIP3      OH2            19.9164015875       10.5209900614       -0.8362516866  W2        2515            0.0000000000
      7544      2515  TIP3      H1             19.5469215875        9.7190400614       -1.2058216866  W2        2515            0.0000000000
      7545      2515  TIP3      H2             20.8575115875       10.3524800614       -0.7899116866  W2        2515            0.0000000000
      7546      2516  TIP3      OH2            16.5264515875        4.1812500614       -5.4433716866  W2        2516            0.0000000000
      7547      2516  TIP3      H1             16.0787915875        5.0271200614       -5.4617216866  W2        2516            0.0000000000
      7548      2516  TIP3      H2             15.9655715875        3.6016700614       -5.9588616866  W2        2516            0.0000000000
      7549      2517  TIP3      OH2            17.2370615875        6.3432100614       -3.3175716866  W2        2517            0.0000000000
      7550      2517  TIP3      H1             17.4504115875        5.5733700614       -2.7902716866  W2        2517            0.0000000000
      7551      2517  TIP3      H2             17.9748215875        6.4328800614       -3.9208116866  W2        2517            0.0000000000
      7552      2518  TIP3      OH2            27.4421615875       14.5001000614       -2.4506016866  W2        2518            0.0000000000
      7553      2518  TIP3      H1             28.0618015875       13.8235700614       -2.7236816866  W2        2518            0.0000000000
      7554      2518  TIP3      H2             27.2339015875       14.2821800614       -1.5421116866  W2        2518            0.0000000000
      7555      2519  TIP3      OH2            25.0140315875        8.8890300614       -0.5580516866  W2        2519            0.0000000000
      7556      2519  TIP3      H1             25.3178215875        8.2031700614       -1.1526416866  W2        2519            0.0000000000
      7557      2519  TIP3      H2             25.7354315875        9.0079000614        0.0597483134  W2        2519            0.0000000000
      7558      2520  TIP3      OH2            33.6770115875        0.4905600614        0.3025683134  W2        2520            0.0000000000
      7559      2520  TIP3      H1             33.7262315875        1.1006800614        1.0384783134  W2        2520            0.0000000000
      7560      2520  TIP3      H2             34.1025215875        0.9516500614       -0.4203216866  W2        2520            0.0000000000
      7561      2521  TIP3      OH2            28.1547315875        3.2832700614       -0.2305716866  W2        2521            0.0000000000
      7562      2521  TIP3      H1             28.2973215875        2.3369700614       -0.2104116866  W2        2521            0.0000000000
      7563      2521  TIP3      H2             28.0486315875        3.4902500614       -1.1590816866  W2        2521            0.0000000000
      7564      2522  TIP3      OH2            21.3095615875        1.3849100614       -2.9580916866  W2        2522            0.0000000000
      7565      2522  TIP3      H1             21.3526715875        2.2447600614       -3.3764616866  W2        2522            0.0000000000
      7566      2522  TIP3      H2             20.8519715875        0.8323800614       -3.5917716866  W2        2522            0.0000000000
      7567      2523  TIP3      OH2            29.0318315875        1.5154700614       -4.5572616866  W2        2523            0.0000000000
      7568      2523  TIP3      H1             29.6782615875        1.1867900614       -3.9325016866  W2        2523            0.0000000000
      7569      2523  TIP3      H2             29.5417715875        2.0333700614       -5.1801216866  W2        2523            0.0000000000
      7570      2524  TIP3      OH2            17.9297115875        3.7814900614       -2.1959516866  W2        2524            0.0000000000
      7571      2524  TIP3      H1             18.5833715875        3.2316600614       -1.7639416866  W2        2524            0.0000000000
      7572      2524  TIP3      H2             17.9536415875        3.5073900614       -3.1127516866  W2        2524            0.0000000000
      7573      2525  TIP3      OH2            23.0861615875        5.3316200614       -2.9808016866  W2        2525            0.0000000000
      7574      2525  TIP3      H1             23.7022615875        4.8051600614       -2.4714016866  W2        2525            0.0000000000
      7575      2525  TIP3      H2             22.5000415875        4.6914900614       -3.3844416866  W2        2525            0.0000000000
      7576      2526  TIP3      OH2            34.0684715875        1.9684800614        2.5385483134  W2        2526            0.0000000000
      7577      2526  TIP3      H1             33.3799315875        2.6265500614        2.4432083134  W2        2526            0.0000000000
      7578      2526  TIP3      H2             34.0839315875        1.7712700614        3.4750883134  W2        2526            0.0000000000
      7579      2527  TIP3      OH2            20.1197515875        0.3027500614        1.1159883134  W2        2527            0.0000000000
      7580      2527  TIP3      H1             19.9009215875        0.8328100614        0.3495883134  W2        2527            0.0000000000
      7581      2527  TIP3      H2             19.4518415875        0.5293000614        1.7631283134  W2        2527            0.0000000000
      7582      2528  TIP3      OH2            27.4887315875        9.8028600614       -5.3401016866  W2        2528            0.0000000000
      7583      2528  TIP3      H1             27.1932415875        9.4800900614       -6.1914116866  W2        2528            0.0000000000
      7584      2528  TIP3      H2             27.1645115875       10.7025300614       -5.2988416866  W2        2528            0.0000000000
      7585      2529  TIP3      OH2            22.6888915875        7.9783200614        1.4033583134  W2        2529            0.0000000000
      7586      2529  TIP3      H1             21.9488015875        8.5764700614        1.5068783134  W2        2529            0.0000000000
      7587      2529  TIP3      H2             23.4028415875        8.5322800614        1.0877183134  W2        2529            0.0000000000
      7588      2530  TIP3      OH2            30.7956715875        0.8064000614       -2.5766716866  W2        2530            0.0000000000
      7589      2530  TIP3      H1             30.5804715875        0.0407400614       -2.0440716866  W2        2530            0.0000000000
      7590      2530  TIP3      H2             31.4514115875        1.2788600614       -2.0638216866  W2        2530            0.0000000000
      7591      2531  TIP3      OH2            19.7134815875        2.1949300614       -0.9317916866  W2        2531            0.0000000000
      7592      2531  TIP3      H1             20.3271115875        2.8276900614       -0.5585516866  W2        2531            0.0000000000
      7593      2531  TIP3      H2             20.2255515875        1.7224300614       -1.5881016866  W2        2531            0.0000000000
      7594      2532  TIP3      OH2            21.0963215875        9.9426200614        2.1905083134  W2        2532            0.0000000000
      7595      2532  TIP3      H1             21.0910815875       10.8219700614        1.8124383134  W2        2532            0.0000000000
      7596      2532  TIP3      H2             20.2427315875        9.8590300614        2.6154983134  W2        2532            0.0000000000
      7597      2533  TIP3      OH2            17.2174115875        9.6134100614       -7.0275616866  W2        2533            0.0000000000
      7598      2533  TIP3      H1             16.9455015875        9.8425100614       -7.9162716866  W2        2533            0.0000000000
      7599      2533  TIP3      H2             17.2629815875       10.4512900614       -6.5670316866  W2        2533            0.0000000000
      7600      2534  TIP3      OH2            30.8423815875       11.2350000614       -0.3147116866  W2        2534            0.0000000000
      7601      2534  TIP3      H1             29.9007515875       11.2933900614       -0.1530216866  W2        2534            0.0000000000
      7602      2534  TIP3      H2             31.1189915875       12.1410500614       -0.4517416866  W2        2534            0.0000000000
      7603      2535  TIP3      OH2            31.1430815875       -0.4784699386        1.1026783134  W2        2535            0.0000000000
      7604      2535  TIP3      H1             30.4070015875        0.1322400614        1.0648083134  W2        2535            0.0000000000
      7605      2535  TIP3      H2             31.8264815875       -0.0635699386        0.5763183134  W2        2535            0.0000000000
      7606      2536  TIP3      OH2            24.1462215875       -2.3917399386       -1.4315216866  W2        2536            0.0000000000
      7607      2536  TIP3      H1             24.0286415875       -3.3401399386       -1.4856916866  W2        2536            0.0000000000
      7608      2536  TIP3      H2             23.2912315875       -2.0591299386       -1.1584116866  W2        2536            0.0000000000
      7609      2537  TIP3      OH2            29.0945015875       13.0163500614       -3.6895516866  W2        2537            0.0000000000
      7610      2537  TIP3      H1             29.5197315875       12.3091400614       -4.1745916866  W2        2537            0.0000000000
      7611      2537  TIP3      H2             29.4115015875       13.8176200614       -4.1063316866  W2        2537            0.0000000000
      7612      2538  TIP3      OH2            30.2541515875       10.9172000614       -5.1808916866  W2        2538            0.0000000000
      7613      2538  TIP3      H1             29.9966315875       10.2272100614       -5.7923016866  W2        2538            0.0000000000
      7614      2538  TIP3      H2             30.3252315875       10.4743200614       -4.3353016866  W2        2538            0.0000000000
      7615      2539  TIP3      OH2            31.9401715875        9.4838700614        3.2964583134  W2        2539            0.0000000000
      7616      2539  TIP3      H1             32.0798015875        8.8921200614        2.5571583134  W2        2539            0.0000000000
      7617      2539  TIP3      H2             32.1074515875       10.3564600614        2.9403383134  W2        2539            0.0000000000
      7618      2540  TIP3      OH2            26.4127115875        6.4458200614       -6.9309416866  W2        2540            0.0000000000
      7619      2540  TIP3      H1             25.7012615875        6.9807900614       -7.2828916866  W2        2540            0.0000000000
      7620      2540  TIP3      H2             27.1036715875        6.5010300614       -7.5910516866  W2        2540            0.0000000000
      7621      2541  TIP3      OH2            26.4666315875        4.9032500614       -9.8924416866  W2        2541            0.0000000000
      7622      2541  TIP3      H1             27.1676215875        4.9259400614       -9.2410416866  W2        2541            0.0000000000
      7623      2541  TIP3      H2             26.7689215875        4.2752200614      -10.5485116866  W2        2541            0.0000000000
      7624      2542  TIP3      OH2            33.7821015875        5.8236700614        1.3624983134  W2        2542            0.0000000000
      7625      2542  TIP3      H1             33.1295115875        6.5182300614        1.4515883134  W2        2542            0.0000000000
      7626      2542  TIP3      H2             34.2471315875        6.0337600614        0.5526583134  W2        2542            0.0000000000
      7627      2543  TIP3      OH2            29.8184815875        6.6551500614       -5.9793516866  W2        2543            0.0000000000
      7628      2543  TIP3      H1             29.0865815875        6.8835200614       -5.4062916866  W2        2543            0.0000000000
      7629      2543  TIP3      H2             30.2657015875        5.9414200614       -5.5246016866  W2        2543            0.0000000000
      7630      2544  TIP3      OH2            29.7158315875        4.8294100614        3.0883483134  W2        2544            0.0000000000
      7631      2544  TIP3      H1             29.7957415875        5.5928500614        3.6601983134  W2        2544            0.0000000000
      7632      2544  TIP3      H2             29.1146015875        5.1086500614        2.3978583134  W2        2544            0.0000000000
      7633      2545  TIP3      OH2            21.4638515875        7.2857700614       -4.0968516866  W2        2545            0.0000000000
      7634      2545  TIP3      H1             21.1333715875        6.9151100614       -4.9151516866  W2        2545            0.0000000000
      7635      2545  TIP3      H2             22.0522615875        6.6151700614       -3.7500216866  W2        2545            0.0000000000
      7636      2546  TIP3      OH2            22.8306015875       10.7138300614       -1.4156316866  W2        2546            0.0000000000
      7637      2546  TIP3      H1             22.7357315875       10.1351400614       -2.1721716866  W2        2546            0.0000000000
      7638      2546  TIP3      H2             23.5599615875       10.3424000614       -0.9193516866  W2        2546            0.0000000000
      7639      2547  TIP3      OH2            21.8304015875        6.0543300614       -0.4633516866  W2        2547            0.0000000000
      7640      2547  TIP3      H1             22.3956515875        6.1757500614       -1.2262316866  W2        2547            0.0000000000
      7641      2547  TIP3      H2             22.1492915875        6.6918300614        0.1754983134  W2        2547            0.0000000000
      7642      2548  TIP3      OH2            28.1396215875       11.5575200614        0.2706983134  W2        2548            0.0000000000
      7643      2548  TIP3      H1             27.8992815875       12.2198300614        0.9186183134  W2        2548            0.0000000000
      7644      2548  TIP3      H2             27.9414415875       10.7230400614        0.6956583134  W2        2548            0.0000000000
      7645      2549  TIP3      OH2            22.7104715875       10.4536000614        4.2538383134  W2        2549            0.0000000000
      7646      2549  TIP3      H1             22.3992215875       11.2359200614        4.7091583134  W2        2549            0.0000000000
      7647      2549  TIP3      H2             22.0604915875       10.3005100614        3.5680383134  W2        2549            0.0000000000
      7648      2550  TIP3      OH2            28.6894315875        5.8174400614       -8.2942316866  W2        2550            0.0000000000
      7649      2550  TIP3      H1             29.2689815875        5.9674700614       -7.5473416866  W2        2550            0.0000000000
      7650      2550  TIP3      H2             29.1034315875        6.2881800614       -9.0175916866  W2        2550            0.0000000000
      7651      2551  TIP3      OH2            19.6304615875        6.6517100614        3.4824083134  W2        2551            0.0000000000
      7652      2551  TIP3      H1             19.7007815875        7.3023900614        4.1809083134  W2        2551            0.0000000000
      7653      2551  TIP3      H2             18.7396815875        6.7544600614        3.1474983134  W2        2551            0.0000000000
      7654      2552  TIP3      OH2            26.4159215875       12.5542900614       -4.8589216866  W2        2552            0.0000000000
      7655      2552  TIP3      H1             26.8896815875       12.8499200614       -4.0815016866  W2        2552            0.0000000000
      7656      2552  TIP3      H2             25.8528515875       13.2924500614       -5.0919616866  W2        2552            0.0000000000
      7657      2553  TIP3      OH2            20.9500615875       12.5251000614        5.0172183134  W2        2553            0.0000000000
      7658      2553  TIP3      H1             20.9575915875       12.3890700614        4.0697683134  W2        2553            0.0000000000
      7659      2553  TIP3      H2             20.0341015875       12.4079100614        5.2692183134  W2        2553            0.0000000000
      7660      2554  TIP3      OH2            32.3882715875       -2.4325199386       -8.4812616866  W2        2554            0.0000000000
      7661      2554  TIP3      H1             31.4883415875       -2.2936199386       -8.1862016866  W2        2554            0.0000000000
      7662      2554  TIP3      H2             32.6401115875       -1.6010599386       -8.8830916866  W2        2554            0.0000000000
      7663      2555  TIP3      OH2            20.4541215875        6.3552000614       -6.5075716866  W2        2555            0.0000000000
      7664      2555  TIP3      H1             20.1622515875        7.1233700614       -6.9984416866  W2        2555            0.0000000000
      7665      2555  TIP3      H2             19.7796415875        5.6958200614       -6.6704316866  W2        2555            0.0000000000
      7666      2556  TIP3      OH2            33.5774115875       11.9337200614      -10.1048716866  W2        2556            0.0000000000
      7667      2556  TIP3      H1             33.6507615875       12.8727400614       -9.9343416866  W2        2556            0.0000000000
      7668      2556  TIP3      H2             34.4829215875       11.6285800614      -10.1611416866  W2        2556            0.0000000000
      7669      2557  TIP3      OH2            16.5471315875        8.7181200614        2.3074083134  W2        2557            0.0000000000
      7670      2557  TIP3      H1             16.0459715875        8.6900600614        1.4923783134  W2        2557            0.0000000000
      7671      2557  TIP3      H2             16.5525015875        7.8124400614        2.6171383134  W2        2557            0.0000000000
      7672      2558  TIP3      OH2            16.2974015875       11.4985000614       -0.8085716866  W2        2558            0.0000000000
      7673      2558  TIP3      H1             17.2434615875       11.3542000614       -0.8276216866  W2        2558            0.0000000000
      7674      2558  TIP3      H2             16.1850315875       12.2827800614       -0.2714516866  W2        2558            0.0000000000
      7675      2559  TIP3      OH2            34.4952515875       12.1644700614        4.8737983134  W2        2559            0.0000000000
      7676      2559  TIP3      H1             34.4459315875       11.2092800614        4.8365583134  W2        2559            0.0000000000
      7677      2559  TIP3      H2             33.6684815875       12.4320000614        5.2751783134  W2        2559            0.0000000000
      7678      2560  TIP3      OH2            25.4736515875       11.7383900614        3.7499383134  W2        2560            0.0000000000
      7679      2560  TIP3      H1             25.5611115875       12.5648500614        4.2248483134  W2        2560            0.0000000000
      7680      2560  TIP3      H2             24.6101615875       11.4087700614        3.9988683134  W2        2560            0.0000000000
      7681      2561  TIP3      OH2            25.8882315875       15.5107600614       -6.4440016866  W2        2561            0.0000000000
      7682      2561  TIP3      H1             25.8128315875       15.3894800614       -7.3904816866  W2        2561            0.0000000000
      7683      2561  TIP3      H2             25.9211015875       16.4600300614       -6.3255416866  W2        2561            0.0000000000
      7684      2562  TIP3      OH2            19.5416115875       14.2994600614       -4.6631016866  W2        2562            0.0000000000
      7685      2562  TIP3      H1             19.6936515875       13.9515000614       -3.7844516866  W2        2562            0.0000000000
      7686      2562  TIP3      H2             18.6906515875       13.9431900614       -4.9183816866  W2        2562            0.0000000000
      7687      2563  TIP3      OH2            28.9898315875       14.6647800614       -9.4417616866  W2        2563            0.0000000000
      7688      2563  TIP3      H1             29.3646715875       13.9203900614       -9.9125016866  W2        2563            0.0000000000
      7689      2563  TIP3      H2             28.9942015875       14.3948400614       -8.5234316866  W2        2563            0.0000000000
      7690      2564  TIP3      OH2            28.6586415875       14.5904900614       -6.6925416866  W2        2564            0.0000000000
      7691      2564  TIP3      H1             27.7236215875       14.6906800614       -6.5138416866  W2        2564            0.0000000000
      7692      2564  TIP3      H2             28.9388315875       13.8810900614       -6.1142216866  W2        2564            0.0000000000
      7693      2565  TIP3      OH2            31.6472315875        3.6577200614        5.3540183134  W2        2565            0.0000000000
      7694      2565  TIP3      H1             31.2399115875        4.1382800614        4.6333483134  W2        2565            0.0000000000
      7695      2565  TIP3      H2             31.6878015875        2.7523200614        5.0460983134  W2        2565            0.0000000000
      7696      2566  TIP3      OH2            18.7961815875       10.0416600614        3.3506883134  W2        2566            0.0000000000
      7697      2566  TIP3      H1             19.0123115875        9.6802200614        4.2102683134  W2        2566            0.0000000000
      7698      2566  TIP3      H2             17.9406515875        9.6670400614        3.1410383134  W2        2566            0.0000000000
      7699      2567  TIP3      OH2            21.4149815875       -1.4882899386       -0.6538916866  W2        2567            0.0000000000
      7700      2567  TIP3      H1             20.5533515875       -1.5754699386       -1.0616016866  W2        2567            0.0000000000
      7701      2567  TIP3      H2             21.3925515875       -0.6322799386       -0.2261316866  W2        2567            0.0000000000
      7702      2568  TIP3      OH2            26.0777615875       -1.7662499386        2.7208083134  W2        2568            0.0000000000
      7703      2568  TIP3      H1             26.4980715875       -2.1815399386        3.4738683134  W2        2568            0.0000000000
      7704      2568  TIP3      H2             25.1447215875       -1.9449199386        2.8380083134  W2        2568            0.0000000000
      7705      2569  TIP3      OH2            29.4042515875        1.9892700614        3.5742583134  W2        2569            0.0000000000
      7706      2569  TIP3      H1             28.8902015875        1.8634900614        4.3718583134  W2        2569            0.0000000000
      7707      2569  TIP3      H2             29.2487215875        2.9015800614        3.3298783134  W2        2569            0.0000000000
      7708      2570  TIP3      OH2            30.1667415875        6.8502700614      -10.6644416866  W2        2570            0.0000000000
      7709      2570  TIP3      H1             30.2088215875        6.6276600614      -11.5944416866  W2        2570            0.0000000000
      7710      2570  TIP3      H2             31.0159515875        7.2489800614      -10.4744516866  W2        2570            0.0000000000
      7711      2571  TIP3      OH2            25.7394915875        0.7260900614       -9.9941116866  W2        2571            0.0000000000
      7712      2571  TIP3      H1             25.4859715875        0.7452500614       -9.0713016866  W2        2571            0.0000000000
      7713      2571  TIP3      H2             25.4827015875       -0.1453699386      -10.2954916866  W2        2571            0.0000000000
      7714      2572  TIP3      OH2            21.5059915875        3.4771600614        0.4411283134  W2        2572            0.0000000000
      7715      2572  TIP3      H1             20.8642015875        3.4368900614        1.1501383134  W2        2572            0.0000000000
      7716      2572  TIP3      H2             21.5431915875        4.4036300614        0.2034283134  W2        2572            0.0000000000
      7717      2573  TIP3      OH2            21.5029015875        3.6981700614       -4.6468716866  W2        2573            0.0000000000
      7718      2573  TIP3      H1             20.6101915875        3.3577800614       -4.7054916866  W2        2573            0.0000000000
      7719      2573  TIP3      H2             21.9535615875        3.3212600614       -5.4025516866  W2        2573            0.0000000000
      7720      2574  TIP3      OH2            27.0384515875        4.1142000614       -5.8297916866  W2        2574            0.0000000000
      7721      2574  TIP3      H1             26.6294815875        4.9290600614       -6.1213116866  W2        2574            0.0000000000
      7722      2574  TIP3      H2             27.7590715875        3.9742100614       -6.4440816866  W2        2574            0.0000000000
      7723      2575  TIP3      OH2            26.1406115875        4.2898400614        5.6582783134  W2        2575            0.0000000000
      7724      2575  TIP3      H1             25.5779915875        3.5850000614        5.9790583134  W2        2575            0.0000000000
      7725      2575  TIP3      H2             26.9669515875        4.1690300614        6.1260383134  W2        2575            0.0000000000
      7726      2576  TIP3      OH2            28.0432215875        3.5602400614       -3.0158216866  W2        2576            0.0000000000
      7727      2576  TIP3      H1             27.8476715875        4.1659200614       -3.7307616866  W2        2576            0.0000000000
      7728      2576  TIP3      H2             28.2244815875        2.7267600614       -3.4501916866  W2        2576            0.0000000000
      7729      2577  TIP3      OH2            19.2560415875        3.7975100614        2.3083283134  W2        2577            0.0000000000
      7730      2577  TIP3      H1             19.2179815875        4.1976700614        3.1770383134  W2        2577            0.0000000000
      7731      2577  TIP3      H2             18.7651515875        2.9807500614        2.3986183134  W2        2577            0.0000000000
      7732      2578  TIP3      OH2            22.6217815875        1.1717400614      -10.8930716866  W2        2578            0.0000000000
      7733      2578  TIP3      H1             22.1908515875        0.7267500614      -10.1633316866  W2        2578            0.0000000000
      7734      2578  TIP3      H2             21.9036515875        1.5433700614      -11.4053216866  W2        2578            0.0000000000
      7735      2579  TIP3      OH2            15.8641215875        0.9136900614       -3.8412016866  W2        2579            0.0000000000
      7736      2579  TIP3      H1             16.4948915875        0.8849000614       -3.1218116866  W2        2579            0.0000000000
      7737      2579  TIP3      H2             16.3135515875        0.4885600614       -4.5716116866  W2        2579            0.0000000000
      7738      2580  TIP3      OH2            17.1383315875        1.6598900614       -8.4171616866  W2        2580            0.0000000000
      7739      2580  TIP3      H1             17.6125015875        2.2508800614       -9.0020716866  W2        2580            0.0000000000
      7740      2580  TIP3      H2             16.4209715875        2.1901800614       -8.0701516866  W2        2580            0.0000000000
      7741      2581  TIP3      OH2            27.3071415875        5.1983700614        1.6554183134  W2        2581            0.0000000000
      7742      2581  TIP3      H1             27.6306215875        4.5673400614        1.0124683134  W2        2581            0.0000000000
      7743      2581  TIP3      H2             26.8670715875        4.6635900614        2.3161583134  W2        2581            0.0000000000
      7744      2582  TIP3      OH2            24.0844315875        1.1259200614       -3.5604616866  W2        2582            0.0000000000
      7745      2582  TIP3      H1             23.1735415875        1.1826000614       -3.2718616866  W2        2582            0.0000000000
      7746      2582  TIP3      H2             24.5897215875        1.0654700614       -2.7497416866  W2        2582            0.0000000000
      7747      2583  TIP3      OH2            18.9127715875        2.7545500614       -4.7337016866  W2        2583            0.0000000000
      7748      2583  TIP3      H1             18.0235715875        2.8541000614       -5.0737416866  W2        2583            0.0000000000
      7749      2583  TIP3      H2             19.2092615875        1.9128500614       -5.0799116866  W2        2583            0.0000000000
      7750      2584  TIP3      OH2            22.5659515875        2.7548100614       -7.0772416866  W2        2584            0.0000000000
      7751      2584  TIP3      H1             23.4975015875        2.8838100614       -6.8989316866  W2        2584            0.0000000000
      7752      2584  TIP3      H2             22.3509815875        3.4242400614       -7.7267716866  W2        2584            0.0000000000
      7753      2585  TIP3      OH2            28.4896215875        0.3605500614       -0.2962816866  W2        2585            0.0000000000
      7754      2585  TIP3      H1             27.8127815875        0.4918600614        0.3676883134  W2        2585            0.0000000000
      7755      2585  TIP3      H2             28.0041115875        0.2055000614       -1.1065116866  W2        2585            0.0000000000
      7756      2586  TIP3      OH2            21.2399715875        3.9490300614       -9.5106316866  W2        2586            0.0000000000
      7757      2586  TIP3      H1             20.6974815875        3.5694100614      -10.2018716866  W2        2586            0.0000000000
      7758      2586  TIP3      H2             22.0734615875        4.1435000614       -9.9392216866  W2        2586            0.0000000000
      7759      2587  TIP3      OH2            31.7771315875       16.0320900614        5.9804783134  W2        2587            0.0000000000
      7760      2587  TIP3      H1             31.9770015875       16.4562800614        5.1460083134  W2        2587            0.0000000000
      7761      2587  TIP3      H2             32.4325015875       16.3759100614        6.5875183134  W2        2587            0.0000000000
      7762      2588  TIP3      OH2            19.3751115875        8.5062200614        5.5885283134  W2        2588            0.0000000000
      7763      2588  TIP3      H1             20.1073515875        8.7608100614        6.1499783134  W2        2588            0.0000000000
      7764      2588  TIP3      H2             18.5949815875        8.7107600614        6.1040683134  W2        2588            0.0000000000
      7765      2589  TIP3      OH2            25.4044015875        3.9132200614       -1.6735016866  W2        2589            0.0000000000
      7766      2589  TIP3      H1             25.9687415875        3.3668800614       -2.2205416866  W2        2589            0.0000000000
      7767      2589  TIP3      H2             25.2567415875        3.3914100614       -0.8847416866  W2        2589            0.0000000000
      7768      2590  TIP3      OH2            20.4063715875        0.0498300614       -5.2550216866  W2        2590            0.0000000000
      7769      2590  TIP3      H1             20.0893215875       -0.8526399386       -5.2904816866  W2        2590            0.0000000000
      7770      2590  TIP3      H2             21.1877815875        0.0515700614       -5.8078616866  W2        2590            0.0000000000
      7771      2591  TIP3      OH2            24.0309915875        2.3018300614        0.7405383134  W2        2591            0.0000000000
      7772      2591  TIP3      H1             23.1955215875        2.7557800614        0.8507783134  W2        2591            0.0000000000
      7773      2591  TIP3      H2             24.5550515875        2.5776800614        1.4925283134  W2        2591            0.0000000000
      7774      2592  TIP3      OH2            24.5752515875        8.5146000614       -7.5748216866  W2        2592            0.0000000000
      7775      2592  TIP3      H1             23.8303515875        8.0071300614       -7.8970316866  W2        2592            0.0000000000
      7776      2592  TIP3      H2             24.4409715875        8.5634000614       -6.6283416866  W2        2592            0.0000000000
      7777      2593  TIP3      OH2            31.7251415875        7.6474200614        1.2119383134  W2        2593            0.0000000000
      7778      2593  TIP3      H1             32.3670215875        8.1040500614        0.6681583134  W2        2593            0.0000000000
      7779      2593  TIP3      H2             30.8948315875        7.7606600614        0.7493483134  W2        2593            0.0000000000
      7780      2594  TIP3      OH2            28.4729315875        1.3285900614       -9.3755616866  W2        2594            0.0000000000
      7781      2594  TIP3      H1             27.5343515875        1.4401500614       -9.5266816866  W2        2594            0.0000000000
      7782      2594  TIP3      H2             28.7701415875        2.1852800614       -9.0689916866  W2        2594            0.0000000000
      7783      2595  TIP3      OH2            26.0944615875        8.6989300614        3.6620883134  W2        2595            0.0000000000
      7784      2595  TIP3      H1             25.7490715875        8.3171700614        4.4690483134  W2        2595            0.0000000000
      7785      2595  TIP3      H2             25.8944715875        9.6322900614        3.7333783134  W2        2595            0.0000000000
      7786      2596  TIP3      OH2            29.1912815875        3.1958600614       -7.7148216866  W2        2596            0.0000000000
      7787      2596  TIP3      H1             30.0831815875        3.0583600614       -7.3957016866  W2        2596            0.0000000000
      7788      2596  TIP3      H2             29.2476415875        3.9864700614       -8.2514716866  W2        2596            0.0000000000
      7789      2597  TIP3      OH2            19.7000815875        7.8096000614       -1.8050316866  W2        2597            0.0000000000
      7790      2597  TIP3      H1             20.4448015875        7.8071700614       -2.4063816866  W2        2597            0.0000000000
      7791      2597  TIP3      H2             19.7777415875        6.9859800614       -1.3235216866  W2        2597            0.0000000000
      7792      2598  TIP3      OH2            26.7006615875        9.9730300614       -8.5493616866  W2        2598            0.0000000000
      7793      2598  TIP3      H1             26.4055015875       10.7998200614       -8.1678816866  W2        2598            0.0000000000
      7794      2598  TIP3      H2             25.9976615875        9.3537200614       -8.3532216866  W2        2598            0.0000000000
      7795      2599  TIP3      OH2            16.7080515875        6.2702900614        3.5098183134  W2        2599            0.0000000000
      7796      2599  TIP3      H1             16.9309115875        5.8522500614        4.3415683134  W2        2599            0.0000000000
      7797      2599  TIP3      H2             16.1060615875        5.6577900614        3.0870983134  W2        2599            0.0000000000
      7798      2600  TIP3      OH2            23.7245415875        5.7872800614        5.7227883134  W2        2600            0.0000000000
      7799      2600  TIP3      H1             23.4286215875        5.6215800614        4.8276983134  W2        2600            0.0000000000
      7800      2600  TIP3      H2             24.6560615875        5.5673100614        5.7121783134  W2        2600            0.0000000000
      7801      2601  TIP3      OH2            28.3448215875       11.1604800614        3.6125883134  W2        2601            0.0000000000
      7802      2601  TIP3      H1             27.4442515875       11.3437400614        3.3449783134  W2        2601            0.0000000000
      7803      2601  TIP3      H2             28.3789315875       11.4194100614        4.5334683134  W2        2601            0.0000000000
      7804      2602  TIP3      OH2            34.0761515875        3.4052700614       -8.0201516866  W2        2602            0.0000000000
      7805      2602  TIP3      H1             33.5217815875        3.0090700614       -8.6924016866  W2        2602            0.0000000000
      7806      2602  TIP3      H2             34.1765115875        4.3157900614       -8.2978216866  W2        2602            0.0000000000
      7807      2603  TIP3      OH2            34.0393515875        9.2054400614        4.8169983134  W2        2603            0.0000000000
      7808      2603  TIP3      H1             33.1882015875        9.4438200614        4.4496383134  W2        2603            0.0000000000
      7809      2603  TIP3      H2             34.6296915875        9.1887600614        4.0637083134  W2        2603            0.0000000000
      7810      2604  TIP3      OH2            32.3713215875       12.1913100614       -7.5549416866  W2        2604            0.0000000000
      7811      2604  TIP3      H1             31.9984315875       11.3656900614       -7.2458816866  W2        2604            0.0000000000
      7812      2604  TIP3      H2             32.6486715875       12.0082500614       -8.4526016866  W2        2604            0.0000000000
      7813      2605  TIP3      OH2            29.5317115875        6.9992600614       -0.5337516866  W2        2605            0.0000000000
      7814      2605  TIP3      H1             28.6034015875        6.7674500614       -0.5608216866  W2        2605            0.0000000000
      7815      2605  TIP3      H2             29.9828215875        6.2222400614       -0.8638716866  W2        2605            0.0000000000
      7816      2606  TIP3      OH2            22.0750215875       11.3274200614       -4.4008816866  W2        2606            0.0000000000
      7817      2606  TIP3      H1             22.6022415875       12.1008600614       -4.6010016866  W2        2606            0.0000000000
      7818      2606  TIP3      H2             21.1948715875       11.5523400614       -4.7024816866  W2        2606            0.0000000000
      7819      2607  TIP3      OH2            17.8297915875        6.1898300614       -9.8136416866  W2        2607            0.0000000000
      7820      2607  TIP3      H1             18.4457815875        6.8165500614       -9.4341616866  W2        2607            0.0000000000
      7821      2607  TIP3      H2             16.9680515875        6.5058100614       -9.5419916866  W2        2607            0.0000000000
      7822      2608  TIP3      OH2            23.5022515875        8.9904100614       -4.8244516866  W2        2608            0.0000000000
      7823      2608  TIP3      H1             23.2612515875        9.9158500614       -4.7829216866  W2        2608            0.0000000000
      7824      2608  TIP3      H2             22.7616115875        8.5315400614       -4.4280616866  W2        2608            0.0000000000
      7825      2609  TIP3      OH2            24.0169115875       13.1397700614        1.4906583134  W2        2609            0.0000000000
      7826      2609  TIP3      H1             24.3793815875       13.9943300614        1.2570983134  W2        2609            0.0000000000
      7827      2609  TIP3      H2             24.5484315875       12.8479300614        2.2312883134  W2        2609            0.0000000000
      7828      2610  TIP3      OH2            22.1853315875       14.0121700614       -5.2792316866  W2        2610            0.0000000000
      7829      2610  TIP3      H1             21.2353815875       14.1179100614       -5.2279016866  W2        2610            0.0000000000
      7830      2610  TIP3      H2             22.5371415875       14.8329100614       -4.9344816866  W2        2610            0.0000000000
      7831      2611  TIP3      OH2            27.5609915875        9.2388400614        1.1912183134  W2        2611            0.0000000000
      7832      2611  TIP3      H1             27.1351215875        9.0110100614        2.0176183134  W2        2611            0.0000000000
      7833      2611  TIP3      H2             28.1415715875        8.5000200614        1.0087483134  W2        2611            0.0000000000
      7834      2612  TIP3      OH2            29.7638815875       10.1678900614       -9.7348816866  W2        2612            0.0000000000
      7835      2612  TIP3      H1             30.1171915875        9.7878700614       -8.9305316866  W2        2612            0.0000000000
      7836      2612  TIP3      H2             28.8152315875       10.0743700614       -9.6479516866  W2        2612            0.0000000000
      7837      2613  TIP3      OH2            30.2194115875       13.7907900614        3.6606983134  W2        2613            0.0000000000
      7838      2613  TIP3      H1             29.6177315875       13.2350800614        3.1653283134  W2        2613            0.0000000000
      7839      2613  TIP3      H2             30.5007815875       14.4577700614        3.0344383134  W2        2613            0.0000000000
      7840      2614  TIP3      OH2            34.2673215875       14.6471400614       -9.5338616866  W2        2614            0.0000000000
      7841      2614  TIP3      H1             35.0111115875       15.2331900614       -9.6737016866  W2        2614            0.0000000000
      7842      2614  TIP3      H2             33.5731315875       15.2157200614       -9.2006216866  W2        2614            0.0000000000
      7843      2615  TIP3      OH2            18.3420015875        1.0235600614        3.0679583134  W2        2615            0.0000000000
      7844      2615  TIP3      H1             17.4492315875        1.3621000614        3.0003583134  W2        2615            0.0000000000
      7845      2615  TIP3      H2             18.2432815875        0.1681700614        3.4860383134  W2        2615            0.0000000000
      7846      2616  TIP3      OH2            30.6298115875        8.8400900614       -7.5080916866  W2        2616            0.0000000000
      7847      2616  TIP3      H1             30.3525715875        8.1120200614       -6.9519816866  W2        2616            0.0000000000
      7848      2616  TIP3      H2             31.5571115875        8.9592900614       -7.3028316866  W2        2616            0.0000000000
      7849      2617  TIP3      OH2            17.9932015875       12.8280000614        1.5028983134  W2        2617            0.0000000000
      7850      2617  TIP3      H1             18.2102315875       11.8962400614        1.4718683134  W2        2617            0.0000000000
      7851      2617  TIP3      H2             18.2395515875       13.1025000614        2.3861783134  W2        2617            0.0000000000
      7852      2618  TIP3      OH2            23.8546615875       11.2795000614      -11.2878816866  W2        2618            0.0000000000
      7853      2618  TIP3      H1             24.0936415875       10.5313100614      -11.8349916866  W2        2618            0.0000000000
      7854      2618  TIP3      H2             23.5857915875       10.8916700614      -10.4551016866  W2        2618            0.0000000000
      7855      2619  TIP3      OH2            22.7917215875       10.8498800614       -8.8316216866  W2        2619            0.0000000000
      7856      2619  TIP3      H1             22.9385215875       10.3298600614       -8.0415316866  W2        2619            0.0000000000
      7857      2619  TIP3      H2             22.7888915875       11.7566400614       -8.5250316866  W2        2619            0.0000000000
      7858      2620  TIP3      OH2            19.2448315875        8.1022100614       -8.3210816866  W2        2620            0.0000000000
      7859      2620  TIP3      H1             18.5587615875        8.4544600614       -7.7541116866  W2        2620            0.0000000000
      7860      2620  TIP3      H2             19.7676215875        8.8651700614       -8.5676516866  W2        2620            0.0000000000
      7861      2621  TIP3      OH2            27.0763415875        0.7645900614        1.9578183134  W2        2621            0.0000000000
      7862      2621  TIP3      H1             27.7751315875        0.8384600614        2.6077883134  W2        2621            0.0000000000
      7863      2621  TIP3      H2             26.6954815875       -0.0999099386        2.1121083134  W2        2621            0.0000000000
      7864      2622  TIP3      OH2            27.8608315875        0.4167600614       -6.9449516866  W2        2622            0.0000000000
      7865      2622  TIP3      H1             28.0806615875        0.8883000614       -7.7484116866  W2        2622            0.0000000000
      7866      2622  TIP3      H2             28.4192315875        0.8110200614       -6.2748916866  W2        2622            0.0000000000
      7867      2623  TIP3      OH2            25.5294415875       12.5472400614       -8.0822016866  W2        2623            0.0000000000
      7868      2623  TIP3      H1             24.7130515875       13.0442100614       -8.0297716866  W2        2623            0.0000000000
      7869      2623  TIP3      H2             26.0590715875       13.0225900614       -8.7223216866  W2        2623            0.0000000000
      7870      2624  TIP3      OH2            25.0608215875        2.1446400614       -6.1101116866  W2        2624            0.0000000000
      7871      2624  TIP3      H1             25.8730815875        2.6489600614       -6.0639416866  W2        2624            0.0000000000
      7872      2624  TIP3      H2             24.8161215875        1.9996100614       -5.1961516866  W2        2624            0.0000000000
      7873      2625  TIP3      OH2            25.5964615875        3.1309100614        3.0745483134  W2        2625            0.0000000000
      7874      2625  TIP3      H1             25.7154915875        3.7044500614        3.8315883134  W2        2625            0.0000000000
      7875      2625  TIP3      H2             26.2519215875        2.4428500614        3.1893283134  W2        2625            0.0000000000
      7876      2626  TIP3      OH2            25.9444915875       -0.7740599386       -5.1720016866  W2        2626            0.0000000000
      7877      2626  TIP3      H1             25.5978415875       -0.1569999386       -4.5275716866  W2        2626            0.0000000000
      7878      2626  TIP3      H2             26.6031815875       -0.2734899386       -5.6534516866  W2        2626            0.0000000000
      7879      2627  TIP3      OH2            22.8677515875       13.5909600614       -8.1005116866  W2        2627            0.0000000000
      7880      2627  TIP3      H1             23.0286215875       14.3907100614       -8.6012516866  W2        2627            0.0000000000
      7881      2627  TIP3      H2             22.6705315875       13.8975600614       -7.2154516866  W2        2627            0.0000000000
      7882      2628  TIP3      OH2            21.6021915875        0.2888800614       -8.4847516866  W2        2628            0.0000000000
      7883      2628  TIP3      H1             21.5186715875        1.1771900614       -8.1381116866  W2        2628            0.0000000000
      7884      2628  TIP3      H2             22.4922215875        0.0235500614       -8.2530716866  W2        2628            0.0000000000
      7885      2629  TIP3      OH2            31.8010415875        1.0379400614        3.9095183134  W2        2629            0.0000000000
      7886      2629  TIP3      H1             30.8846215875        1.3001100614        3.8218883134  W2        2629            0.0000000000
      7887      2629  TIP3      H2             32.1365415875        1.0348400614        3.0130483134  W2        2629            0.0000000000
      7888      2630  TIP3      OH2            30.4031415875        4.7880400614       -1.9947516866  W2        2630            0.0000000000
      7889      2630  TIP3      H1             29.6055815875        4.3730600614       -2.3232516866  W2        2630            0.0000000000
      7890      2630  TIP3      H2             30.8482515875        4.0974100614       -1.5037016866  W2        2630            0.0000000000
      7891      2631  TIP3      OH2            19.8607215875       10.7161000614       -9.4243016866  W2        2631            0.0000000000
      7892      2631  TIP3      H1             20.4528715875       11.4155800614       -9.1480616866  W2        2631            0.0000000000
      7893      2631  TIP3      H2             20.3200215875       10.2830500614      -10.1438416866  W2        2631            0.0000000000
      7894      2632  TIP3      OH2            18.1766415875        3.3804000614      -10.3083616866  W2        2632            0.0000000000
      7895      2632  TIP3      H1             18.1319015875        4.3197100614      -10.1296616866  W2        2632            0.0000000000
      7896      2632  TIP3      H2             17.2889615875        3.1448900614      -10.5781516866  W2        2632            0.0000000000
      7897      2633  TIP3      OH2            31.4896015875       14.0442900614       -0.3724016866  W2        2633            0.0000000000
      7898      2633  TIP3      H1             31.3340315875       14.7227300614       -1.0294716866  W2        2633            0.0000000000
      7899      2633  TIP3      H2             32.4222415875       14.1162200614       -0.1693416866  W2        2633            0.0000000000
      7900      2634  TIP3      OH2            18.9848415875       -1.8379399386       -1.6352616866  W2        2634            0.0000000000
      7901      2634  TIP3      H1             18.7558215875       -1.7786899386       -2.5627616866  W2        2634            0.0000000000
      7902      2634  TIP3      H2             18.5421815875       -2.6293899386       -1.3288516866  W2        2634            0.0000000000
      7903      2635  TIP3      OH2            17.9151715875       12.1027700614       -5.4746816866  W2        2635            0.0000000000
      7904      2635  TIP3      H1             17.0830315875       12.5750400614       -5.4475416866  W2        2635            0.0000000000
      7905      2635  TIP3      H2             18.4610015875       12.6125300614       -6.0733716866  W2        2635            0.0000000000
      7906      2636  TIP3      OH2            17.2035415875       14.7151400614        5.8551183134  W2        2636            0.0000000000
      7907      2636  TIP3      H1             17.7437615875       14.4985400614        6.6150383134  W2        2636            0.0000000000
      7908      2636  TIP3      H2             16.7223415875       13.9097400614        5.6653683134  W2        2636            0.0000000000
      7909      2637  TIP3      OH2            21.8008815875       13.6345800614        7.4755383134  W2        2637            0.0000000000
      7910      2637  TIP3      H1             22.5686015875       13.1756600614        7.8164583134  W2        2637            0.0000000000
      7911      2637  TIP3      H2             21.7795015875       13.4085600614        6.5456583134  W2        2637            0.0000000000
      7912      2638  TIP3      OH2            25.8928415875       13.1426400614      -11.1492816866  W2        2638            0.0000000000
      7913      2638  TIP3      H1             25.2489415875       12.5115000614      -10.8279116866  W2        2638            0.0000000000
      7914      2638  TIP3      H2             26.6546715875       12.6114400614      -11.3809316866  W2        2638            0.0000000000
      7915      2639  TIP3      OH2            28.3777515875       12.0146900614        6.2046883134  W2        2639            0.0000000000
      7916      2639  TIP3      H1             28.0267015875       11.1579900614        6.4477283134  W2        2639            0.0000000000
      7917      2639  TIP3      H2             29.1040715875       12.1573600614        6.8115883134  W2        2639            0.0000000000
      7918      2640  TIP3      OH2            30.4971315875       12.9596300614      -10.9154816866  W2        2640            0.0000000000
      7919      2640  TIP3      H1             30.7801715875       12.1651500614      -10.4627916866  W2        2640            0.0000000000
      7920      2640  TIP3      H2             31.2369215875       13.1927300614      -11.4763716866  W2        2640            0.0000000000
      7921      2641  TIP3      OH2            17.1104915875        8.5255500614        6.8095483134  W2        2641            0.0000000000
      7922      2641  TIP3      H1             17.2545415875        7.6236200614        6.5232183134  W2        2641            0.0000000000
      7923      2641  TIP3      H2             16.3382315875        8.8117600614        6.3217783134  W2        2641            0.0000000000
      7924      2642  TIP3      OH2            21.4518615875        8.8691200614      -11.0579916866  W2        2642            0.0000000000
      7925      2642  TIP3      H1             21.5162715875        8.0750800614      -10.5273516866  W2        2642            0.0000000000
      7926      2642  TIP3      H2             22.1047815875        8.7504000614      -11.7477916866  W2        2642            0.0000000000
      7927      2643  TIP3      OH2            23.7661015875        8.4953600614        6.2421883134  W2        2643            0.0000000000
      7928      2643  TIP3      H1             23.4374815875        8.7661700614        5.3849283134  W2        2643            0.0000000000
      7929      2643  TIP3      H2             23.9179215875        7.5543400614        6.1546883134  W2        2643            0.0000000000
      7930      2644  TIP3      OH2            26.8042015875        9.9162900614      -11.3221916866  W2        2644            0.0000000000
      7931      2644  TIP3      H1             26.5356115875       10.0965000614      -10.4213016866  W2        2644            0.0000000000
      7932      2644  TIP3      H2             26.5977615875        8.9909100614      -11.4536116866  W2        2644            0.0000000000
      7933      2645  TIP3      OH2            29.5006215875        8.4110900614        3.6254183134  W2        2645            0.0000000000
      7934      2645  TIP3      H1             30.2461015875        8.9994600614        3.5058183134  W2        2645            0.0000000000
      7935      2645  TIP3      H2             28.7433015875        8.9930600614        3.6887283134  W2        2645            0.0000000000
      7936      2646  TIP3      OH2            17.9431415875        5.7258800614        6.2294783134  W2        2646            0.0000000000
      7937      2646  TIP3      H1             18.3512615875        4.8685400614        6.1085383134  W2        2646            0.0000000000
      7938      2646  TIP3      H2             17.6829015875        5.7400100614        7.1505083134  W2        2646            0.0000000000
      7939      2647  TIP3      OH2            22.6012415875        6.8417400614       -8.7521916866  W2        2647            0.0000000000
      7940      2647  TIP3      H1             22.1414415875        6.3575700614       -8.0663416866  W2        2647            0.0000000000
      7941      2647  TIP3      H2             22.8561115875        6.1732800614       -9.3881416866  W2        2647            0.0000000000
      7942      2648  TIP3      OH2            21.8901715875        4.7344500614        3.6037683134  W2        2648            0.0000000000
      7943      2648  TIP3      H1             21.2717815875        5.4091100614        3.8842383134  W2        2648            0.0000000000
      7944      2648  TIP3      H2             22.2342915875        5.0558400614        2.7703883134  W2        2648            0.0000000000
      7945      2649  TIP3      OH2            23.6722815875        5.0849200614      -10.4898716866  W2        2649            0.0000000000
      7946      2649  TIP3      H1             23.4917815875        4.9300400614      -11.4170416866  W2        2649            0.0000000000
      7947      2649  TIP3      H2             24.6223315875        5.1927900614      -10.4450816866  W2        2649            0.0000000000
      7948      2650  TIP3      OH2            26.9099915875        7.2059800614        6.8812483134  W2        2650            0.0000000000
      7949      2650  TIP3      H1             27.8631115875        7.2898900614        6.8538483134  W2        2650            0.0000000000
      7950      2650  TIP3      H2             26.7494515875        6.4941600614        7.5007383134  W2        2650            0.0000000000
      7951      2651  TIP3      OH2            33.0621115875        7.4393400614      -11.0440616866  W2        2651            0.0000000000
      7952      2651  TIP3      H1             32.7885915875        7.0148900614      -11.8572316866  W2        2651            0.0000000000
      7953      2651  TIP3      H2             33.1015215875        8.3707900614      -11.2610216866  W2        2651            0.0000000000
      7954      2652  TIP3      OH2            22.2295415875        2.0895300614        4.6860783134  W2        2652            0.0000000000
      7955      2652  TIP3      H1             22.3796315875        1.3606600614        4.0840483134  W2        2652            0.0000000000
      7956      2652  TIP3      H2             22.2317815875        2.8667000614        4.1272983134  W2        2652            0.0000000000
      7957      2653  TIP3      OH2            22.6421115875        0.4591100614        2.1788183134  W2        2653            0.0000000000
      7958      2653  TIP3      H1             23.1778615875        0.9107800614        1.5267483134  W2        2653            0.0000000000
      7959      2653  TIP3      H2             21.7900715875        0.3510900614        1.7562283134  W2        2653            0.0000000000
      7960      2654  TIP3      OH2            24.2239515875        5.8987300614        2.4183383134  W2        2654            0.0000000000
      7961      2654  TIP3      H1             24.9744315875        5.7424800614        1.8451183134  W2        2654            0.0000000000
      7962      2654  TIP3      H2             23.8847815875        6.7503900614        2.1428883134  W2        2654            0.0000000000
      7963      2655  TIP3      OH2            28.6395715875        3.7139100614        7.4468683134  W2        2655            0.0000000000
      7964      2655  TIP3      H1             28.8317015875        2.7828500614        7.3353183134  W2        2655            0.0000000000
      7965      2655  TIP3      H2             29.4972015875        4.1388600614        7.4364083134  W2        2655            0.0000000000
      7966      2656  TIP3      OH2            29.9562915875        6.5024300614        5.5241383134  W2        2656            0.0000000000
      7967      2656  TIP3      H1             29.6747915875        7.2118900614        4.9465183134  W2        2656            0.0000000000
      7968      2656  TIP3      H2             30.8987215875        6.4297300614        5.3732583134  W2        2656            0.0000000000
      7969      2657  TIP3      OH2            20.7081715875        3.2878800614        6.5976383134  W2        2657            0.0000000000
      7970      2657  TIP3      H1             19.9410715875        2.7553600614        6.3873983134  W2        2657            0.0000000000
      7971      2657  TIP3      H2             21.3870715875        2.9779200614        5.9982683134  W2        2657            0.0000000000
      7972      2658  TIP3      OH2            23.4476615875       -2.0843199386        2.6101783134  W2        2658            0.0000000000
      7973      2658  TIP3      H1             23.3496215875       -1.1379999386        2.5047983134  W2        2658            0.0000000000
      7974      2658  TIP3      H2             22.7052815875       -2.4569399386        2.1345283134  W2        2658            0.0000000000
      7975      2659  TIP3      OH2            24.7117115875        2.2372200614        6.1740183134  W2        2659            0.0000000000
      7976      2659  TIP3      H1             24.4762515875        2.0178900614        7.0755083134  W2        2659            0.0000000000
      7977      2659  TIP3      H2             23.9284015875        2.0303400614        5.6642683134  W2        2659            0.0000000000
      7978      2660  TIP3      OH2            27.4273715875        1.3645700614        5.2493683134  W2        2660            0.0000000000
      7979      2660  TIP3      H1             26.4799115875        1.3965400614        5.3816983134  W2        2660            0.0000000000
      7980      2660  TIP3      H2             27.7400415875        0.7392800614        5.9031883134  W2        2660            0.0000000000
      7981      2661  TIP3      OH2            29.0615215875       -0.0013199386        7.2545583134  W2        2661            0.0000000000
      7982      2661  TIP3      H1             28.9647015875       -0.9535899386        7.2487483134  W2        2661            0.0000000000
      7983      2661  TIP3      H2             28.7398315875        0.2673600614        8.1151083134  W2        2661            0.0000000000
      7984      2662  TIP3      OH2            18.8884515875        1.2082600614        6.3021083134  W2        2662            0.0000000000
      7985      2662  TIP3      H1             19.1001915875        0.5018700614        5.6918583134  W2        2662            0.0000000000
      7986      2662  TIP3      H2             18.7772015875        0.7708600614        7.1462283134  W2        2662            0.0000000000
      7987      2663  TIP3      OH2            23.6694715875       -2.7905799386        5.2814583134  W2        2663            0.0000000000
      7988      2663  TIP3      H1             24.3813115875       -3.4303599386        5.2673683134  W2        2663            0.0000000000
      7989      2663  TIP3      H2             23.5685115875       -2.5237499386        4.3677683134  W2        2663            0.0000000000
      7990      2664  TIP3      OH2            24.0232215875       -1.1077399386        7.3350883134  W2        2664            0.0000000000
      7991      2664  TIP3      H1             23.8914415875       -1.5833599386        6.5149383134  W2        2664            0.0000000000
      7992      2664  TIP3      H2             23.4239615875       -0.3633799386        7.2797983134  W2        2664            0.0000000000
      7993      2665  TIP3      OH2            23.5694515875       15.7752900614       -9.4885116866  W2        2665            0.0000000000
      7994      2665  TIP3      H1             24.5025215875       15.9331600614       -9.3446716866  W2        2665            0.0000000000
      7995      2665  TIP3      H2             23.3053315875       16.4505900614      -10.1133616866  W2        2665            0.0000000000
      7996      2666  TIP3      OH2            17.1379415875       10.4116700614      -10.0057016866  W2        2666            0.0000000000
      7997      2666  TIP3      H1             18.0518615875       10.4905600614       -9.7323116866  W2        2666            0.0000000000
      7998      2666  TIP3      H2             17.1452515875        9.7246300614      -10.6721416866  W2        2666            0.0000000000
      7999      2667  TIP3      OH2            15.7870015875       15.8045200614       -4.9283116866  W2        2667            0.0000000000
      8000      2667  TIP3      H1             15.1397115875       15.3426900614       -5.4611916866  W2        2667            0.0000000000
      8001      2667  TIP3      H2             16.1414615875       15.1328500614       -4.3456916866  W2        2667            0.0000000000
      8002      2668  TIP3      OH2            16.6569215875       13.8852200614       -3.1236916866  W2        2668            0.0000000000
      8003      2668  TIP3      H1             16.3226015875       13.0049500614       -2.9516716866  W2        2668            0.0000000000
      8004      2668  TIP3      H2             16.8791615875       14.2307200614       -2.2591316866  W2        2668            0.0000000000
      8005      2669  TIP3      OH2            34.2054015875       14.6948600614       -0.1432116866  W2        2669            0.0000000000
      8006      2669  TIP3      H1             34.1840715875       14.8797000614        0.7957283134  W2        2669            0.0000000000
      8007      2669  TIP3      H2             34.8960215875       15.2632600614       -0.4840716866  W2        2669            0.0000000000
      8008      2670  TIP3      OH2            33.7686915875       14.2619700614        2.7786983134  W2        2670            0.0000000000
      8009      2670  TIP3      H1             33.2815615875       13.5263800614        2.4074383134  W2        2670            0.0000000000
      8010      2670  TIP3      H2             34.3179615875       13.8683600614        3.4566383134  W2        2670            0.0000000000
      8011      2671  TIP3      OH2            32.2194215875       10.0517800614        7.4167283134  W2        2671            0.0000000000
      8012      2671  TIP3      H1             31.3535315875        9.9467500614        7.8109583134  W2        2671            0.0000000000
      8013      2671  TIP3      H2             32.5960115875       10.8101100614        7.8631983134  W2        2671            0.0000000000
      8014      2672  TIP3      OH2            33.5203915875        8.3081500614       -7.0690216866  W2        2672            0.0000000000
      8015      2672  TIP3      H1             34.3705315875        8.7292400614       -6.9418616866  W2        2672            0.0000000000
      8016      2672  TIP3      H2             33.5259015875        7.5681600614       -6.4618816866  W2        2672            0.0000000000
      8017      2673  TIP3      OH2            33.9149515875        6.3618900614       -5.2454516866  W2        2673            0.0000000000
      8018      2673  TIP3      H1             33.1884115875        5.8821500614       -4.8476916866  W2        2673            0.0000000000
      8019      2673  TIP3      H2             34.4962815875        6.5673600614       -4.5132916866  W2        2673            0.0000000000
      8020      2674  TIP3      OH2            33.6740715875        9.1466400614       -0.2976916866  W2        2674            0.0000000000
      8021      2674  TIP3      H1             34.5074915875        8.7686400614       -0.5783316866  W2        2674            0.0000000000
      8022      2674  TIP3      H2             33.7861015875       10.0897600614       -0.4167816866  W2        2674            0.0000000000
      8023      2675  TIP3      OH2            32.1603015875       12.0243900614        2.0091483134  W2        2675            0.0000000000
      8024      2675  TIP3      H1             31.5128315875       12.3495400614        2.6346683134  W2        2675            0.0000000000
      8025      2675  TIP3      H2             31.6427015875       11.5841600614        1.3349783134  W2        2675            0.0000000000
      8026      2676  TIP3      OH2            34.1832615875        6.2627400614       -8.8543216866  W2        2676            0.0000000000
      8027      2676  TIP3      H1             33.6613715875        6.6191500614       -9.5732316866  W2        2676            0.0000000000
      8028      2676  TIP3      H2             34.1501815875        6.9375200614       -8.1762316866  W2        2676            0.0000000000
      8029      2677  TIP3      OH2            32.5321615875        3.5023000614      -10.3036116866  W2        2677            0.0000000000
      8030      2677  TIP3      H1             32.6286015875        4.1690000614      -10.9836416866  W2        2677            0.0000000000
      8031      2677  TIP3      H2             32.3921215875        2.6869300614      -10.7850616866  W2        2677            0.0000000000
      8032      2678  TIP3      OH2            31.7016315875        4.8825400614       -4.6825816866  W2        2678            0.0000000000
      8033      2678  TIP3      H1             31.5515115875        3.9374000614       -4.7028016866  W2        2678            0.0000000000
      8034      2678  TIP3      H2             31.3480815875        5.1636800614       -3.8386716866  W2        2678            0.0000000000
      8035      2679  TIP3      OH2            16.7368715875        6.9607600614       -0.6722016866  W2        2679            0.0000000000
      8036      2679  TIP3      H1             16.9211615875        6.8789300614       -1.6079116866  W2        2679            0.0000000000
      8037      2679  TIP3      H2             17.5861615875        6.8364600614       -0.2485616866  W2        2679            0.0000000000
      8038      2680  TIP3      OH2            32.5579215875        6.8528700614        4.9562483134  W2        2680            0.0000000000
      8039      2680  TIP3      H1             33.1406515875        6.1181000614        5.1479683134  W2        2680            0.0000000000
      8040      2680  TIP3      H2             33.1218515875        7.6249000614        5.0028283134  W2        2680            0.0000000000
      8041      2681  TIP3      OH2            34.0546315875        4.7554500614        5.6407883134  W2        2681            0.0000000000
      8042      2681  TIP3      H1             33.1913015875        4.3766600614        5.4752583134  W2        2681            0.0000000000
      8043      2681  TIP3      H2             34.6590015875        4.0169300614        5.5663683134  W2        2681            0.0000000000
      8044      2682  TIP3      OH2            31.7795415875        0.9102800614      -11.1860616866  W2        2682            0.0000000000
      8045      2682  TIP3      H1             32.3901215875        0.5389600614      -10.5492416866  W2        2682            0.0000000000
      8046      2682  TIP3      H2             30.9426915875        0.4889700614      -10.9900616866  W2        2682            0.0000000000
      8047      2683  TIP3      OH2            31.4121115875        2.4651200614       -6.2200716866  W2        2683            0.0000000000
      8048      2683  TIP3      H1             31.6918215875        1.5581600614       -6.0959016866  W2        2683            0.0000000000
      8049      2683  TIP3      H2             32.1712815875        2.8992700614       -6.6091516866  W2        2683            0.0000000000
      8050      2684  TIP3      OH2            32.0239415875        3.0468600614       -0.7841816866  W2        2684            0.0000000000
      8051      2684  TIP3      H1             32.9567415875        3.2588500614       -0.8185816866  W2        2684            0.0000000000
      8052      2684  TIP3      H2             31.7886915875        3.1480700614        0.1381183134  W2        2684            0.0000000000
      8053      2685  TIP3      OH2            32.0531315875        3.7833900614        1.9917583134  W2        2685            0.0000000000
      8054      2685  TIP3      H1             31.2102615875        4.0514300614        2.3577383134  W2        2685            0.0000000000
      8055      2685  TIP3      H2             32.4955615875        4.6055800614        1.7808683134  W2        2685            0.0000000000
      8056      2686  TIP3      OH2            16.3343515875        2.2312600614        5.4686783134  W2        2686            0.0000000000
      8057      2686  TIP3      H1             17.2538415875        2.1090900614        5.7049883134  W2        2686            0.0000000000
      8058      2686  TIP3      H2             15.8848015875        1.4812300614        5.8580283134  W2        2686            0.0000000000
      8059      2687  TIP3      OH2            34.3362915875       -2.2365899386        7.3452583134  W2        2687            0.0000000000
      8060      2687  TIP3      H1             34.6859915875       -2.8902399386        6.7397283134  W2        2687            0.0000000000
      8061      2687  TIP3      H2             34.4832415875       -1.3991799386        6.9055183134  W2        2687            0.0000000000
      8062      2688  TIP3      OH2            32.0255915875       -0.2719499386       -6.1718716866  W2        2688            0.0000000000
      8063      2688  TIP3      H1             32.2080915875       -0.7207999386       -5.3463716866  W2        2688            0.0000000000
      8064      2688  TIP3      H2             31.4258815875       -0.8565099386       -6.6354116866  W2        2688            0.0000000000
      8065      2689  TIP3      OH2            17.5556015875        0.5434200614       -1.6400316866  W2        2689            0.0000000000
      8066      2689  TIP3      H1             18.0007615875       -0.2483299386       -1.3380616866  W2        2689            0.0000000000
      8067      2689  TIP3      H2             18.0219015875        1.2599400614       -1.2094716866  W2        2689            0.0000000000
      8068      2690  TIP3      OH2            15.8596315875        3.5427200614       -0.5710116866  W2        2690            0.0000000000
      8069      2690  TIP3      H1             16.3516115875        3.3217700614       -1.3618116866  W2        2690            0.0000000000
      8070      2690  TIP3      H2             16.2217215875        4.3830600614       -0.2900616866  W2        2690            0.0000000000
      8071      2691  TIP3      OH2            33.8560115875       -0.1271299386        5.6943883134  W2        2691            0.0000000000
      8072      2691  TIP3      H1             32.9385815875        0.1435800614        5.6587383134  W2        2691            0.0000000000
      8073      2691  TIP3      H2             33.9789515875       -0.6622899386        4.9103583134  W2        2691            0.0000000000
      8074      2692  TIP3      OH2            33.8922115875       -0.2041399386       -9.6438416866  W2        2692            0.0000000000
      8075      2692  TIP3      H1             34.3044715875       -0.9255699386      -10.1190416866  W2        2692            0.0000000000
      8076      2692  TIP3      H2             34.5738615875        0.4653200614       -9.5854116866  W2        2692            0.0000000000
      8077      2693  TIP3      OH2            16.1732815875       -0.1993699386       -6.5167716866  W2        2693            0.0000000000
      8078      2693  TIP3      H1             15.2481215875        0.0092900614       -6.6462216866  W2        2693            0.0000000000
      8079      2693  TIP3      H2             16.6272715875        0.2847100614       -7.2065416866  W2        2693            0.0000000000
      8080      2694  TIP3      OH2            30.9440015875       14.7848000614       -4.5710316866  W2        2694            0.0000000000
      8081      2694  TIP3      H1             31.5962915875       14.4370100614       -5.1791216866  W2        2694            0.0000000000
      8082      2694  TIP3      H2             31.4543815875       15.2731200614       -3.9250616866  W2        2694            0.0000000000
      8083      2695  TIP3      OH2            16.1368215875       -1.4614699386        1.8274783134  W2        2695            0.0000000000
      8084      2695  TIP3      H1             15.4718715875       -1.7074399386        2.4705683134  W2        2695            0.0000000000
      8085      2695  TIP3      H2             15.6939515875       -0.8394299386        1.2502783134  W2        2695            0.0000000000
      8086      2696  TIP3      OH2            18.3287515875       11.7139400614        5.9720583134  W2        2696            0.0000000000
      8087      2696  TIP3      H1             17.5080015875       11.8885900614        5.5115283134  W2        2696            0.0000000000
      8088      2696  TIP3      H2             18.0765315875       11.6404100614        6.8924983134  W2        2696            0.0000000000
      8089      2697  TIP3      OH2            21.2830415875       12.6880600614        2.2304583134  W2        2697            0.0000000000
      8090      2697  TIP3      H1             20.8581515875       13.4979100614        1.9479183134  W2        2697            0.0000000000
      8091      2697  TIP3      H2             22.1873215875       12.7734700614        1.9284383134  W2        2697            0.0000000000
      8092      2698  TIP3      OH2            25.5941815875       14.0870600614        5.1898283134  W2        2698            0.0000000000
      8093      2698  TIP3      H1             25.7789315875       13.7536700614        6.0678583134  W2        2698            0.0000000000
      8094      2698  TIP3      H2             26.4406315875       14.3969200614        4.8677483134  W2        2698            0.0000000000
      8095      2699  TIP3      OH2            27.9392215875       15.3729500614        4.4339683134  W2        2699            0.0000000000
      8096      2699  TIP3      H1             28.6161115875       14.7401800614        4.1938883134  W2        2699            0.0000000000
      8097      2699  TIP3      H2             28.2611015875       15.7740000614        5.2412983134  W2        2699            0.0000000000
      8098      2700  TIP3      OH2            32.8566015875       -2.0374999386        3.5134683134  W2        2700            0.0000000000
      8099      2700  TIP3      H1             32.0439515875       -1.7124699386        3.1259383134  W2        2700            0.0000000000
      8100      2700  TIP3      H2             33.0894515875       -2.7976499386        2.9803783134  W2        2700            0.0000000000
      8101      2701  TIP3      OH2            18.6847115875       15.9444500614        2.2779883134  W2        2701            0.0000000000
      8102      2701  TIP3      H1             17.9643515875       16.3845500614        1.8267583134  W2        2701            0.0000000000
      8103      2701  TIP3      H2             18.3191115875       15.6939200614        3.1263883134  W2        2701            0.0000000000
      8104      2702  TIP3      OH2            21.1519715875       15.5448400614        1.3077083134  W2        2702            0.0000000000
      8105      2702  TIP3      H1             20.2871915875       15.6166900614        1.7117183134  W2        2702            0.0000000000
      8106      2702  TIP3      H2             21.0968715875       16.0915700614        0.5239583134  W2        2702            0.0000000000
      8107      2703  TIP3      OH2            25.8625315875       15.4327300614        0.4833083134  W2        2703            0.0000000000
      8108      2703  TIP3      H1             25.4059315875       15.9617000614       -0.1708516866  W2        2703            0.0000000000
      8109      2703  TIP3      H2             26.0253315875       16.0358700614        1.2085383134  W2        2703            0.0000000000
      8110      2704  TIP3      OH2            28.1901615875       14.3106900614        1.4283383134  W2        2704            0.0000000000
      8111      2704  TIP3      H1             27.2855315875       14.4757100614        1.1625483134  W2        2704            0.0000000000
      8112      2704  TIP3      H2             28.6190215875       15.1639100614        1.3626783134  W2        2704            0.0000000000
      8113      2705  TIP3      OH2            30.7943515875       15.8806000614        1.7231183134  W2        2705            0.0000000000
      8114      2705  TIP3      H1             30.6125515875       16.7964900614        1.5126083134  W2        2705            0.0000000000
      8115      2705  TIP3      H2             30.9711315875       15.4703100614        0.8765783134  W2        2705            0.0000000000
      8116      2706  TIP3      OH2            18.0995215875       14.5677000614       -0.8118316866  W2        2706            0.0000000000
      8117      2706  TIP3      H1             18.0811215875       14.1422100614        0.0453983134  W2        2706            0.0000000000
      8118      2706  TIP3      H2             18.9043115875       14.2492000614       -1.2206116866  W2        2706            0.0000000000
      8119      2707  TIP3      OH2            20.2408315875       13.2775700614       -2.1568416866  W2        2707            0.0000000000
      8120      2707  TIP3      H1             20.0219015875       12.3613100614       -1.9872416866  W2        2707            0.0000000000
      8121      2707  TIP3      H2             21.0650515875       13.4176100614       -1.6907016866  W2        2707            0.0000000000
      8122      2708  TIP3      OH2            22.7780815875       13.7475000614       -1.3080416866  W2        2708            0.0000000000
      8123      2708  TIP3      H1             22.9906515875       12.8594000614       -1.5949516866  W2        2708            0.0000000000
      8124      2708  TIP3      H2             22.8425915875       13.7132700614       -0.3536416866  W2        2708            0.0000000000
      8125      2709  TIP3      OH2            26.2864515875       -0.5884399386       -2.1637116866  W2        2709            0.0000000000
      8126      2709  TIP3      H1             25.6121315875       -1.2178799386       -1.9081316866  W2        2709            0.0000000000
      8127      2709  TIP3      H2             26.8503715875       -1.0725499386       -2.7669216866  W2        2709            0.0000000000
      8128      2710  TIP3      OH2            31.4291715875       -2.4810399386       -2.0510016866  W2        2710            0.0000000000
      8129      2710  TIP3      H1             32.0329315875       -1.9334999386       -2.5529016866  W2        2710            0.0000000000
      8130      2710  TIP3      H2             30.5593715875       -2.1619999386       -2.2915916866  W2        2710            0.0000000000
      8131      2711  TIP3      OH2            33.1562115875       -1.3421699386       -3.7179116866  W2        2711            0.0000000000
      8132      2711  TIP3      H1             33.7679615875       -1.8565999386       -4.2445516866  W2        2711            0.0000000000
      8133      2711  TIP3      H2             33.5385515875       -0.4649599386       -3.6944716866  W2        2711            0.0000000000
      8134      2712  TIP3      OH2            18.6132015875       -1.9544099386       -4.3417216866  W2        2712            0.0000000000
      8135      2712  TIP3      H1             17.8361815875       -2.1889199386       -4.8491316866  W2        2712            0.0000000000
      8136      2712  TIP3      H2             19.1435615875       -2.7511999386       -4.3329216866  W2        2712            0.0000000000
      8137      2713  TIP3      OH2            17.4495415875       -2.1565999386       -8.5381116866  W2        2713            0.0000000000
      8138      2713  TIP3      H1             17.8886115875       -1.5455499386       -9.1297616866  W2        2713            0.0000000000
      8139      2713  TIP3      H2             16.8157815875       -1.6181899386       -8.0641116866  W2        2713            0.0000000000
      8140      2714  TIP3      OH2            23.1924615875       -2.0276999386       -4.5284116866  W2        2714            0.0000000000
      8141      2714  TIP3      H1             24.0668015875       -1.6392699386       -4.5579816866  W2        2714            0.0000000000
      8142      2714  TIP3      H2             23.0565415875       -2.2429199386       -3.6056916866  W2        2714            0.0000000000
      8143      2715  TIP3      OH2            28.7493015875       -1.9977199386       -2.8792416866  W2        2715            0.0000000000
      8144      2715  TIP3      H1             28.8254615875       -1.9025599386       -3.8286416866  W2        2715            0.0000000000
      8145      2715  TIP3      H2             28.4742215875       -2.9054299386       -2.7503316866  W2        2715            0.0000000000
      8146      2716  TIP3      OH2            30.1025615875       -1.9719399386       -7.1867416866  W2        2716            0.0000000000
      8147      2716  TIP3      H1             29.3996715875       -1.3570199386       -7.3966016866  W2        2716            0.0000000000
      8148      2716  TIP3      H2             29.6577015875       -2.8092699386       -7.0556516866  W2        2716            0.0000000000
      8149      2717  TIP3      OH2            17.3504915875       13.7916200614       -7.6406016866  W2        2717            0.0000000000
      8150      2717  TIP3      H1             16.6654815875       13.7535100614       -8.3080916866  W2        2717            0.0000000000
      8151      2717  TIP3      H2             17.3542115875       14.7043800614       -7.3523916866  W2        2717            0.0000000000
      8152      2718  TIP3      OH2            19.3104515875       -0.2404499386      -10.0957016866  W2        2718            0.0000000000
      8153      2718  TIP3      H1             19.8017915875       -0.8702099386      -10.6231516866  W2        2718            0.0000000000
      8154      2718  TIP3      H2             19.9340815875        0.0554900614       -9.4325816866  W2        2718            0.0000000000
      8155      2719  TIP3      OH2            24.3364615875        0.0527000614       -7.6386516866  W2        2719            0.0000000000
      8156      2719  TIP3      H1             24.5145915875       -0.5939799386       -6.9557916866  W2        2719            0.0000000000
      8157      2719  TIP3      H2             24.2830815875        0.8864700614       -7.1715416866  W2        2719            0.0000000000
      8158      2720  TIP3      OH2            26.2148415875       15.0011100614       -9.2429816866  W2        2720            0.0000000000
      8159      2720  TIP3      H1             27.0808615875       15.3678500614       -9.4211616866  W2        2720            0.0000000000
      8160      2720  TIP3      H2             25.9681215875       14.5619100614      -10.0569016866  W2        2720            0.0000000000
      8161      2721  TIP3      OH2            32.9238015875       14.5641400614       -6.5638716866  W2        2721            0.0000000000
      8162      2721  TIP3      H1             32.7295115875       13.8163500614       -7.1289116866  W2        2721            0.0000000000
      8163      2721  TIP3      H2             32.8848115875       15.3221500614       -7.1470816866  W2        2721            0.0000000000
      8164      2722  TIP3      OH2            18.5710015875       -1.4402199386        5.1758983134  W2        2722            0.0000000000
      8165      2722  TIP3      H1             18.2048215875       -2.2059599386        5.6183683134  W2        2722            0.0000000000
      8166      2722  TIP3      H2             19.4838515875       -1.4111999386        5.4624083134  W2        2722            0.0000000000
      8167      2723  TIP3      OH2            20.5440815875       -2.0897799386        6.7116083134  W2        2723            0.0000000000
      8168      2723  TIP3      H1             21.4424415875       -2.3637599386        6.5269483134  W2        2723            0.0000000000
      8169      2723  TIP3      H2             20.1573915875       -2.8321799386        7.1758683134  W2        2723            0.0000000000
      8170      2724  TIP3      OH2            19.1686115875       14.7117000614      -10.6153916866  W2        2724            0.0000000000
      8171      2724  TIP3      H1             18.9010715875       14.9979900614       -9.7420816866  W2        2724            0.0000000000
      8172      2724  TIP3      H2             19.9398715875       14.1656200614      -10.4631416866  W2        2724            0.0000000000
      8173      2725  TIP3      OH2            28.9653115875       -2.7572499386        6.8938883134  W2        2725            0.0000000000
      8174      2725  TIP3      H1             29.0420315875       -3.1831799386        7.7476583134  W2        2725            0.0000000000
      8175      2725  TIP3      H2             29.8589715875       -2.7437799386        6.5512383134  W2        2725            0.0000000000
      8176      2726  TIP3      OH2            32.1414215875       13.3153800614        5.5863083134  W2        2726            0.0000000000
      8177      2726  TIP3      H1             31.3596115875       13.1291800614        5.0663683134  W2        2726            0.0000000000
      8178      2726  TIP3      H2             32.0694115875       14.2448100614        5.8035583134  W2        2726            0.0000000000
      8179      2727  TIP3      OH2            37.8490915875        6.0711000614        0.6288383134  W2        2727            0.0000000000
      8180      2727  TIP3      H1             37.8903015875        5.4454300614        1.3520783134  W2        2727            0.0000000000
      8181      2727  TIP3      H2             38.5518615875        6.6949600614        0.8108783134  W2        2727            0.0000000000
      8182      2728  TIP3      OH2            38.7724015875       10.5209900614       -0.8362516866  W2        2728            0.0000000000
      8183      2728  TIP3      H1             38.4029215875        9.7190400614       -1.2058216866  W2        2728            0.0000000000
      8184      2728  TIP3      H2             39.7135115875       10.3524800614       -0.7899116866  W2        2728            0.0000000000
      8185      2729  TIP3      OH2            35.3824515875        4.1812500614       -5.4433716866  W2        2729            0.0000000000
      8186      2729  TIP3      H1             34.9347915875        5.0271200614       -5.4617216866  W2        2729            0.0000000000
      8187      2729  TIP3      H2             34.8215715875        3.6016700614       -5.9588616866  W2        2729            0.0000000000
      8188      2730  TIP3      OH2            36.0930615875        6.3432100614       -3.3175716866  W2        2730            0.0000000000
      8189      2730  TIP3      H1             36.3064115875        5.5733700614       -2.7902716866  W2        2730            0.0000000000
      8190      2730  TIP3      H2             36.8308215875        6.4328800614       -3.9208116866  W2        2730            0.0000000000
      8191      2731  TIP3      OH2            40.1655615875        1.3849100614       -2.9580916866  W2        2731            0.0000000000
      8192      2731  TIP3      H1             40.2086715875        2.2447600614       -3.3764616866  W2        2731            0.0000000000
      8193      2731  TIP3      H2             39.7079715875        0.8323800614       -3.5917716866  W2        2731            0.0000000000
      8194      2732  TIP3      OH2            36.7857115875        3.7814900614       -2.1959516866  W2        2732            0.0000000000
      8195      2732  TIP3      H1             37.4393715875        3.2316600614       -1.7639416866  W2        2732            0.0000000000
      8196      2732  TIP3      H2             36.8096415875        3.5073900614       -3.1127516866  W2        2732            0.0000000000
      8197      2733  TIP3      OH2            38.9757515875        0.3027500614        1.1159883134  W2        2733            0.0000000000
      8198      2733  TIP3      H1             38.7569215875        0.8328100614        0.3495883134  W2        2733            0.0000000000
      8199      2733  TIP3      H2             38.3078415875        0.5293000614        1.7631283134  W2        2733            0.0000000000
      8200      2734  TIP3      OH2            38.5694815875        2.1949300614       -0.9317916866  W2        2734            0.0000000000
      8201      2734  TIP3      H1             39.1831115875        2.8276900614       -0.5585516866  W2        2734            0.0000000000
      8202      2734  TIP3      H2             39.0815515875        1.7224300614       -1.5881016866  W2        2734            0.0000000000
      8203      2735  TIP3      OH2            39.9523215875        9.9426200614        2.1905083134  W2        2735            0.0000000000
      8204      2735  TIP3      H1             39.9470815875       10.8219700614        1.8124383134  W2        2735            0.0000000000
      8205      2735  TIP3      H2             39.0987315875        9.8590300614        2.6154983134  W2        2735            0.0000000000
      8206      2736  TIP3      OH2            36.0734115875        9.6134100614       -7.0275616866  W2        2736            0.0000000000
      8207      2736  TIP3      H1             35.8015015875        9.8425100614       -7.9162716866  W2        2736            0.0000000000
      8208      2736  TIP3      H2             36.1189815875       10.4512900614       -6.5670316866  W2        2736            0.0000000000
      8209      2737  TIP3      OH2            40.3198515875        7.2857700614       -4.0968516866  W2        2737            0.0000000000
      8210      2737  TIP3      H1             39.9893715875        6.9151100614       -4.9151516866  W2        2737            0.0000000000
      8211      2737  TIP3      H2             40.9082615875        6.6151700614       -3.7500216866  W2        2737            0.0000000000
      8212      2738  TIP3      OH2            38.4864615875        6.6517100614        3.4824083134  W2        2738            0.0000000000
      8213      2738  TIP3      H1             38.5567815875        7.3023900614        4.1809083134  W2        2738            0.0000000000
      8214      2738  TIP3      H2             37.5956815875        6.7544600614        3.1474983134  W2        2738            0.0000000000
      8215      2739  TIP3      OH2            39.8060615875       12.5251000614        5.0172183134  W2        2739            0.0000000000
      8216      2739  TIP3      H1             39.8135915875       12.3890700614        4.0697683134  W2        2739            0.0000000000
      8217      2739  TIP3      H2             38.8901015875       12.4079100614        5.2692183134  W2        2739            0.0000000000
      8218      2740  TIP3      OH2            39.3101215875        6.3552000614       -6.5075716866  W2        2740            0.0000000000
      8219      2740  TIP3      H1             39.0182515875        7.1233700614       -6.9984416866  W2        2740            0.0000000000
      8220      2740  TIP3      H2             38.6356415875        5.6958200614       -6.6704316866  W2        2740            0.0000000000
      8221      2741  TIP3      OH2            35.4031315875        8.7181200614        2.3074083134  W2        2741            0.0000000000
      8222      2741  TIP3      H1             34.9019715875        8.6900600614        1.4923783134  W2        2741            0.0000000000
      8223      2741  TIP3      H2             35.4085015875        7.8124400614        2.6171383134  W2        2741            0.0000000000
      8224      2742  TIP3      OH2            35.1534015875       11.4985000614       -0.8085716866  W2        2742            0.0000000000
      8225      2742  TIP3      H1             36.0994615875       11.3542000614       -0.8276216866  W2        2742            0.0000000000
      8226      2742  TIP3      H2             35.0410315875       12.2827800614       -0.2714516866  W2        2742            0.0000000000
      8227      2743  TIP3      OH2            38.3976115875       14.2994600614       -4.6631016866  W2        2743            0.0000000000
      8228      2743  TIP3      H1             38.5496515875       13.9515000614       -3.7844516866  W2        2743            0.0000000000
      8229      2743  TIP3      H2             37.5466515875       13.9431900614       -4.9183816866  W2        2743            0.0000000000
      8230      2744  TIP3      OH2            37.6521815875       10.0416600614        3.3506883134  W2        2744            0.0000000000
      8231      2744  TIP3      H1             37.8683115875        9.6802200614        4.2102683134  W2        2744            0.0000000000
      8232      2744  TIP3      H2             36.7966515875        9.6670400614        3.1410383134  W2        2744            0.0000000000
      8233      2745  TIP3      OH2            40.2709815875       -1.4882899386       -0.6538916866  W2        2745            0.0000000000
      8234      2745  TIP3      H1             39.4093515875       -1.5754699386       -1.0616016866  W2        2745            0.0000000000
      8235      2745  TIP3      H2             40.2485515875       -0.6322799386       -0.2261316866  W2        2745            0.0000000000
      8236      2746  TIP3      OH2            40.3619915875        3.4771600614        0.4411283134  W2        2746            0.0000000000
      8237      2746  TIP3      H1             39.7202015875        3.4368900614        1.1501383134  W2        2746            0.0000000000
      8238      2746  TIP3      H2             40.3991915875        4.4036300614        0.2034283134  W2        2746            0.0000000000
      8239      2747  TIP3      OH2            40.3589015875        3.6981700614       -4.6468716866  W2        2747            0.0000000000
      8240      2747  TIP3      H1             39.4661915875        3.3577800614       -4.7054916866  W2        2747            0.0000000000
      8241      2747  TIP3      H2             40.8095615875        3.3212600614       -5.4025516866  W2        2747            0.0000000000
      8242      2748  TIP3      OH2            38.1120415875        3.7975100614        2.3083283134  W2        2748            0.0000000000
      8243      2748  TIP3      H1             38.0739815875        4.1976700614        3.1770383134  W2        2748            0.0000000000
      8244      2748  TIP3      H2             37.6211515875        2.9807500614        2.3986183134  W2        2748            0.0000000000
      8245      2749  TIP3      OH2            34.7201215875        0.9136900614       -3.8412016866  W2        2749            0.0000000000
      8246      2749  TIP3      H1             35.3508915875        0.8849000614       -3.1218116866  W2        2749            0.0000000000
      8247      2749  TIP3      H2             35.1695515875        0.4885600614       -4.5716116866  W2        2749            0.0000000000
      8248      2750  TIP3      OH2            35.9943315875        1.6598900614       -8.4171616866  W2        2750            0.0000000000
      8249      2750  TIP3      H1             36.4685015875        2.2508800614       -9.0020716866  W2        2750            0.0000000000
      8250      2750  TIP3      H2             35.2769715875        2.1901800614       -8.0701516866  W2        2750            0.0000000000
      8251      2751  TIP3      OH2            37.7687715875        2.7545500614       -4.7337016866  W2        2751            0.0000000000
      8252      2751  TIP3      H1             36.8795715875        2.8541000614       -5.0737416866  W2        2751            0.0000000000
      8253      2751  TIP3      H2             38.0652615875        1.9128500614       -5.0799116866  W2        2751            0.0000000000
      8254      2752  TIP3      OH2            40.0959715875        3.9490300614       -9.5106316866  W2        2752            0.0000000000
      8255      2752  TIP3      H1             39.5534815875        3.5694100614      -10.2018716866  W2        2752            0.0000000000
      8256      2752  TIP3      H2             40.9294615875        4.1435000614       -9.9392216866  W2        2752            0.0000000000
      8257      2753  TIP3      OH2            38.2311115875        8.5062200614        5.5885283134  W2        2753            0.0000000000
      8258      2753  TIP3      H1             38.9633515875        8.7608100614        6.1499783134  W2        2753            0.0000000000
      8259      2753  TIP3      H2             37.4509815875        8.7107600614        6.1040683134  W2        2753            0.0000000000
      8260      2754  TIP3      OH2            39.2623715875        0.0498300614       -5.2550216866  W2        2754            0.0000000000
      8261      2754  TIP3      H1             38.9453215875       -0.8526399386       -5.2904816866  W2        2754            0.0000000000
      8262      2754  TIP3      H2             40.0437815875        0.0515700614       -5.8078616866  W2        2754            0.0000000000
      8263      2755  TIP3      OH2            38.5560815875        7.8096000614       -1.8050316866  W2        2755            0.0000000000
      8264      2755  TIP3      H1             39.3008015875        7.8071700614       -2.4063816866  W2        2755            0.0000000000
      8265      2755  TIP3      H2             38.6337415875        6.9859800614       -1.3235216866  W2        2755            0.0000000000
      8266      2756  TIP3      OH2            35.5640515875        6.2702900614        3.5098183134  W2        2756            0.0000000000
      8267      2756  TIP3      H1             35.7869115875        5.8522500614        4.3415683134  W2        2756            0.0000000000
      8268      2756  TIP3      H2             34.9620615875        5.6577900614        3.0870983134  W2        2756            0.0000000000
      8269      2757  TIP3      OH2            36.6857915875        6.1898300614       -9.8136416866  W2        2757            0.0000000000
      8270      2757  TIP3      H1             37.3017815875        6.8165500614       -9.4341616866  W2        2757            0.0000000000
      8271      2757  TIP3      H2             35.8240515875        6.5058100614       -9.5419916866  W2        2757            0.0000000000
      8272      2758  TIP3      OH2            37.1980015875        1.0235600614        3.0679583134  W2        2758            0.0000000000
      8273      2758  TIP3      H1             36.3052315875        1.3621000614        3.0003583134  W2        2758            0.0000000000
      8274      2758  TIP3      H2             37.0992815875        0.1681700614        3.4860383134  W2        2758            0.0000000000
      8275      2759  TIP3      OH2            36.8492015875       12.8280000614        1.5028983134  W2        2759            0.0000000000
      8276      2759  TIP3      H1             37.0662315875       11.8962400614        1.4718683134  W2        2759            0.0000000000
      8277      2759  TIP3      H2             37.0955515875       13.1025000614        2.3861783134  W2        2759            0.0000000000
      8278      2760  TIP3      OH2            38.1008315875        8.1022100614       -8.3210816866  W2        2760            0.0000000000
      8279      2760  TIP3      H1             37.4147615875        8.4544600614       -7.7541116866  W2        2760            0.0000000000
      8280      2760  TIP3      H2             38.6236215875        8.8651700614       -8.5676516866  W2        2760            0.0000000000
      8281      2761  TIP3      OH2            40.4581915875        0.2888800614       -8.4847516866  W2        2761            0.0000000000
      8282      2761  TIP3      H1             40.3746715875        1.1771900614       -8.1381116866  W2        2761            0.0000000000
      8283      2761  TIP3      H2             41.3482215875        0.0235500614       -8.2530716866  W2        2761            0.0000000000
      8284      2762  TIP3      OH2            38.7167215875       10.7161000614       -9.4243016866  W2        2762            0.0000000000
      8285      2762  TIP3      H1             39.3088715875       11.4155800614       -9.1480616866  W2        2762            0.0000000000
      8286      2762  TIP3      H2             39.1760215875       10.2830500614      -10.1438416866  W2        2762            0.0000000000
      8287      2763  TIP3      OH2            37.0326415875        3.3804000614      -10.3083616866  W2        2763            0.0000000000
      8288      2763  TIP3      H1             36.9879015875        4.3197100614      -10.1296616866  W2        2763            0.0000000000
      8289      2763  TIP3      H2             36.1449615875        3.1448900614      -10.5781516866  W2        2763            0.0000000000
      8290      2764  TIP3      OH2            37.8408415875       -1.8379399386       -1.6352616866  W2        2764            0.0000000000
      8291      2764  TIP3      H1             37.6118215875       -1.7786899386       -2.5627616866  W2        2764            0.0000000000
      8292      2764  TIP3      H2             37.3981815875       -2.6293899386       -1.3288516866  W2        2764            0.0000000000
      8293      2765  TIP3      OH2            36.7711715875       12.1027700614       -5.4746816866  W2        2765            0.0000000000
      8294      2765  TIP3      H1             35.9390315875       12.5750400614       -5.4475416866  W2        2765            0.0000000000
      8295      2765  TIP3      H2             37.3170015875       12.6125300614       -6.0733716866  W2        2765            0.0000000000
      8296      2766  TIP3      OH2            36.0595415875       14.7151400614        5.8551183134  W2        2766            0.0000000000
      8297      2766  TIP3      H1             36.5997615875       14.4985400614        6.6150383134  W2        2766            0.0000000000
      8298      2766  TIP3      H2             35.5783415875       13.9097400614        5.6653683134  W2        2766            0.0000000000
      8299      2767  TIP3      OH2            35.9664915875        8.5255500614        6.8095483134  W2        2767            0.0000000000
      8300      2767  TIP3      H1             36.1105415875        7.6236200614        6.5232183134  W2        2767            0.0000000000
      8301      2767  TIP3      H2             35.1942315875        8.8117600614        6.3217783134  W2        2767            0.0000000000
      8302      2768  TIP3      OH2            40.3078615875        8.8691200614      -11.0579916866  W2        2768            0.0000000000
      8303      2768  TIP3      H1             40.3722715875        8.0750800614      -10.5273516866  W2        2768            0.0000000000
      8304      2768  TIP3      H2             40.9607815875        8.7504000614      -11.7477916866  W2        2768            0.0000000000
      8305      2769  TIP3      OH2            36.7991415875        5.7258800614        6.2294783134  W2        2769            0.0000000000
      8306      2769  TIP3      H1             37.2072615875        4.8685400614        6.1085383134  W2        2769            0.0000000000
      8307      2769  TIP3      H2             36.5389015875        5.7400100614        7.1505083134  W2        2769            0.0000000000
      8308      2770  TIP3      OH2            39.5641715875        3.2878800614        6.5976383134  W2        2770            0.0000000000
      8309      2770  TIP3      H1             38.7970715875        2.7553600614        6.3873983134  W2        2770            0.0000000000
      8310      2770  TIP3      H2             40.2430715875        2.9779200614        5.9982683134  W2        2770            0.0000000000
      8311      2771  TIP3      OH2            37.7444515875        1.2082600614        6.3021083134  W2        2771            0.0000000000
      8312      2771  TIP3      H1             37.9561915875        0.5018700614        5.6918583134  W2        2771            0.0000000000
      8313      2771  TIP3      H2             37.6332015875        0.7708600614        7.1462283134  W2        2771            0.0000000000
      8314      2772  TIP3      OH2            35.9939415875       10.4116700614      -10.0057016866  W2        2772            0.0000000000
      8315      2772  TIP3      H1             36.9078615875       10.4905600614       -9.7323116866  W2        2772            0.0000000000
      8316      2772  TIP3      H2             36.0012515875        9.7246300614      -10.6721416866  W2        2772            0.0000000000
      8317      2773  TIP3      OH2            34.6430015875       15.8045200614       -4.9283116866  W2        2773            0.0000000000
      8318      2773  TIP3      H1             33.9957115875       15.3426900614       -5.4611916866  W2        2773            0.0000000000
      8319      2773  TIP3      H2             34.9974615875       15.1328500614       -4.3456916866  W2        2773            0.0000000000
      8320      2774  TIP3      OH2            35.5129215875       13.8852200614       -3.1236916866  W2        2774            0.0000000000
      8321      2774  TIP3      H1             35.1786015875       13.0049500614       -2.9516716866  W2        2774            0.0000000000
      8322      2774  TIP3      H2             35.7351615875       14.2307200614       -2.2591316866  W2        2774            0.0000000000
      8323      2775  TIP3      OH2            35.5928715875        6.9607600614       -0.6722016866  W2        2775            0.0000000000
      8324      2775  TIP3      H1             35.7771615875        6.8789300614       -1.6079116866  W2        2775            0.0000000000
      8325      2775  TIP3      H2             36.4421615875        6.8364600614       -0.2485616866  W2        2775            0.0000000000
      8326      2776  TIP3      OH2            35.1903515875        2.2312600614        5.4686783134  W2        2776            0.0000000000
      8327      2776  TIP3      H1             36.1098415875        2.1090900614        5.7049883134  W2        2776            0.0000000000
      8328      2776  TIP3      H2             34.7408015875        1.4812300614        5.8580283134  W2        2776            0.0000000000
      8329      2777  TIP3      OH2            36.4116015875        0.5434200614       -1.6400316866  W2        2777            0.0000000000
      8330      2777  TIP3      H1             36.8567615875       -0.2483299386       -1.3380616866  W2        2777            0.0000000000
      8331      2777  TIP3      H2             36.8779015875        1.2599400614       -1.2094716866  W2        2777            0.0000000000
      8332      2778  TIP3      OH2            34.7156315875        3.5427200614       -0.5710116866  W2        2778            0.0000000000
      8333      2778  TIP3      H1             35.2076115875        3.3217700614       -1.3618116866  W2        2778            0.0000000000
      8334      2778  TIP3      H2             35.0777215875        4.3830600614       -0.2900616866  W2        2778            0.0000000000
      8335      2779  TIP3      OH2            35.0292815875       -0.1993699386       -6.5167716866  W2        2779            0.0000000000
      8336      2779  TIP3      H1             34.1041215875        0.0092900614       -6.6462216866  W2        2779            0.0000000000
      8337      2779  TIP3      H2             35.4832715875        0.2847100614       -7.2065416866  W2        2779            0.0000000000
      8338      2780  TIP3      OH2            34.9928215875       -1.4614699386        1.8274783134  W2        2780            0.0000000000
      8339      2780  TIP3      H1             34.3278715875       -1.7074399386        2.4705683134  W2        2780            0.0000000000
      8340      2780  TIP3      H2             34.5499515875       -0.8394299386        1.2502783134  W2        2780            0.0000000000
      8341      2781  TIP3      OH2            37.1847515875       11.7139400614        5.9720583134  W2        2781            0.0000000000
      8342      2781  TIP3      H1             36.3640015875       11.8885900614        5.5115283134  W2        2781            0.0000000000
      8343      2781  TIP3      H2             36.9325315875       11.6404100614        6.8924983134  W2        2781            0.0000000000
      8344      2782  TIP3      OH2            40.1390415875       12.6880600614        2.2304583134  W2        2782            0.0000000000
      8345      2782  TIP3      H1             39.7141515875       13.4979100614        1.9479183134  W2        2782            0.0000000000
      8346      2782  TIP3      H2             41.0433215875       12.7734700614        1.9284383134  W2        2782            0.0000000000
      8347      2783  TIP3      OH2            37.5407115875       15.9444500614        2.2779883134  W2        2783            0.0000000000
      8348      2783  TIP3      H1             36.8203515875       16.3845500614        1.8267583134  W2        2783            0.0000000000
      8349      2783  TIP3      H2             37.1751115875       15.6939200614        3.1263883134  W2        2783            0.0000000000
      8350      2784  TIP3      OH2            40.0079715875       15.5448400614        1.3077083134  W2        2784            0.0000000000
      8351      2784  TIP3      H1             39.1431915875       15.6166900614        1.7117183134  W2        2784            0.0000000000
      8352      2784  TIP3      H2             39.9528715875       16.0915700614        0.5239583134  W2        2784            0.0000000000
      8353      2785  TIP3      OH2            36.9555215875       14.5677000614       -0.8118316866  W2        2785            0.0000000000
      8354      2785  TIP3      H1             36.9371215875       14.1422100614        0.0453983134  W2        2785            0.0000000000
      8355      2785  TIP3      H2             37.7603115875       14.2492000614       -1.2206116866  W2        2785            0.0000000000
      8356      2786  TIP3      OH2            39.0968315875       13.2775700614       -2.1568416866  W2        2786            0.0000000000
      8357      2786  TIP3      H1             38.8779015875       12.3613100614       -1.9872416866  W2        2786            0.0000000000
      8358      2786  TIP3      H2             39.9210515875       13.4176100614       -1.6907016866  W2        2786            0.0000000000
      8359      2787  TIP3      OH2            37.4692015875       -1.9544099386       -4.3417216866  W2        2787            0.0000000000
      8360      2787  TIP3      H1             36.6921815875       -2.1889199386       -4.8491316866  W2        2787            0.0000000000
      8361      2787  TIP3      H2             37.9995615875       -2.7511999386       -4.3329216866  W2        2787            0.0000000000
      8362      2788  TIP3      OH2            36.3055415875       -2.1565999386       -8.5381116866  W2        2788            0.0000000000
      8363      2788  TIP3      H1             36.7446115875       -1.5455499386       -9.1297616866  W2        2788            0.0000000000
      8364      2788  TIP3      H2             35.6717815875       -1.6181899386       -8.0641116866  W2        2788            0.0000000000
      8365      2789  TIP3      OH2            36.2064915875       13.7916200614       -7.6406016866  W2        2789            0.0000000000
      8366      2789  TIP3      H1             35.5214815875       13.7535100614       -8.3080916866  W2        2789            0.0000000000
      8367      2789  TIP3      H2             36.2102115875       14.7043800614       -7.3523916866  W2        2789            0.0000000000
      8368      2790  TIP3      OH2            38.1664515875       -0.2404499386      -10.0957016866  W2        2790            0.0000000000
      8369      2790  TIP3      H1             38.6577915875       -0.8702099386      -10.6231516866  W2        2790            0.0000000000
      8370      2790  TIP3      H2             38.7900815875        0.0554900614       -9.4325816866  W2        2790            0.0000000000
      8371      2791  TIP3      OH2            37.4270015875       -1.4402199386        5.1758983134  W2        2791            0.0000000000
      8372      2791  TIP3      H1             37.0608215875       -2.2059599386        5.6183683134  W2        2791            0.0000000000
      8373      2791  TIP3      H2             38.3398515875       -1.4111999386        5.4624083134  W2        2791            0.0000000000
      8374      2792  TIP3      OH2            39.4000815875       -2.0897799386        6.7116083134  W2        2792            0.0000000000
      8375      2792  TIP3      H1             40.2984415875       -2.3637599386        6.5269483134  W2        2792            0.0000000000
      8376      2792  TIP3      H2             39.0133915875       -2.8321799386        7.1758683134  W2        2792            0.0000000000
      8377      2793  TIP3      OH2            38.0246115875       14.7117000614      -10.6153916866  W2        2793            0.0000000000
      8378      2793  TIP3      H1             37.7570715875       14.9979900614       -9.7420816866  W2        2793            0.0000000000
      8379      2793  TIP3      H2             38.7958715875       14.1656200614      -10.4631416866  W2        2793            0.0000000000
      8380      2794  TIP3      OH2           -28.8765384125       26.0578200614       -4.3829716866  W2        2794            0.0000000000
      8381      2794  TIP3      H1            -28.7874284125       27.0016400614       -4.5152616866  W2        2794            0.0000000000
      8382      2794  TIP3      H2            -29.5147784125       25.7824600614       -5.0410316866  W2        2794            0.0000000000
      8383      2795  TIP3      OH2           -29.9434084125       25.3128900614       -0.9641516866  W2        2795            0.0000000000
      8384      2795  TIP3      H1            -29.9816584125       24.6665200614       -0.2591916866  W2        2795            0.0000000000
      8385      2795  TIP3      H2            -30.2657584125       24.8463300614       -1.7352816866  W2        2795            0.0000000000
      8386      2796  TIP3      OH2           -37.5749084125       24.9271000614        0.6288383134  W2        2796            0.0000000000
      8387      2796  TIP3      H1            -37.5336984125       24.3014300614        1.3520783134  W2        2796            0.0000000000
      8388      2796  TIP3      H2            -36.8721384125       25.5509600614        0.8108783134  W2        2796            0.0000000000
      8389      2797  TIP3      OH2           -26.2373884125       28.2519300614       -2.6626416866  W2        2797            0.0000000000
      8390      2797  TIP3      H1            -26.6781184125       27.5315300614       -2.2120816866  W2        2797            0.0000000000
      8391      2797  TIP3      H2            -26.2504184125       28.9726500614       -2.0328716866  W2        2797            0.0000000000
      8392      2798  TIP3      OH2           -36.6515984125       29.3769900614       -0.8362516866  W2        2798            0.0000000000
      8393      2798  TIP3      H1            -37.0210784125       28.5750400614       -1.2058216866  W2        2798            0.0000000000
      8394      2798  TIP3      H2            -35.7104884125       29.2084800614       -0.7899116866  W2        2798            0.0000000000
      8395      2799  TIP3      OH2           -40.0415484125       23.0372500614       -5.4433716866  W2        2799            0.0000000000
      8396      2799  TIP3      H1            -40.4892084125       23.8831200614       -5.4617216866  W2        2799            0.0000000000
      8397      2799  TIP3      H2            -40.6024284125       22.4576700614       -5.9588616866  W2        2799            0.0000000000
      8398      2800  TIP3      OH2           -39.3309384125       25.1992100614       -3.3175716866  W2        2800            0.0000000000
      8399      2800  TIP3      H1            -39.1175884125       24.4293700614       -2.7902716866  W2        2800            0.0000000000
      8400      2800  TIP3      H2            -38.5931784125       25.2888800614       -3.9208116866  W2        2800            0.0000000000
      8401      2801  TIP3      OH2           -29.1258384125       33.3561000614       -2.4506016866  W2        2801            0.0000000000
      8402      2801  TIP3      H1            -28.5061984125       32.6795700614       -2.7236816866  W2        2801            0.0000000000
      8403      2801  TIP3      H2            -29.3340984125       33.1381800614       -1.5421116866  W2        2801            0.0000000000
      8404      2802  TIP3      OH2           -31.5539684125       27.7450300614       -0.5580516866  W2        2802            0.0000000000
      8405      2802  TIP3      H1            -31.2501784125       27.0591700614       -1.1526416866  W2        2802            0.0000000000
      8406      2802  TIP3      H2            -30.8325684125       27.8639000614        0.0597483134  W2        2802            0.0000000000
      8407      2803  TIP3      OH2           -22.8909884125       19.3465600614        0.3025683134  W2        2803            0.0000000000
      8408      2803  TIP3      H1            -22.8417684125       19.9566800614        1.0384783134  W2        2803            0.0000000000
      8409      2803  TIP3      H2            -22.4654784125       19.8076500614       -0.4203216866  W2        2803            0.0000000000
      8410      2804  TIP3      OH2           -28.4132684125       22.1392700614       -0.2305716866  W2        2804            0.0000000000
      8411      2804  TIP3      H1            -28.2706784125       21.1929700614       -0.2104116866  W2        2804            0.0000000000
      8412      2804  TIP3      H2            -28.5193684125       22.3462500614       -1.1590816866  W2        2804            0.0000000000
      8413      2805  TIP3      OH2           -35.2584384125       20.2409100614       -2.9580916866  W2        2805            0.0000000000
      8414      2805  TIP3      H1            -35.2153284125       21.1007600614       -3.3764616866  W2        2805            0.0000000000
      8415      2805  TIP3      H2            -35.7160284125       19.6883800614       -3.5917716866  W2        2805            0.0000000000
      8416      2806  TIP3      OH2           -27.5361684125       20.3714700614       -4.5572616866  W2        2806            0.0000000000
      8417      2806  TIP3      H1            -26.8897384125       20.0427900614       -3.9325016866  W2        2806            0.0000000000
      8418      2806  TIP3      H2            -27.0262284125       20.8893700614       -5.1801216866  W2        2806            0.0000000000
      8419      2807  TIP3      OH2           -38.6382884125       22.6374900614       -2.1959516866  W2        2807            0.0000000000
      8420      2807  TIP3      H1            -37.9846284125       22.0876600614       -1.7639416866  W2        2807            0.0000000000
      8421      2807  TIP3      H2            -38.6143584125       22.3633900614       -3.1127516866  W2        2807            0.0000000000
      8422      2808  TIP3      OH2           -33.4818384125       24.1876200614       -2.9808016866  W2        2808            0.0000000000
      8423      2808  TIP3      H1            -32.8657384125       23.6611600614       -2.4714016866  W2        2808            0.0000000000
      8424      2808  TIP3      H2            -34.0679584125       23.5474900614       -3.3844416866  W2        2808            0.0000000000
      8425      2809  TIP3      OH2           -22.4995284125       20.8244800614        2.5385483134  W2        2809            0.0000000000
      8426      2809  TIP3      H1            -23.1880684125       21.4825500614        2.4432083134  W2        2809            0.0000000000
      8427      2809  TIP3      H2            -22.4840684125       20.6272700614        3.4750883134  W2        2809            0.0000000000
      8428      2810  TIP3      OH2           -36.4482484125       19.1587500614        1.1159883134  W2        2810            0.0000000000
      8429      2810  TIP3      H1            -36.6670784125       19.6888100614        0.3495883134  W2        2810            0.0000000000
      8430      2810  TIP3      H2            -37.1161584125       19.3853000614        1.7631283134  W2        2810            0.0000000000
      8431      2811  TIP3      OH2           -29.0792684125       28.6588600614       -5.3401016866  W2        2811            0.0000000000
      8432      2811  TIP3      H1            -29.3747584125       28.3360900614       -6.1914116866  W2        2811            0.0000000000
      8433      2811  TIP3      H2            -29.4034884125       29.5585300614       -5.2988416866  W2        2811            0.0000000000
      8434      2812  TIP3      OH2           -33.8791084125       26.8343200614        1.4033583134  W2        2812            0.0000000000
      8435      2812  TIP3      H1            -34.6191984125       27.4324700614        1.5068783134  W2        2812            0.0000000000
      8436      2812  TIP3      H2            -33.1651584125       27.3882800614        1.0877183134  W2        2812            0.0000000000
      8437      2813  TIP3      OH2           -25.7723284125       19.6624000614       -2.5766716866  W2        2813            0.0000000000
      8438      2813  TIP3      H1            -25.9875284125       18.8967400614       -2.0440716866  W2        2813            0.0000000000
      8439      2813  TIP3      H2            -25.1165884125       20.1348600614       -2.0638216866  W2        2813            0.0000000000
      8440      2814  TIP3      OH2           -36.8545184125       21.0509300614       -0.9317916866  W2        2814            0.0000000000
      8441      2814  TIP3      H1            -36.2408884125       21.6836900614       -0.5585516866  W2        2814            0.0000000000
      8442      2814  TIP3      H2            -36.3424484125       20.5784300614       -1.5881016866  W2        2814            0.0000000000
      8443      2815  TIP3      OH2           -35.4716784125       28.7986200614        2.1905083134  W2        2815            0.0000000000
      8444      2815  TIP3      H1            -35.4769184125       29.6779700614        1.8124383134  W2        2815            0.0000000000
      8445      2815  TIP3      H2            -36.3252684125       28.7150300614        2.6154983134  W2        2815            0.0000000000
      8446      2816  TIP3      OH2           -39.3505884125       28.4694100614       -7.0275616866  W2        2816            0.0000000000
      8447      2816  TIP3      H1            -39.6224984125       28.6985100614       -7.9162716866  W2        2816            0.0000000000
      8448      2816  TIP3      H2            -39.3050184125       29.3072900614       -6.5670316866  W2        2816            0.0000000000
      8449      2817  TIP3      OH2           -25.7256184125       30.0910000614       -0.3147116866  W2        2817            0.0000000000
      8450      2817  TIP3      H1            -26.6672484125       30.1493900614       -0.1530216866  W2        2817            0.0000000000
      8451      2817  TIP3      H2            -25.4490084125       30.9970500614       -0.4517416866  W2        2817            0.0000000000
      8452      2818  TIP3      OH2           -25.4249184125       18.3775300614        1.1026783134  W2        2818            0.0000000000
      8453      2818  TIP3      H1            -26.1609984125       18.9882400614        1.0648083134  W2        2818            0.0000000000
      8454      2818  TIP3      H2            -24.7415184125       18.7924300614        0.5763183134  W2        2818            0.0000000000
      8455      2819  TIP3      OH2           -32.4217784125       16.4642600614       -1.4315216866  W2        2819            0.0000000000
      8456      2819  TIP3      H1            -32.5393584125       15.5158600614       -1.4856916866  W2        2819            0.0000000000
      8457      2819  TIP3      H2            -33.2767684125       16.7968700614       -1.1584116866  W2        2819            0.0000000000
      8458      2820  TIP3      OH2           -27.4734984125       31.8723500614       -3.6895516866  W2        2820            0.0000000000
      8459      2820  TIP3      H1            -27.0482684125       31.1651400614       -4.1745916866  W2        2820            0.0000000000
      8460      2820  TIP3      H2            -27.1564984125       32.6736200614       -4.1063316866  W2        2820            0.0000000000
      8461      2821  TIP3      OH2           -26.3138484125       29.7732000614       -5.1808916866  W2        2821            0.0000000000
      8462      2821  TIP3      H1            -26.5713684125       29.0832100614       -5.7923016866  W2        2821            0.0000000000
      8463      2821  TIP3      H2            -26.2427684125       29.3303200614       -4.3353016866  W2        2821            0.0000000000
      8464      2822  TIP3      OH2           -24.6278284125       28.3398700614        3.2964583134  W2        2822            0.0000000000
      8465      2822  TIP3      H1            -24.4881984125       27.7481200614        2.5571583134  W2        2822            0.0000000000
      8466      2822  TIP3      H2            -24.4605484125       29.2124600614        2.9403383134  W2        2822            0.0000000000
      8467      2823  TIP3      OH2           -30.1552884125       25.3018200614       -6.9309416866  W2        2823            0.0000000000
      8468      2823  TIP3      H1            -30.8667384125       25.8367900614       -7.2828916866  W2        2823            0.0000000000
      8469      2823  TIP3      H2            -29.4643284125       25.3570300614       -7.5910516866  W2        2823            0.0000000000
      8470      2824  TIP3      OH2           -30.1013684125       23.7592500614       -9.8924416866  W2        2824            0.0000000000
      8471      2824  TIP3      H1            -29.4003784125       23.7819400614       -9.2410416866  W2        2824            0.0000000000
      8472      2824  TIP3      H2            -29.7990784125       23.1312200614      -10.5485116866  W2        2824            0.0000000000
      8473      2825  TIP3      OH2           -22.7858984125       24.6796700614        1.3624983134  W2        2825            0.0000000000
      8474      2825  TIP3      H1            -23.4384884125       25.3742300614        1.4515883134  W2        2825            0.0000000000
      8475      2825  TIP3      H2            -22.3208684125       24.8897600614        0.5526583134  W2        2825            0.0000000000
      8476      2826  TIP3      OH2           -26.7495184125       25.5111500614       -5.9793516866  W2        2826            0.0000000000
      8477      2826  TIP3      H1            -27.4814184125       25.7395200614       -5.4062916866  W2        2826            0.0000000000
      8478      2826  TIP3      H2            -26.3022984125       24.7974200614       -5.5246016866  W2        2826            0.0000000000
      8479      2827  TIP3      OH2           -26.8521684125       23.6854100614        3.0883483134  W2        2827            0.0000000000
      8480      2827  TIP3      H1            -26.7722584125       24.4488500614        3.6601983134  W2        2827            0.0000000000
      8481      2827  TIP3      H2            -27.4533984125       23.9646500614        2.3978583134  W2        2827            0.0000000000
      8482      2828  TIP3      OH2           -35.1041484125       26.1417700614       -4.0968516866  W2        2828            0.0000000000
      8483      2828  TIP3      H1            -35.4346284125       25.7711100614       -4.9151516866  W2        2828            0.0000000000
      8484      2828  TIP3      H2            -34.5157384125       25.4711700614       -3.7500216866  W2        2828            0.0000000000
      8485      2829  TIP3      OH2           -33.7373984125       29.5698300614       -1.4156316866  W2        2829            0.0000000000
      8486      2829  TIP3      H1            -33.8322684125       28.9911400614       -2.1721716866  W2        2829            0.0000000000
      8487      2829  TIP3      H2            -33.0080384125       29.1984000614       -0.9193516866  W2        2829            0.0000000000
      8488      2830  TIP3      OH2           -34.7375984125       24.9103300614       -0.4633516866  W2        2830            0.0000000000
      8489      2830  TIP3      H1            -34.1723484125       25.0317500614       -1.2262316866  W2        2830            0.0000000000
      8490      2830  TIP3      H2            -34.4187084125       25.5478300614        0.1754983134  W2        2830            0.0000000000
      8491      2831  TIP3      OH2           -28.4283784125       30.4135200614        0.2706983134  W2        2831            0.0000000000
      8492      2831  TIP3      H1            -28.6687184125       31.0758300614        0.9186183134  W2        2831            0.0000000000
      8493      2831  TIP3      H2            -28.6265584125       29.5790400614        0.6956583134  W2        2831            0.0000000000
      8494      2832  TIP3      OH2           -33.8575284125       29.3096000614        4.2538383134  W2        2832            0.0000000000
      8495      2832  TIP3      H1            -34.1687784125       30.0919200614        4.7091583134  W2        2832            0.0000000000
      8496      2832  TIP3      H2            -34.5075084125       29.1565100614        3.5680383134  W2        2832            0.0000000000
      8497      2833  TIP3      OH2           -27.8785684125       24.6734400614       -8.2942316866  W2        2833            0.0000000000
      8498      2833  TIP3      H1            -27.2990184125       24.8234700614       -7.5473416866  W2        2833            0.0000000000
      8499      2833  TIP3      H2            -27.4645684125       25.1441800614       -9.0175916866  W2        2833            0.0000000000
      8500      2834  TIP3      OH2           -36.9375384125       25.5077100614        3.4824083134  W2        2834            0.0000000000
      8501      2834  TIP3      H1            -36.8672184125       26.1583900614        4.1809083134  W2        2834            0.0000000000
      8502      2834  TIP3      H2            -37.8283184125       25.6104600614        3.1474983134  W2        2834            0.0000000000
      8503      2835  TIP3      OH2           -30.1520784125       31.4102900614       -4.8589216866  W2        2835            0.0000000000
      8504      2835  TIP3      H1            -29.6783184125       31.7059200614       -4.0815016866  W2        2835            0.0000000000
      8505      2835  TIP3      H2            -30.7151484125       32.1484500614       -5.0919616866  W2        2835            0.0000000000
      8506      2836  TIP3      OH2           -35.6179384125       31.3811000614        5.0172183134  W2        2836            0.0000000000
      8507      2836  TIP3      H1            -35.6104084125       31.2450700614        4.0697683134  W2        2836            0.0000000000
      8508      2836  TIP3      H2            -36.5338984125       31.2639100614        5.2692183134  W2        2836            0.0000000000
      8509      2837  TIP3      OH2           -24.1797284125       16.4234800614       -8.4812616866  W2        2837            0.0000000000
      8510      2837  TIP3      H1            -25.0796584125       16.5623800614       -8.1862016866  W2        2837            0.0000000000
      8511      2837  TIP3      H2            -23.9278884125       17.2549400614       -8.8830916866  W2        2837            0.0000000000
      8512      2838  TIP3      OH2           -36.1138784125       25.2112000614       -6.5075716866  W2        2838            0.0000000000
      8513      2838  TIP3      H1            -36.4057484125       25.9793700614       -6.9984416866  W2        2838            0.0000000000
      8514      2838  TIP3      H2            -36.7883584125       24.5518200614       -6.6704316866  W2        2838            0.0000000000
      8515      2839  TIP3      OH2           -22.9905884125       30.7897200614      -10.1048716866  W2        2839            0.0000000000
      8516      2839  TIP3      H1            -22.9172384125       31.7287400614       -9.9343416866  W2        2839            0.0000000000
      8517      2839  TIP3      H2            -22.0850784125       30.4845800614      -10.1611416866  W2        2839            0.0000000000
      8518      2840  TIP3      OH2           -40.0208684125       27.5741200614        2.3074083134  W2        2840            0.0000000000
      8519      2840  TIP3      H1            -40.5220284125       27.5460600614        1.4923783134  W2        2840            0.0000000000
      8520      2840  TIP3      H2            -40.0154984125       26.6684400614        2.6171383134  W2        2840            0.0000000000
      8521      2841  TIP3      OH2           -40.2705984125       30.3545000614       -0.8085716866  W2        2841            0.0000000000
      8522      2841  TIP3      H1            -39.3245384125       30.2102000614       -0.8276216866  W2        2841            0.0000000000
      8523      2841  TIP3      H2            -40.3829684125       31.1387800614       -0.2714516866  W2        2841            0.0000000000
      8524      2842  TIP3      OH2           -22.0727484125       31.0204700614        4.8737983134  W2        2842            0.0000000000
      8525      2842  TIP3      H1            -22.1220684125       30.0652800614        4.8365583134  W2        2842            0.0000000000
      8526      2842  TIP3      H2            -22.8995184125       31.2880000614        5.2751783134  W2        2842            0.0000000000
      8527      2843  TIP3      OH2           -31.0943484125       30.5943900614        3.7499383134  W2        2843            0.0000000000
      8528      2843  TIP3      H1            -31.0068884125       31.4208500614        4.2248483134  W2        2843            0.0000000000
      8529      2843  TIP3      H2            -31.9578384125       30.2647700614        3.9988683134  W2        2843            0.0000000000
      8530      2844  TIP3      OH2           -30.6797684125       34.3667600614       -6.4440016866  W2        2844            0.0000000000
      8531      2844  TIP3      H1            -30.7551684125       34.2454800614       -7.3904816866  W2        2844            0.0000000000
      8532      2844  TIP3      H2            -30.6468984125       35.3160300614       -6.3255416866  W2        2844            0.0000000000
      8533      2845  TIP3      OH2           -37.0263884125       33.1554600614       -4.6631016866  W2        2845            0.0000000000
      8534      2845  TIP3      H1            -36.8743484125       32.8075000614       -3.7844516866  W2        2845            0.0000000000
      8535      2845  TIP3      H2            -37.8773484125       32.7991900614       -4.9183816866  W2        2845            0.0000000000
      8536      2846  TIP3      OH2           -27.5781684125       33.5207800614       -9.4417616866  W2        2846            0.0000000000
      8537      2846  TIP3      H1            -27.2033284125       32.7763900614       -9.9125016866  W2        2846            0.0000000000
      8538      2846  TIP3      H2            -27.5737984125       33.2508400614       -8.5234316866  W2        2846            0.0000000000
      8539      2847  TIP3      OH2           -27.9093584125       33.4464900614       -6.6925416866  W2        2847            0.0000000000
      8540      2847  TIP3      H1            -28.8443784125       33.5466800614       -6.5138416866  W2        2847            0.0000000000
      8541      2847  TIP3      H2            -27.6291684125       32.7370900614       -6.1142216866  W2        2847            0.0000000000
      8542      2848  TIP3      OH2           -24.9207684125       22.5137200614        5.3540183134  W2        2848            0.0000000000
      8543      2848  TIP3      H1            -25.3280884125       22.9942800614        4.6333483134  W2        2848            0.0000000000
      8544      2848  TIP3      H2            -24.8801984125       21.6083200614        5.0460983134  W2        2848            0.0000000000
      8545      2849  TIP3      OH2           -37.7718184125       28.8976600614        3.3506883134  W2        2849            0.0000000000
      8546      2849  TIP3      H1            -37.5556884125       28.5362200614        4.2102683134  W2        2849            0.0000000000
      8547      2849  TIP3      H2            -38.6273484125       28.5230400614        3.1410383134  W2        2849            0.0000000000
      8548      2850  TIP3      OH2           -35.1530184125       17.3677100614       -0.6538916866  W2        2850            0.0000000000
      8549      2850  TIP3      H1            -36.0146484125       17.2805300614       -1.0616016866  W2        2850            0.0000000000
      8550      2850  TIP3      H2            -35.1754484125       18.2237200614       -0.2261316866  W2        2850            0.0000000000
      8551      2851  TIP3      OH2           -30.4902384125       17.0897500614        2.7208083134  W2        2851            0.0000000000
      8552      2851  TIP3      H1            -30.0699284125       16.6744600614        3.4738683134  W2        2851            0.0000000000
      8553      2851  TIP3      H2            -31.4232784125       16.9110800614        2.8380083134  W2        2851            0.0000000000
      8554      2852  TIP3      OH2           -27.1637484125       20.8452700614        3.5742583134  W2        2852            0.0000000000
      8555      2852  TIP3      H1            -27.6777984125       20.7194900614        4.3718583134  W2        2852            0.0000000000
      8556      2852  TIP3      H2            -27.3192784125       21.7575800614        3.3298783134  W2        2852            0.0000000000
      8557      2853  TIP3      OH2           -26.4012584125       25.7062700614      -10.6644416866  W2        2853            0.0000000000
      8558      2853  TIP3      H1            -26.3591784125       25.4836600614      -11.5944416866  W2        2853            0.0000000000
      8559      2853  TIP3      H2            -25.5520484125       26.1049800614      -10.4744516866  W2        2853            0.0000000000
      8560      2854  TIP3      OH2           -30.8285084125       19.5820900614       -9.9941116866  W2        2854            0.0000000000
      8561      2854  TIP3      H1            -31.0820284125       19.6012500614       -9.0713016866  W2        2854            0.0000000000
      8562      2854  TIP3      H2            -31.0852984125       18.7106300614      -10.2954916866  W2        2854            0.0000000000
      8563      2855  TIP3      OH2           -35.0620084125       22.3331600614        0.4411283134  W2        2855            0.0000000000
      8564      2855  TIP3      H1            -35.7037984125       22.2928900614        1.1501383134  W2        2855            0.0000000000
      8565      2855  TIP3      H2            -35.0248084125       23.2596300614        0.2034283134  W2        2855            0.0000000000
      8566      2856  TIP3      OH2           -35.0650984125       22.5541700614       -4.6468716866  W2        2856            0.0000000000
      8567      2856  TIP3      H1            -35.9578084125       22.2137800614       -4.7054916866  W2        2856            0.0000000000
      8568      2856  TIP3      H2            -34.6144384125       22.1772600614       -5.4025516866  W2        2856            0.0000000000
      8569      2857  TIP3      OH2           -29.5295484125       22.9702000614       -5.8297916866  W2        2857            0.0000000000
      8570      2857  TIP3      H1            -29.9385184125       23.7850600614       -6.1213116866  W2        2857            0.0000000000
      8571      2857  TIP3      H2            -28.8089284125       22.8302100614       -6.4440816866  W2        2857            0.0000000000
      8572      2858  TIP3      OH2           -30.4273884125       23.1458400614        5.6582783134  W2        2858            0.0000000000
      8573      2858  TIP3      H1            -30.9900084125       22.4410000614        5.9790583134  W2        2858            0.0000000000
      8574      2858  TIP3      H2            -29.6010484125       23.0250300614        6.1260383134  W2        2858            0.0000000000
      8575      2859  TIP3      OH2           -28.5247784125       22.4162400614       -3.0158216866  W2        2859            0.0000000000
      8576      2859  TIP3      H1            -28.7203284125       23.0219200614       -3.7307616866  W2        2859            0.0000000000
      8577      2859  TIP3      H2            -28.3435184125       21.5827600614       -3.4501916866  W2        2859            0.0000000000
      8578      2860  TIP3      OH2           -37.3119584125       22.6535100614        2.3083283134  W2        2860            0.0000000000
      8579      2860  TIP3      H1            -37.3500184125       23.0536700614        3.1770383134  W2        2860            0.0000000000
      8580      2860  TIP3      H2            -37.8028484125       21.8367500614        2.3986183134  W2        2860            0.0000000000
      8581      2861  TIP3      OH2           -33.9462184125       20.0277400614      -10.8930716866  W2        2861            0.0000000000
      8582      2861  TIP3      H1            -34.3771484125       19.5827500614      -10.1633316866  W2        2861            0.0000000000
      8583      2861  TIP3      H2            -34.6643484125       20.3993700614      -11.4053216866  W2        2861            0.0000000000
      8584      2862  TIP3      OH2           -40.7038784125       19.7696900614       -3.8412016866  W2        2862            0.0000000000
      8585      2862  TIP3      H1            -40.0731084125       19.7409000614       -3.1218116866  W2        2862            0.0000000000
      8586      2862  TIP3      H2            -40.2544484125       19.3445600614       -4.5716116866  W2        2862            0.0000000000
      8587      2863  TIP3      OH2           -39.4296684125       20.5158900614       -8.4171616866  W2        2863            0.0000000000
      8588      2863  TIP3      H1            -38.9554984125       21.1068800614       -9.0020716866  W2        2863            0.0000000000
      8589      2863  TIP3      H2            -40.1470284125       21.0461800614       -8.0701516866  W2        2863            0.0000000000
      8590      2864  TIP3      OH2           -29.2608584125       24.0543700614        1.6554183134  W2        2864            0.0000000000
      8591      2864  TIP3      H1            -28.9373784125       23.4233400614        1.0124683134  W2        2864            0.0000000000
      8592      2864  TIP3      H2            -29.7009284125       23.5195900614        2.3161583134  W2        2864            0.0000000000
      8593      2865  TIP3      OH2           -32.4835684125       19.9819200614       -3.5604616866  W2        2865            0.0000000000
      8594      2865  TIP3      H1            -33.3944584125       20.0386000614       -3.2718616866  W2        2865            0.0000000000
      8595      2865  TIP3      H2            -31.9782784125       19.9214700614       -2.7497416866  W2        2865            0.0000000000
      8596      2866  TIP3      OH2           -37.6552284125       21.6105500614       -4.7337016866  W2        2866            0.0000000000
      8597      2866  TIP3      H1            -38.5444284125       21.7101000614       -5.0737416866  W2        2866            0.0000000000
      8598      2866  TIP3      H2            -37.3587384125       20.7688500614       -5.0799116866  W2        2866            0.0000000000
      8599      2867  TIP3      OH2           -34.0020484125       21.6108100614       -7.0772416866  W2        2867            0.0000000000
      8600      2867  TIP3      H1            -33.0704984125       21.7398100614       -6.8989316866  W2        2867            0.0000000000
      8601      2867  TIP3      H2            -34.2170184125       22.2802400614       -7.7267716866  W2        2867            0.0000000000
      8602      2868  TIP3      OH2           -28.0783784125       19.2165500614       -0.2962816866  W2        2868            0.0000000000
      8603      2868  TIP3      H1            -28.7552184125       19.3478600614        0.3676883134  W2        2868            0.0000000000
      8604      2868  TIP3      H2            -28.5638884125       19.0615000614       -1.1065116866  W2        2868            0.0000000000
      8605      2869  TIP3      OH2           -35.3280284125       22.8050300614       -9.5106316866  W2        2869            0.0000000000
      8606      2869  TIP3      H1            -35.8705184125       22.4254100614      -10.2018716866  W2        2869            0.0000000000
      8607      2869  TIP3      H2            -34.4945384125       22.9995000614       -9.9392216866  W2        2869            0.0000000000
      8608      2870  TIP3      OH2           -24.7908684125       34.8880900614        5.9804783134  W2        2870            0.0000000000
      8609      2870  TIP3      H1            -24.5909984125       35.3122800614        5.1460083134  W2        2870            0.0000000000
      8610      2870  TIP3      H2            -24.1354984125       35.2319100614        6.5875183134  W2        2870            0.0000000000
      8611      2871  TIP3      OH2           -37.1928884125       27.3622200614        5.5885283134  W2        2871            0.0000000000
      8612      2871  TIP3      H1            -36.4606484125       27.6168100614        6.1499783134  W2        2871            0.0000000000
      8613      2871  TIP3      H2            -37.9730184125       27.5667600614        6.1040683134  W2        2871            0.0000000000
      8614      2872  TIP3      OH2           -31.1635984125       22.7692200614       -1.6735016866  W2        2872            0.0000000000
      8615      2872  TIP3      H1            -30.5992584125       22.2228800614       -2.2205416866  W2        2872            0.0000000000
      8616      2872  TIP3      H2            -31.3112584125       22.2474100614       -0.8847416866  W2        2872            0.0000000000
      8617      2873  TIP3      OH2           -36.1616284125       18.9058300614       -5.2550216866  W2        2873            0.0000000000
      8618      2873  TIP3      H1            -36.4786784125       18.0033600614       -5.2904816866  W2        2873            0.0000000000
      8619      2873  TIP3      H2            -35.3802184125       18.9075700614       -5.8078616866  W2        2873            0.0000000000
      8620      2874  TIP3      OH2           -32.5370084125       21.1578300614        0.7405383134  W2        2874            0.0000000000
      8621      2874  TIP3      H1            -33.3724784125       21.6117800614        0.8507783134  W2        2874            0.0000000000
      8622      2874  TIP3      H2            -32.0129484125       21.4336800614        1.4925283134  W2        2874            0.0000000000
      8623      2875  TIP3      OH2           -31.9927484125       27.3706000614       -7.5748216866  W2        2875            0.0000000000
      8624      2875  TIP3      H1            -32.7376484125       26.8631300614       -7.8970316866  W2        2875            0.0000000000
      8625      2875  TIP3      H2            -32.1270284125       27.4194000614       -6.6283416866  W2        2875            0.0000000000
      8626      2876  TIP3      OH2           -24.8428584125       26.5034200614        1.2119383134  W2        2876            0.0000000000
      8627      2876  TIP3      H1            -24.2009784125       26.9600500614        0.6681583134  W2        2876            0.0000000000
      8628      2876  TIP3      H2            -25.6731684125       26.6166600614        0.7493483134  W2        2876            0.0000000000
      8629      2877  TIP3      OH2           -28.0950684125       20.1845900614       -9.3755616866  W2        2877            0.0000000000
      8630      2877  TIP3      H1            -29.0336484125       20.2961500614       -9.5266816866  W2        2877            0.0000000000
      8631      2877  TIP3      H2            -27.7978584125       21.0412800614       -9.0689916866  W2        2877            0.0000000000
      8632      2878  TIP3      OH2           -30.4735384125       27.5549300614        3.6620883134  W2        2878            0.0000000000
      8633      2878  TIP3      H1            -30.8189284125       27.1731700614        4.4690483134  W2        2878            0.0000000000
      8634      2878  TIP3      H2            -30.6735284125       28.4882900614        3.7333783134  W2        2878            0.0000000000
      8635      2879  TIP3      OH2           -27.3767184125       22.0518600614       -7.7148216866  W2        2879            0.0000000000
      8636      2879  TIP3      H1            -26.4848184125       21.9143600614       -7.3957016866  W2        2879            0.0000000000
      8637      2879  TIP3      H2            -27.3203584125       22.8424700614       -8.2514716866  W2        2879            0.0000000000
      8638      2880  TIP3      OH2           -36.8679184125       26.6656000614       -1.8050316866  W2        2880            0.0000000000
      8639      2880  TIP3      H1            -36.1231984125       26.6631700614       -2.4063816866  W2        2880            0.0000000000
      8640      2880  TIP3      H2            -36.7902584125       25.8419800614       -1.3235216866  W2        2880            0.0000000000
      8641      2881  TIP3      OH2           -29.8673384125       28.8290300614       -8.5493616866  W2        2881            0.0000000000
      8642      2881  TIP3      H1            -30.1624984125       29.6558200614       -8.1678816866  W2        2881            0.0000000000
      8643      2881  TIP3      H2            -30.5703384125       28.2097200614       -8.3532216866  W2        2881            0.0000000000
      8644      2882  TIP3      OH2           -39.8599484125       25.1262900614        3.5098183134  W2        2882            0.0000000000
      8645      2882  TIP3      H1            -39.6370884125       24.7082500614        4.3415683134  W2        2882            0.0000000000
      8646      2882  TIP3      H2            -40.4619384125       24.5137900614        3.0870983134  W2        2882            0.0000000000
      8647      2883  TIP3      OH2           -32.8434584125       24.6432800614        5.7227883134  W2        2883            0.0000000000
      8648      2883  TIP3      H1            -33.1393784125       24.4775800614        4.8276983134  W2        2883            0.0000000000
      8649      2883  TIP3      H2            -31.9119384125       24.4233100614        5.7121783134  W2        2883            0.0000000000
      8650      2884  TIP3      OH2           -28.2231784125       30.0164800614        3.6125883134  W2        2884            0.0000000000
      8651      2884  TIP3      H1            -29.1237484125       30.1997400614        3.3449783134  W2        2884            0.0000000000
      8652      2884  TIP3      H2            -28.1890684125       30.2754100614        4.5334683134  W2        2884            0.0000000000
      8653      2885  TIP3      OH2           -22.4918484125       22.2612700614       -8.0201516866  W2        2885            0.0000000000
      8654      2885  TIP3      H1            -23.0462184125       21.8650700614       -8.6924016866  W2        2885            0.0000000000
      8655      2885  TIP3      H2            -22.3914884125       23.1717900614       -8.2978216866  W2        2885            0.0000000000
      8656      2886  TIP3      OH2           -22.5286484125       28.0614400614        4.8169983134  W2        2886            0.0000000000
      8657      2886  TIP3      H1            -23.3797984125       28.2998200614        4.4496383134  W2        2886            0.0000000000
      8658      2886  TIP3      H2            -21.9383084125       28.0447600614        4.0637083134  W2        2886            0.0000000000
      8659      2887  TIP3      OH2           -24.1966784125       31.0473100614       -7.5549416866  W2        2887            0.0000000000
      8660      2887  TIP3      H1            -24.5695684125       30.2216900614       -7.2458816866  W2        2887            0.0000000000
      8661      2887  TIP3      H2            -23.9193284125       30.8642500614       -8.4526016866  W2        2887            0.0000000000
      8662      2888  TIP3      OH2           -27.0362884125       25.8552600614       -0.5337516866  W2        2888            0.0000000000
      8663      2888  TIP3      H1            -27.9645984125       25.6234500614       -0.5608216866  W2        2888            0.0000000000
      8664      2888  TIP3      H2            -26.5851784125       25.0782400614       -0.8638716866  W2        2888            0.0000000000
      8665      2889  TIP3      OH2           -34.4929784125       30.1834200614       -4.4008816866  W2        2889            0.0000000000
      8666      2889  TIP3      H1            -33.9657584125       30.9568600614       -4.6010016866  W2        2889            0.0000000000
      8667      2889  TIP3      H2            -35.3731284125       30.4083400614       -4.7024816866  W2        2889            0.0000000000
      8668      2890  TIP3      OH2           -38.7382084125       25.0458300614       -9.8136416866  W2        2890            0.0000000000
      8669      2890  TIP3      H1            -38.1222184125       25.6725500614       -9.4341616866  W2        2890            0.0000000000
      8670      2890  TIP3      H2            -39.5999484125       25.3618100614       -9.5419916866  W2        2890            0.0000000000
      8671      2891  TIP3      OH2           -33.0657484125       27.8464100614       -4.8244516866  W2        2891            0.0000000000
      8672      2891  TIP3      H1            -33.3067484125       28.7718500614       -4.7829216866  W2        2891            0.0000000000
      8673      2891  TIP3      H2            -33.8063884125       27.3875400614       -4.4280616866  W2        2891            0.0000000000
      8674      2892  TIP3      OH2           -32.5510884125       31.9957700614        1.4906583134  W2        2892            0.0000000000
      8675      2892  TIP3      H1            -32.1886184125       32.8503300614        1.2570983134  W2        2892            0.0000000000
      8676      2892  TIP3      H2            -32.0195684125       31.7039300614        2.2312883134  W2        2892            0.0000000000
      8677      2893  TIP3      OH2           -34.3826684125       32.8681700614       -5.2792316866  W2        2893            0.0000000000
      8678      2893  TIP3      H1            -35.3326184125       32.9739100614       -5.2279016866  W2        2893            0.0000000000
      8679      2893  TIP3      H2            -34.0308584125       33.6889100614       -4.9344816866  W2        2893            0.0000000000
      8680      2894  TIP3      OH2           -29.0070084125       28.0948400614        1.1912183134  W2        2894            0.0000000000
      8681      2894  TIP3      H1            -29.4328784125       27.8670100614        2.0176183134  W2        2894            0.0000000000
      8682      2894  TIP3      H2            -28.4264284125       27.3560200614        1.0087483134  W2        2894            0.0000000000
      8683      2895  TIP3      OH2           -26.8041184125       29.0238900614       -9.7348816866  W2        2895            0.0000000000
      8684      2895  TIP3      H1            -26.4508084125       28.6438700614       -8.9305316866  W2        2895            0.0000000000
      8685      2895  TIP3      H2            -27.7527684125       28.9303700614       -9.6479516866  W2        2895            0.0000000000
      8686      2896  TIP3      OH2           -26.3485884125       32.6467900614        3.6606983134  W2        2896            0.0000000000
      8687      2896  TIP3      H1            -26.9502684125       32.0910800614        3.1653283134  W2        2896            0.0000000000
      8688      2896  TIP3      H2            -26.0672184125       33.3137700614        3.0344383134  W2        2896            0.0000000000
      8689      2897  TIP3      OH2           -22.3006784125       33.5031400614       -9.5338616866  W2        2897            0.0000000000
      8690      2897  TIP3      H1            -21.5568884125       34.0891900614       -9.6737016866  W2        2897            0.0000000000
      8691      2897  TIP3      H2            -22.9948684125       34.0717200614       -9.2006216866  W2        2897            0.0000000000
      8692      2898  TIP3      OH2           -38.2259984125       19.8795600614        3.0679583134  W2        2898            0.0000000000
      8693      2898  TIP3      H1            -39.1187684125       20.2181000614        3.0003583134  W2        2898            0.0000000000
      8694      2898  TIP3      H2            -38.3247184125       19.0241700614        3.4860383134  W2        2898            0.0000000000
      8695      2899  TIP3      OH2           -25.9381884125       27.6960900614       -7.5080916866  W2        2899            0.0000000000
      8696      2899  TIP3      H1            -26.2154284125       26.9680200614       -6.9519816866  W2        2899            0.0000000000
      8697      2899  TIP3      H2            -25.0108884125       27.8152900614       -7.3028316866  W2        2899            0.0000000000
      8698      2900  TIP3      OH2           -38.5747984125       31.6840000614        1.5028983134  W2        2900            0.0000000000
      8699      2900  TIP3      H1            -38.3577684125       30.7522400614        1.4718683134  W2        2900            0.0000000000
      8700      2900  TIP3      H2            -38.3284484125       31.9585000614        2.3861783134  W2        2900            0.0000000000
      8701      2901  TIP3      OH2           -32.7133384125       30.1355000614      -11.2878816866  W2        2901            0.0000000000
      8702      2901  TIP3      H1            -32.4743584125       29.3873100614      -11.8349916866  W2        2901            0.0000000000
      8703      2901  TIP3      H2            -32.9822084125       29.7476700614      -10.4551016866  W2        2901            0.0000000000
      8704      2902  TIP3      OH2           -33.7762784125       29.7058800614       -8.8316216866  W2        2902            0.0000000000
      8705      2902  TIP3      H1            -33.6294784125       29.1858600614       -8.0415316866  W2        2902            0.0000000000
      8706      2902  TIP3      H2            -33.7791084125       30.6126400614       -8.5250316866  W2        2902            0.0000000000
      8707      2903  TIP3      OH2           -37.3231684125       26.9582100614       -8.3210816866  W2        2903            0.0000000000
      8708      2903  TIP3      H1            -38.0092384125       27.3104600614       -7.7541116866  W2        2903            0.0000000000
      8709      2903  TIP3      H2            -36.8003784125       27.7211700614       -8.5676516866  W2        2903            0.0000000000
      8710      2904  TIP3      OH2           -29.4916584125       19.6205900614        1.9578183134  W2        2904            0.0000000000
      8711      2904  TIP3      H1            -28.7928684125       19.6944600614        2.6077883134  W2        2904            0.0000000000
      8712      2904  TIP3      H2            -29.8725184125       18.7560900614        2.1121083134  W2        2904            0.0000000000
      8713      2905  TIP3      OH2           -28.7071684125       19.2727600614       -6.9449516866  W2        2905            0.0000000000
      8714      2905  TIP3      H1            -28.4873384125       19.7443000614       -7.7484116866  W2        2905            0.0000000000
      8715      2905  TIP3      H2            -28.1487684125       19.6670200614       -6.2748916866  W2        2905            0.0000000000
      8716      2906  TIP3      OH2           -31.0385584125       31.4032400614       -8.0822016866  W2        2906            0.0000000000
      8717      2906  TIP3      H1            -31.8549484125       31.9002100614       -8.0297716866  W2        2906            0.0000000000
      8718      2906  TIP3      H2            -30.5089284125       31.8785900614       -8.7223216866  W2        2906            0.0000000000
      8719      2907  TIP3      OH2           -31.5071784125       21.0006400614       -6.1101116866  W2        2907            0.0000000000
      8720      2907  TIP3      H1            -30.6949184125       21.5049600614       -6.0639416866  W2        2907            0.0000000000
      8721      2907  TIP3      H2            -31.7518784125       20.8556100614       -5.1961516866  W2        2907            0.0000000000
      8722      2908  TIP3      OH2           -30.9715384125       21.9869100614        3.0745483134  W2        2908            0.0000000000
      8723      2908  TIP3      H1            -30.8525084125       22.5604500614        3.8315883134  W2        2908            0.0000000000
      8724      2908  TIP3      H2            -30.3160784125       21.2988500614        3.1893283134  W2        2908            0.0000000000
      8725      2909  TIP3      OH2           -30.6235084125       18.0819400614       -5.1720016866  W2        2909            0.0000000000
      8726      2909  TIP3      H1            -30.9701584125       18.6990000614       -4.5275716866  W2        2909            0.0000000000
      8727      2909  TIP3      H2            -29.9648184125       18.5825100614       -5.6534516866  W2        2909            0.0000000000
      8728      2910  TIP3      OH2           -33.7002484125       32.4469600614       -8.1005116866  W2        2910            0.0000000000
      8729      2910  TIP3      H1            -33.5393784125       33.2467100614       -8.6012516866  W2        2910            0.0000000000
      8730      2910  TIP3      H2            -33.8974684125       32.7535600614       -7.2154516866  W2        2910            0.0000000000
      8731      2911  TIP3      OH2           -34.9658084125       19.1448800614       -8.4847516866  W2        2911            0.0000000000
      8732      2911  TIP3      H1            -35.0493284125       20.0331900614       -8.1381116866  W2        2911            0.0000000000
      8733      2911  TIP3      H2            -34.0757784125       18.8795500614       -8.2530716866  W2        2911            0.0000000000
      8734      2912  TIP3      OH2           -24.7669584125       19.8939400614        3.9095183134  W2        2912            0.0000000000
      8735      2912  TIP3      H1            -25.6833784125       20.1561100614        3.8218883134  W2        2912            0.0000000000
      8736      2912  TIP3      H2            -24.4314584125       19.8908400614        3.0130483134  W2        2912            0.0000000000
      8737      2913  TIP3      OH2           -26.1648584125       23.6440400614       -1.9947516866  W2        2913            0.0000000000
      8738      2913  TIP3      H1            -26.9624184125       23.2290600614       -2.3232516866  W2        2913            0.0000000000
      8739      2913  TIP3      H2            -25.7197484125       22.9534100614       -1.5037016866  W2        2913            0.0000000000
      8740      2914  TIP3      OH2           -36.7072784125       29.5721000614       -9.4243016866  W2        2914            0.0000000000
      8741      2914  TIP3      H1            -36.1151284125       30.2715800614       -9.1480616866  W2        2914            0.0000000000
      8742      2914  TIP3      H2            -36.2479784125       29.1390500614      -10.1438416866  W2        2914            0.0000000000
      8743      2915  TIP3      OH2           -38.3913584125       22.2364000614      -10.3083616866  W2        2915            0.0000000000
      8744      2915  TIP3      H1            -38.4360984125       23.1757100614      -10.1296616866  W2        2915            0.0000000000
      8745      2915  TIP3      H2            -39.2790384125       22.0008900614      -10.5781516866  W2        2915            0.0000000000
      8746      2916  TIP3      OH2           -25.0783984125       32.9002900614       -0.3724016866  W2        2916            0.0000000000
      8747      2916  TIP3      H1            -25.2339684125       33.5787300614       -1.0294716866  W2        2916            0.0000000000
      8748      2916  TIP3      H2            -24.1457584125       32.9722200614       -0.1693416866  W2        2916            0.0000000000
      8749      2917  TIP3      OH2           -37.5831584125       17.0180600614       -1.6352616866  W2        2917            0.0000000000
      8750      2917  TIP3      H1            -37.8121784125       17.0773100614       -2.5627616866  W2        2917            0.0000000000
      8751      2917  TIP3      H2            -38.0258184125       16.2266100614       -1.3288516866  W2        2917            0.0000000000
      8752      2918  TIP3      OH2           -38.6528284125       30.9587700614       -5.4746816866  W2        2918            0.0000000000
      8753      2918  TIP3      H1            -39.4849684125       31.4310400614       -5.4475416866  W2        2918            0.0000000000
      8754      2918  TIP3      H2            -38.1069984125       31.4685300614       -6.0733716866  W2        2918            0.0000000000
      8755      2919  TIP3      OH2           -39.3644584125       33.5711400614        5.8551183134  W2        2919            0.0000000000
      8756      2919  TIP3      H1            -38.8242384125       33.3545400614        6.6150383134  W2        2919            0.0000000000
      8757      2919  TIP3      H2            -39.8456584125       32.7657400614        5.6653683134  W2        2919            0.0000000000
      8758      2920  TIP3      OH2           -34.7671184125       32.4905800614        7.4755383134  W2        2920            0.0000000000
      8759      2920  TIP3      H1            -33.9993984125       32.0316600614        7.8164583134  W2        2920            0.0000000000
      8760      2920  TIP3      H2            -34.7884984125       32.2645600614        6.5456583134  W2        2920            0.0000000000
      8761      2921  TIP3      OH2           -30.6751584125       31.9986400614      -11.1492816866  W2        2921            0.0000000000
      8762      2921  TIP3      H1            -31.3190584125       31.3675000614      -10.8279116866  W2        2921            0.0000000000
      8763      2921  TIP3      H2            -29.9133284125       31.4674400614      -11.3809316866  W2        2921            0.0000000000
      8764      2922  TIP3      OH2           -28.1902484125       30.8706900614        6.2046883134  W2        2922            0.0000000000
      8765      2922  TIP3      H1            -28.5412984125       30.0139900614        6.4477283134  W2        2922            0.0000000000
      8766      2922  TIP3      H2            -27.4639284125       31.0133600614        6.8115883134  W2        2922            0.0000000000
      8767      2923  TIP3      OH2           -26.0708684125       31.8156300614      -10.9154816866  W2        2923            0.0000000000
      8768      2923  TIP3      H1            -25.7878284125       31.0211500614      -10.4627916866  W2        2923            0.0000000000
      8769      2923  TIP3      H2            -25.3310784125       32.0487300614      -11.4763716866  W2        2923            0.0000000000
      8770      2924  TIP3      OH2           -39.4575084125       27.3815500614        6.8095483134  W2        2924            0.0000000000
      8771      2924  TIP3      H1            -39.3134584125       26.4796200614        6.5232183134  W2        2924            0.0000000000
      8772      2924  TIP3      H2            -40.2297684125       27.6677600614        6.3217783134  W2        2924            0.0000000000
      8773      2925  TIP3      OH2           -35.1161384125       27.7251200614      -11.0579916866  W2        2925            0.0000000000
      8774      2925  TIP3      H1            -35.0517284125       26.9310800614      -10.5273516866  W2        2925            0.0000000000
      8775      2925  TIP3      H2            -34.4632184125       27.6064000614      -11.7477916866  W2        2925            0.0000000000
      8776      2926  TIP3      OH2           -32.8018984125       27.3513600614        6.2421883134  W2        2926            0.0000000000
      8777      2926  TIP3      H1            -33.1305184125       27.6221700614        5.3849283134  W2        2926            0.0000000000
      8778      2926  TIP3      H2            -32.6500784125       26.4103400614        6.1546883134  W2        2926            0.0000000000
      8779      2927  TIP3      OH2           -29.7637984125       28.7722900614      -11.3221916866  W2        2927            0.0000000000
      8780      2927  TIP3      H1            -30.0323884125       28.9525000614      -10.4213016866  W2        2927            0.0000000000
      8781      2927  TIP3      H2            -29.9702384125       27.8469100614      -11.4536116866  W2        2927            0.0000000000
      8782      2928  TIP3      OH2           -27.0673784125       27.2670900614        3.6254183134  W2        2928            0.0000000000
      8783      2928  TIP3      H1            -26.3218984125       27.8554600614        3.5058183134  W2        2928            0.0000000000
      8784      2928  TIP3      H2            -27.8246984125       27.8490600614        3.6887283134  W2        2928            0.0000000000
      8785      2929  TIP3      OH2           -38.6248584125       24.5818800614        6.2294783134  W2        2929            0.0000000000
      8786      2929  TIP3      H1            -38.2167384125       23.7245400614        6.1085383134  W2        2929            0.0000000000
      8787      2929  TIP3      H2            -38.8850984125       24.5960100614        7.1505083134  W2        2929            0.0000000000
      8788      2930  TIP3      OH2           -33.9667584125       25.6977400614       -8.7521916866  W2        2930            0.0000000000
      8789      2930  TIP3      H1            -34.4265584125       25.2135700614       -8.0663416866  W2        2930            0.0000000000
      8790      2930  TIP3      H2            -33.7118884125       25.0292800614       -9.3881416866  W2        2930            0.0000000000
      8791      2931  TIP3      OH2           -34.6778284125       23.5904500614        3.6037683134  W2        2931            0.0000000000
      8792      2931  TIP3      H1            -35.2962184125       24.2651100614        3.8842383134  W2        2931            0.0000000000
      8793      2931  TIP3      H2            -34.3337084125       23.9118400614        2.7703883134  W2        2931            0.0000000000
      8794      2932  TIP3      OH2           -32.8957184125       23.9409200614      -10.4898716866  W2        2932            0.0000000000
      8795      2932  TIP3      H1            -33.0762184125       23.7860400614      -11.4170416866  W2        2932            0.0000000000
      8796      2932  TIP3      H2            -31.9456684125       24.0487900614      -10.4450816866  W2        2932            0.0000000000
      8797      2933  TIP3      OH2           -29.6580084125       26.0619800614        6.8812483134  W2        2933            0.0000000000
      8798      2933  TIP3      H1            -28.7048884125       26.1458900614        6.8538483134  W2        2933            0.0000000000
      8799      2933  TIP3      H2            -29.8185484125       25.3501600614        7.5007383134  W2        2933            0.0000000000
      8800      2934  TIP3      OH2           -23.5058884125       26.2953400614      -11.0440616866  W2        2934            0.0000000000
      8801      2934  TIP3      H1            -23.7794084125       25.8708900614      -11.8572316866  W2        2934            0.0000000000
      8802      2934  TIP3      H2            -23.4664784125       27.2267900614      -11.2610216866  W2        2934            0.0000000000
      8803      2935  TIP3      OH2           -34.3384584125       20.9455300614        4.6860783134  W2        2935            0.0000000000
      8804      2935  TIP3      H1            -34.1883684125       20.2166600614        4.0840483134  W2        2935            0.0000000000
      8805      2935  TIP3      H2            -34.3362184125       21.7227000614        4.1272983134  W2        2935            0.0000000000
      8806      2936  TIP3      OH2           -33.9258884125       19.3151100614        2.1788183134  W2        2936            0.0000000000
      8807      2936  TIP3      H1            -33.3901384125       19.7667800614        1.5267483134  W2        2936            0.0000000000
      8808      2936  TIP3      H2            -34.7779284125       19.2070900614        1.7562283134  W2        2936            0.0000000000
      8809      2937  TIP3      OH2           -32.3440484125       24.7547300614        2.4183383134  W2        2937            0.0000000000
      8810      2937  TIP3      H1            -31.5935684125       24.5984800614        1.8451183134  W2        2937            0.0000000000
      8811      2937  TIP3      H2            -32.6832184125       25.6063900614        2.1428883134  W2        2937            0.0000000000
      8812      2938  TIP3      OH2           -27.9284284125       22.5699100614        7.4468683134  W2        2938            0.0000000000
      8813      2938  TIP3      H1            -27.7362984125       21.6388500614        7.3353183134  W2        2938            0.0000000000
      8814      2938  TIP3      H2            -27.0707984125       22.9948600614        7.4364083134  W2        2938            0.0000000000
      8815      2939  TIP3      OH2           -26.6117084125       25.3584300614        5.5241383134  W2        2939            0.0000000000
      8816      2939  TIP3      H1            -26.8932084125       26.0678900614        4.9465183134  W2        2939            0.0000000000
      8817      2939  TIP3      H2            -25.6692784125       25.2857300614        5.3732583134  W2        2939            0.0000000000
      8818      2940  TIP3      OH2           -35.8598284125       22.1438800614        6.5976383134  W2        2940            0.0000000000
      8819      2940  TIP3      H1            -36.6269284125       21.6113600614        6.3873983134  W2        2940            0.0000000000
      8820      2940  TIP3      H2            -35.1809284125       21.8339200614        5.9982683134  W2        2940            0.0000000000
      8821      2941  TIP3      OH2           -33.1203384125       16.7716800614        2.6101783134  W2        2941            0.0000000000
      8822      2941  TIP3      H1            -33.2183784125       17.7180000614        2.5047983134  W2        2941            0.0000000000
      8823      2941  TIP3      H2            -33.8627184125       16.3990600614        2.1345283134  W2        2941            0.0000000000
      8824      2942  TIP3      OH2           -31.8562884125       21.0932200614        6.1740183134  W2        2942            0.0000000000
      8825      2942  TIP3      H1            -32.0917484125       20.8738900614        7.0755083134  W2        2942            0.0000000000
      8826      2942  TIP3      H2            -32.6395984125       20.8863400614        5.6642683134  W2        2942            0.0000000000
      8827      2943  TIP3      OH2           -29.1406284125       20.2205700614        5.2493683134  W2        2943            0.0000000000
      8828      2943  TIP3      H1            -30.0880884125       20.2525400614        5.3816983134  W2        2943            0.0000000000
      8829      2943  TIP3      H2            -28.8279584125       19.5952800614        5.9031883134  W2        2943            0.0000000000
      8830      2944  TIP3      OH2           -27.5064784125       18.8546800614        7.2545583134  W2        2944            0.0000000000
      8831      2944  TIP3      H1            -27.6032984125       17.9024100614        7.2487483134  W2        2944            0.0000000000
      8832      2944  TIP3      H2            -27.8281684125       19.1233600614        8.1151083134  W2        2944            0.0000000000
      8833      2945  TIP3      OH2           -37.6795484125       20.0642600614        6.3021083134  W2        2945            0.0000000000
      8834      2945  TIP3      H1            -37.4678084125       19.3578700614        5.6918583134  W2        2945            0.0000000000
      8835      2945  TIP3      H2            -37.7907984125       19.6268600614        7.1462283134  W2        2945            0.0000000000
      8836      2946  TIP3      OH2           -32.8985284125       16.0654200614        5.2814583134  W2        2946            0.0000000000
      8837      2946  TIP3      H1            -32.1866884125       15.4256400614        5.2673683134  W2        2946            0.0000000000
      8838      2946  TIP3      H2            -32.9994884125       16.3322500614        4.3677683134  W2        2946            0.0000000000
      8839      2947  TIP3      OH2           -32.5447784125       17.7482600614        7.3350883134  W2        2947            0.0000000000
      8840      2947  TIP3      H1            -32.6765584125       17.2726400614        6.5149383134  W2        2947            0.0000000000
      8841      2947  TIP3      H2            -33.1440384125       18.4926200614        7.2797983134  W2        2947            0.0000000000
      8842      2948  TIP3      OH2           -32.9985484125       34.6312900614       -9.4885116866  W2        2948            0.0000000000
      8843      2948  TIP3      H1            -32.0654784125       34.7891600614       -9.3446716866  W2        2948            0.0000000000
      8844      2948  TIP3      H2            -33.2626684125       35.3065900614      -10.1133616866  W2        2948            0.0000000000
      8845      2949  TIP3      OH2           -39.4300584125       29.2676700614      -10.0057016866  W2        2949            0.0000000000
      8846      2949  TIP3      H1            -38.5161384125       29.3465600614       -9.7323116866  W2        2949            0.0000000000
      8847      2949  TIP3      H2            -39.4227484125       28.5806300614      -10.6721416866  W2        2949            0.0000000000
      8848      2950  TIP3      OH2           -40.7809984125       34.6605200614       -4.9283116866  W2        2950            0.0000000000
      8849      2950  TIP3      H1            -41.4282884125       34.1986900614       -5.4611916866  W2        2950            0.0000000000
      8850      2950  TIP3      H2            -40.4265384125       33.9888500614       -4.3456916866  W2        2950            0.0000000000
      8851      2951  TIP3      OH2           -39.9110784125       32.7412200614       -3.1236916866  W2        2951            0.0000000000
      8852      2951  TIP3      H1            -40.2453984125       31.8609500614       -2.9516716866  W2        2951            0.0000000000
      8853      2951  TIP3      H2            -39.6888384125       33.0867200614       -2.2591316866  W2        2951            0.0000000000
      8854      2952  TIP3      OH2           -22.3625984125       33.5508600614       -0.1432116866  W2        2952            0.0000000000
      8855      2952  TIP3      H1            -22.3839284125       33.7357000614        0.7957283134  W2        2952            0.0000000000
      8856      2952  TIP3      H2            -21.6719784125       34.1192600614       -0.4840716866  W2        2952            0.0000000000
      8857      2953  TIP3      OH2           -22.7993084125       33.1179700614        2.7786983134  W2        2953            0.0000000000
      8858      2953  TIP3      H1            -23.2864384125       32.3823800614        2.4074383134  W2        2953            0.0000000000
      8859      2953  TIP3      H2            -22.2500384125       32.7243600614        3.4566383134  W2        2953            0.0000000000
      8860      2954  TIP3      OH2           -24.3485784125       28.9077800614        7.4167283134  W2        2954            0.0000000000
      8861      2954  TIP3      H1            -25.2144684125       28.8027500614        7.8109583134  W2        2954            0.0000000000
      8862      2954  TIP3      H2            -23.9719884125       29.6661100614        7.8631983134  W2        2954            0.0000000000
      8863      2955  TIP3      OH2           -23.0476084125       27.1641500614       -7.0690216866  W2        2955            0.0000000000
      8864      2955  TIP3      H1            -22.1974684125       27.5852400614       -6.9418616866  W2        2955            0.0000000000
      8865      2955  TIP3      H2            -23.0420984125       26.4241600614       -6.4618816866  W2        2955            0.0000000000
      8866      2956  TIP3      OH2           -22.6530484125       25.2178900614       -5.2454516866  W2        2956            0.0000000000
      8867      2956  TIP3      H1            -23.3795884125       24.7381500614       -4.8476916866  W2        2956            0.0000000000
      8868      2956  TIP3      H2            -22.0717184125       25.4233600614       -4.5132916866  W2        2956            0.0000000000
      8869      2957  TIP3      OH2           -22.8939284125       28.0026400614       -0.2976916866  W2        2957            0.0000000000
      8870      2957  TIP3      H1            -22.0605084125       27.6246400614       -0.5783316866  W2        2957            0.0000000000
      8871      2957  TIP3      H2            -22.7818984125       28.9457600614       -0.4167816866  W2        2957            0.0000000000
      8872      2958  TIP3      OH2           -24.4076984125       30.8803900614        2.0091483134  W2        2958            0.0000000000
      8873      2958  TIP3      H1            -25.0551684125       31.2055400614        2.6346683134  W2        2958            0.0000000000
      8874      2958  TIP3      H2            -24.9252984125       30.4401600614        1.3349783134  W2        2958            0.0000000000
      8875      2959  TIP3      OH2           -22.3847384125       25.1187400614       -8.8543216866  W2        2959            0.0000000000
      8876      2959  TIP3      H1            -22.9066284125       25.4751500614       -9.5732316866  W2        2959            0.0000000000
      8877      2959  TIP3      H2            -22.4178184125       25.7935200614       -8.1762316866  W2        2959            0.0000000000
      8878      2960  TIP3      OH2           -24.0358384125       22.3583000614      -10.3036116866  W2        2960            0.0000000000
      8879      2960  TIP3      H1            -23.9393984125       23.0250000614      -10.9836416866  W2        2960            0.0000000000
      8880      2960  TIP3      H2            -24.1758784125       21.5429300614      -10.7850616866  W2        2960            0.0000000000
      8881      2961  TIP3      OH2           -24.8663684125       23.7385400614       -4.6825816866  W2        2961            0.0000000000
      8882      2961  TIP3      H1            -25.0164884125       22.7934000614       -4.7028016866  W2        2961            0.0000000000
      8883      2961  TIP3      H2            -25.2199184125       24.0196800614       -3.8386716866  W2        2961            0.0000000000
      8884      2962  TIP3      OH2           -39.8311284125       25.8167600614       -0.6722016866  W2        2962            0.0000000000
      8885      2962  TIP3      H1            -39.6468384125       25.7349300614       -1.6079116866  W2        2962            0.0000000000
      8886      2962  TIP3      H2            -38.9818384125       25.6924600614       -0.2485616866  W2        2962            0.0000000000
      8887      2963  TIP3      OH2           -24.0100784125       25.7088700614        4.9562483134  W2        2963            0.0000000000
      8888      2963  TIP3      H1            -23.4273484125       24.9741000614        5.1479683134  W2        2963            0.0000000000
      8889      2963  TIP3      H2            -23.4461484125       26.4809000614        5.0028283134  W2        2963            0.0000000000
      8890      2964  TIP3      OH2           -22.5133684125       23.6114500614        5.6407883134  W2        2964            0.0000000000
      8891      2964  TIP3      H1            -23.3766984125       23.2326600614        5.4752583134  W2        2964            0.0000000000
      8892      2964  TIP3      H2            -21.9089984125       22.8729300614        5.5663683134  W2        2964            0.0000000000
      8893      2965  TIP3      OH2           -24.7884584125       19.7662800614      -11.1860616866  W2        2965            0.0000000000
      8894      2965  TIP3      H1            -24.1778784125       19.3949600614      -10.5492416866  W2        2965            0.0000000000
      8895      2965  TIP3      H2            -25.6253084125       19.3449700614      -10.9900616866  W2        2965            0.0000000000
      8896      2966  TIP3      OH2           -25.1558884125       21.3211200614       -6.2200716866  W2        2966            0.0000000000
      8897      2966  TIP3      H1            -24.8761784125       20.4141600614       -6.0959016866  W2        2966            0.0000000000
      8898      2966  TIP3      H2            -24.3967184125       21.7552700614       -6.6091516866  W2        2966            0.0000000000
      8899      2967  TIP3      OH2           -24.5440584125       21.9028600614       -0.7841816866  W2        2967            0.0000000000
      8900      2967  TIP3      H1            -23.6112584125       22.1148500614       -0.8185816866  W2        2967            0.0000000000
      8901      2967  TIP3      H2            -24.7793084125       22.0040700614        0.1381183134  W2        2967            0.0000000000
      8902      2968  TIP3      OH2           -24.5148684125       22.6393900614        1.9917583134  W2        2968            0.0000000000
      8903      2968  TIP3      H1            -25.3577384125       22.9074300614        2.3577383134  W2        2968            0.0000000000
      8904      2968  TIP3      H2            -24.0724384125       23.4615800614        1.7808683134  W2        2968            0.0000000000
      8905      2969  TIP3      OH2           -40.2336484125       21.0872600614        5.4686783134  W2        2969            0.0000000000
      8906      2969  TIP3      H1            -39.3141584125       20.9650900614        5.7049883134  W2        2969            0.0000000000
      8907      2969  TIP3      H2            -40.6831984125       20.3372300614        5.8580283134  W2        2969            0.0000000000
      8908      2970  TIP3      OH2           -22.2317084125       16.6194100614        7.3452583134  W2        2970            0.0000000000
      8909      2970  TIP3      H1            -21.8820084125       15.9657600614        6.7397283134  W2        2970            0.0000000000
      8910      2970  TIP3      H2            -22.0847584125       17.4568200614        6.9055183134  W2        2970            0.0000000000
      8911      2971  TIP3      OH2           -24.5424084125       18.5840500614       -6.1718716866  W2        2971            0.0000000000
      8912      2971  TIP3      H1            -24.3599084125       18.1352000614       -5.3463716866  W2        2971            0.0000000000
      8913      2971  TIP3      H2            -25.1421184125       17.9994900614       -6.6354116866  W2        2971            0.0000000000
      8914      2972  TIP3      OH2           -39.0123984125       19.3994200614       -1.6400316866  W2        2972            0.0000000000
      8915      2972  TIP3      H1            -38.5672384125       18.6076700614       -1.3380616866  W2        2972            0.0000000000
      8916      2972  TIP3      H2            -38.5460984125       20.1159400614       -1.2094716866  W2        2972            0.0000000000
      8917      2973  TIP3      OH2           -40.7083684125       22.3987200614       -0.5710116866  W2        2973            0.0000000000
      8918      2973  TIP3      H1            -40.2163884125       22.1777700614       -1.3618116866  W2        2973            0.0000000000
      8919      2973  TIP3      H2            -40.3462784125       23.2390600614       -0.2900616866  W2        2973            0.0000000000
      8920      2974  TIP3      OH2           -22.7119884125       18.7288700614        5.6943883134  W2        2974            0.0000000000
      8921      2974  TIP3      H1            -23.6294184125       18.9995800614        5.6587383134  W2        2974            0.0000000000
      8922      2974  TIP3      H2            -22.5890484125       18.1937100614        4.9103583134  W2        2974            0.0000000000
      8923      2975  TIP3      OH2           -22.6757884125       18.6518600614       -9.6438416866  W2        2975            0.0000000000
      8924      2975  TIP3      H1            -22.2635284125       17.9304300614      -10.1190416866  W2        2975            0.0000000000
      8925      2975  TIP3      H2            -21.9941384125       19.3213200614       -9.5854116866  W2        2975            0.0000000000
      8926      2976  TIP3      OH2           -40.3947184125       18.6566300614       -6.5167716866  W2        2976            0.0000000000
      8927      2976  TIP3      H1            -41.3198784125       18.8652900614       -6.6462216866  W2        2976            0.0000000000
      8928      2976  TIP3      H2            -39.9407284125       19.1407100614       -7.2065416866  W2        2976            0.0000000000
      8929      2977  TIP3      OH2           -25.6239984125       33.6408000614       -4.5710316866  W2        2977            0.0000000000
      8930      2977  TIP3      H1            -24.9717084125       33.2930100614       -5.1791216866  W2        2977            0.0000000000
      8931      2977  TIP3      H2            -25.1136184125       34.1291200614       -3.9250616866  W2        2977            0.0000000000
      8932      2978  TIP3      OH2           -40.4311784125       17.3945300614        1.8274783134  W2        2978            0.0000000000
      8933      2978  TIP3      H1            -41.0961284125       17.1485600614        2.4705683134  W2        2978            0.0000000000
      8934      2978  TIP3      H2            -40.8740484125       18.0165700614        1.2502783134  W2        2978            0.0000000000
      8935      2979  TIP3      OH2           -38.2392484125       30.5699400614        5.9720583134  W2        2979            0.0000000000
      8936      2979  TIP3      H1            -39.0599984125       30.7445900614        5.5115283134  W2        2979            0.0000000000
      8937      2979  TIP3      H2            -38.4914684125       30.4964100614        6.8924983134  W2        2979            0.0000000000
      8938      2980  TIP3      OH2           -35.2849584125       31.5440600614        2.2304583134  W2        2980            0.0000000000
      8939      2980  TIP3      H1            -35.7098484125       32.3539100614        1.9479183134  W2        2980            0.0000000000
      8940      2980  TIP3      H2            -34.3806784125       31.6294700614        1.9284383134  W2        2980            0.0000000000
      8941      2981  TIP3      OH2           -30.9738184125       32.9430600614        5.1898283134  W2        2981            0.0000000000
      8942      2981  TIP3      H1            -30.7890684125       32.6096700614        6.0678583134  W2        2981            0.0000000000
      8943      2981  TIP3      H2            -30.1273684125       33.2529200614        4.8677483134  W2        2981            0.0000000000
      8944      2982  TIP3      OH2           -28.6287784125       34.2289500614        4.4339683134  W2        2982            0.0000000000
      8945      2982  TIP3      H1            -27.9518884125       33.5961800614        4.1938883134  W2        2982            0.0000000000
      8946      2982  TIP3      H2            -28.3068984125       34.6300000614        5.2412983134  W2        2982            0.0000000000
      8947      2983  TIP3      OH2           -23.7113984125       16.8185000614        3.5134683134  W2        2983            0.0000000000
      8948      2983  TIP3      H1            -24.5240484125       17.1435300614        3.1259383134  W2        2983            0.0000000000
      8949      2983  TIP3      H2            -23.4785484125       16.0583500614        2.9803783134  W2        2983            0.0000000000
      8950      2984  TIP3      OH2           -37.8832884125       34.8004500614        2.2779883134  W2        2984            0.0000000000
      8951      2984  TIP3      H1            -38.6036484125       35.2405500614        1.8267583134  W2        2984            0.0000000000
      8952      2984  TIP3      H2            -38.2488884125       34.5499200614        3.1263883134  W2        2984            0.0000000000
      8953      2985  TIP3      OH2           -35.4160284125       34.4008400614        1.3077083134  W2        2985            0.0000000000
      8954      2985  TIP3      H1            -36.2808084125       34.4726900614        1.7117183134  W2        2985            0.0000000000
      8955      2985  TIP3      H2            -35.4711284125       34.9475700614        0.5239583134  W2        2985            0.0000000000
      8956      2986  TIP3      OH2           -30.7054684125       34.2887300614        0.4833083134  W2        2986            0.0000000000
      8957      2986  TIP3      H1            -31.1620684125       34.8177000614       -0.1708516866  W2        2986            0.0000000000
      8958      2986  TIP3      H2            -30.5426684125       34.8918700614        1.2085383134  W2        2986            0.0000000000
      8959      2987  TIP3      OH2           -28.3778384125       33.1666900614        1.4283383134  W2        2987            0.0000000000
      8960      2987  TIP3      H1            -29.2824684125       33.3317100614        1.1625483134  W2        2987            0.0000000000
      8961      2987  TIP3      H2            -27.9489784125       34.0199100614        1.3626783134  W2        2987            0.0000000000
      8962      2988  TIP3      OH2           -25.7736484125       34.7366000614        1.7231183134  W2        2988            0.0000000000
      8963      2988  TIP3      H1            -25.9554484125       35.6524900614        1.5126083134  W2        2988            0.0000000000
      8964      2988  TIP3      H2            -25.5968684125       34.3263100614        0.8765783134  W2        2988            0.0000000000
      8965      2989  TIP3      OH2           -38.4684784125       33.4237000614       -0.8118316866  W2        2989            0.0000000000
      8966      2989  TIP3      H1            -38.4868784125       32.9982100614        0.0453983134  W2        2989            0.0000000000
      8967      2989  TIP3      H2            -37.6636884125       33.1052000614       -1.2206116866  W2        2989            0.0000000000
      8968      2990  TIP3      OH2           -36.3271684125       32.1335700614       -2.1568416866  W2        2990            0.0000000000
      8969      2990  TIP3      H1            -36.5460984125       31.2173100614       -1.9872416866  W2        2990            0.0000000000
      8970      2990  TIP3      H2            -35.5029484125       32.2736100614       -1.6907016866  W2        2990            0.0000000000
      8971      2991  TIP3      OH2           -33.7899184125       32.6035000614       -1.3080416866  W2        2991            0.0000000000
      8972      2991  TIP3      H1            -33.5773484125       31.7154000614       -1.5949516866  W2        2991            0.0000000000
      8973      2991  TIP3      H2            -33.7254084125       32.5692700614       -0.3536416866  W2        2991            0.0000000000
      8974      2992  TIP3      OH2           -30.2815484125       18.2675600614       -2.1637116866  W2        2992            0.0000000000
      8975      2992  TIP3      H1            -30.9558684125       17.6381200614       -1.9081316866  W2        2992            0.0000000000
      8976      2992  TIP3      H2            -29.7176284125       17.7834500614       -2.7669216866  W2        2992            0.0000000000
      8977      2993  TIP3      OH2           -25.1388284125       16.3749600614       -2.0510016866  W2        2993            0.0000000000
      8978      2993  TIP3      H1            -24.5350684125       16.9225000614       -2.5529016866  W2        2993            0.0000000000
      8979      2993  TIP3      H2            -26.0086284125       16.6940000614       -2.2915916866  W2        2993            0.0000000000
      8980      2994  TIP3      OH2           -23.4117884125       17.5138300614       -3.7179116866  W2        2994            0.0000000000
      8981      2994  TIP3      H1            -22.8000384125       16.9994000614       -4.2445516866  W2        2994            0.0000000000
      8982      2994  TIP3      H2            -23.0294484125       18.3910400614       -3.6944716866  W2        2994            0.0000000000
      8983      2995  TIP3      OH2           -37.9547984125       16.9015900614       -4.3417216866  W2        2995            0.0000000000
      8984      2995  TIP3      H1            -38.7318184125       16.6670800614       -4.8491316866  W2        2995            0.0000000000
      8985      2995  TIP3      H2            -37.4244384125       16.1048000614       -4.3329216866  W2        2995            0.0000000000
      8986      2996  TIP3      OH2           -39.1184584125       16.6994000614       -8.5381116866  W2        2996            0.0000000000
      8987      2996  TIP3      H1            -38.6793884125       17.3104500614       -9.1297616866  W2        2996            0.0000000000
      8988      2996  TIP3      H2            -39.7522184125       17.2378100614       -8.0641116866  W2        2996            0.0000000000
      8989      2997  TIP3      OH2           -33.3755384125       16.8283000614       -4.5284116866  W2        2997            0.0000000000
      8990      2997  TIP3      H1            -32.5011984125       17.2167300614       -4.5579816866  W2        2997            0.0000000000
      8991      2997  TIP3      H2            -33.5114584125       16.6130800614       -3.6056916866  W2        2997            0.0000000000
      8992      2998  TIP3      OH2           -27.8186984125       16.8582800614       -2.8792416866  W2        2998            0.0000000000
      8993      2998  TIP3      H1            -27.7425384125       16.9534400614       -3.8286416866  W2        2998            0.0000000000
      8994      2998  TIP3      H2            -28.0937784125       15.9505700614       -2.7503316866  W2        2998            0.0000000000
      8995      2999  TIP3      OH2           -26.4654384125       16.8840600614       -7.1867416866  W2        2999            0.0000000000
      8996      2999  TIP3      H1            -27.1683284125       17.4989800614       -7.3966016866  W2        2999            0.0000000000
      8997      2999  TIP3      H2            -26.9102984125       16.0467300614       -7.0556516866  W2        2999            0.0000000000
      8998      3000  TIP3      OH2           -39.2175084125       32.6476200614       -7.6406016866  W2        3000            0.0000000000
      8999      3000  TIP3      H1            -39.9025184125       32.6095100614       -8.3080916866  W2        3000            0.0000000000
      9000      3000  TIP3      H2            -39.2137884125       33.5603800614       -7.3523916866  W2        3000            0.0000000000
      9001      3001  TIP3      OH2           -37.2575484125       18.6155500614      -10.0957016866  W2        3001            0.0000000000
      9002      3001  TIP3      H1            -36.7662084125       17.9857900614      -10.6231516866  W2        3001            0.0000000000
      9003      3001  TIP3      H2            -36.6339184125       18.9114900614       -9.4325816866  W2        3001            0.0000000000
      9004      3002  TIP3      OH2           -32.2315384125       18.9087000614       -7.6386516866  W2        3002            0.0000000000
      9005      3002  TIP3      H1            -32.0534084125       18.2620200614       -6.9557916866  W2        3002            0.0000000000
      9006      3002  TIP3      H2            -32.2849184125       19.7424700614       -7.1715416866  W2        3002            0.0000000000
      9007      3003  TIP3      OH2           -30.3531584125       33.8571100614       -9.2429816866  W2        3003            0.0000000000
      9008      3003  TIP3      H1            -29.4871384125       34.2238500614       -9.4211616866  W2        3003            0.0000000000
      9009      3003  TIP3      H2            -30.5998784125       33.4179100614      -10.0569016866  W2        3003            0.0000000000
      9010      3004  TIP3      OH2           -23.6441984125       33.4201400614       -6.5638716866  W2        3004            0.0000000000
      9011      3004  TIP3      H1            -23.8384884125       32.6723500614       -7.1289116866  W2        3004            0.0000000000
      9012      3004  TIP3      H2            -23.6831884125       34.1781500614       -7.1470816866  W2        3004            0.0000000000
      9013      3005  TIP3      OH2           -37.9969984125       17.4157800614        5.1758983134  W2        3005            0.0000000000
      9014      3005  TIP3      H1            -38.3631784125       16.6500400614        5.6183683134  W2        3005            0.0000000000
      9015      3005  TIP3      H2            -37.0841484125       17.4448000614        5.4624083134  W2        3005            0.0000000000
      9016      3006  TIP3      OH2           -36.0239184125       16.7662200614        6.7116083134  W2        3006            0.0000000000
      9017      3006  TIP3      H1            -35.1255584125       16.4922400614        6.5269483134  W2        3006            0.0000000000
      9018      3006  TIP3      H2            -36.4106084125       16.0238200614        7.1758683134  W2        3006            0.0000000000
      9019      3007  TIP3      OH2           -37.3993884125       33.5677000614      -10.6153916866  W2        3007            0.0000000000
      9020      3007  TIP3      H1            -37.6669284125       33.8539900614       -9.7420816866  W2        3007            0.0000000000
      9021      3007  TIP3      H2            -36.6281284125       33.0216200614      -10.4631416866  W2        3007            0.0000000000
      9022      3008  TIP3      OH2           -27.6026884125       16.0987500614        6.8938883134  W2        3008            0.0000000000
      9023      3008  TIP3      H1            -27.5259684125       15.6728200614        7.7476583134  W2        3008            0.0000000000
      9024      3008  TIP3      H2            -26.7090284125       16.1122200614        6.5512383134  W2        3008            0.0000000000
      9025      3009  TIP3      OH2           -24.4265784125       32.1713800614        5.5863083134  W2        3009            0.0000000000
      9026      3009  TIP3      H1            -25.2083884125       31.9851800614        5.0663683134  W2        3009            0.0000000000
      9027      3009  TIP3      H2            -24.4985884125       33.1008100614        5.8035583134  W2        3009            0.0000000000
      9028      3010  TIP3      OH2           -10.0205384125       26.0578200614       -4.3829716866  W2        3010            0.0000000000
      9029      3010  TIP3      H1             -9.9314284125       27.0016400614       -4.5152616866  W2        3010            0.0000000000
      9030      3010  TIP3      H2            -10.6587784125       25.7824600614       -5.0410316866  W2        3010            0.0000000000
      9031      3011  TIP3      OH2           -11.0874084125       25.3128900614       -0.9641516866  W2        3011            0.0000000000
      9032      3011  TIP3      H1            -11.1256584125       24.6665200614       -0.2591916866  W2        3011            0.0000000000
      9033      3011  TIP3      H2            -11.4097584125       24.8463300614       -1.7352816866  W2        3011            0.0000000000
      9034      3012  TIP3      OH2           -18.7189084125       24.9271000614        0.6288383134  W2        3012            0.0000000000
      9035      3012  TIP3      H1            -18.6776984125       24.3014300614        1.3520783134  W2        3012            0.0000000000
      9036      3012  TIP3      H2            -18.0161384125       25.5509600614        0.8108783134  W2        3012            0.0000000000
      9037      3013  TIP3      OH2            -7.3813884125       28.2519300614       -2.6626416866  W2        3013            0.0000000000
      9038      3013  TIP3      H1             -7.8221184125       27.5315300614       -2.2120816866  W2        3013            0.0000000000
      9039      3013  TIP3      H2             -7.3944184125       28.9726500614       -2.0328716866  W2        3013            0.0000000000
      9040      3014  TIP3      OH2           -17.7955984125       29.3769900614       -0.8362516866  W2        3014            0.0000000000
      9041      3014  TIP3      H1            -18.1650784125       28.5750400614       -1.2058216866  W2        3014            0.0000000000
      9042      3014  TIP3      H2            -16.8544884125       29.2084800614       -0.7899116866  W2        3014            0.0000000000
      9043      3015  TIP3      OH2           -21.1855484125       23.0372500614       -5.4433716866  W2        3015            0.0000000000
      9044      3015  TIP3      H1            -21.6332084125       23.8831200614       -5.4617216866  W2        3015            0.0000000000
      9045      3015  TIP3      H2            -21.7464284125       22.4576700614       -5.9588616866  W2        3015            0.0000000000
      9046      3016  TIP3      OH2           -20.4749384125       25.1992100614       -3.3175716866  W2        3016            0.0000000000
      9047      3016  TIP3      H1            -20.2615884125       24.4293700614       -2.7902716866  W2        3016            0.0000000000
      9048      3016  TIP3      H2            -19.7371784125       25.2888800614       -3.9208116866  W2        3016            0.0000000000
      9049      3017  TIP3      OH2           -10.2698384125       33.3561000614       -2.4506016866  W2        3017            0.0000000000
      9050      3017  TIP3      H1             -9.6501984125       32.6795700614       -2.7236816866  W2        3017            0.0000000000
      9051      3017  TIP3      H2            -10.4780984125       33.1381800614       -1.5421116866  W2        3017            0.0000000000
      9052      3018  TIP3      OH2           -12.6979684125       27.7450300614       -0.5580516866  W2        3018            0.0000000000
      9053      3018  TIP3      H1            -12.3941784125       27.0591700614       -1.1526416866  W2        3018            0.0000000000
      9054      3018  TIP3      H2            -11.9765684125       27.8639000614        0.0597483134  W2        3018            0.0000000000
      9055      3019  TIP3      OH2            -4.0349884125       19.3465600614        0.3025683134  W2        3019            0.0000000000
      9056      3019  TIP3      H1             -3.9857684125       19.9566800614        1.0384783134  W2        3019            0.0000000000
      9057      3019  TIP3      H2             -3.6094784125       19.8076500614       -0.4203216866  W2        3019            0.0000000000
      9058      3020  TIP3      OH2            -9.5572684125       22.1392700614       -0.2305716866  W2        3020            0.0000000000
      9059      3020  TIP3      H1             -9.4146784125       21.1929700614       -0.2104116866  W2        3020            0.0000000000
      9060      3020  TIP3      H2             -9.6633684125       22.3462500614       -1.1590816866  W2        3020            0.0000000000
      9061      3021  TIP3      OH2           -16.4024384125       20.2409100614       -2.9580916866  W2        3021            0.0000000000
      9062      3021  TIP3      H1            -16.3593284125       21.1007600614       -3.3764616866  W2        3021            0.0000000000
      9063      3021  TIP3      H2            -16.8600284125       19.6883800614       -3.5917716866  W2        3021            0.0000000000
      9064      3022  TIP3      OH2            -8.6801684125       20.3714700614       -4.5572616866  W2        3022            0.0000000000
      9065      3022  TIP3      H1             -8.0337384125       20.0427900614       -3.9325016866  W2        3022            0.0000000000
      9066      3022  TIP3      H2             -8.1702284125       20.8893700614       -5.1801216866  W2        3022            0.0000000000
      9067      3023  TIP3      OH2           -19.7822884125       22.6374900614       -2.1959516866  W2        3023            0.0000000000
      9068      3023  TIP3      H1            -19.1286284125       22.0876600614       -1.7639416866  W2        3023            0.0000000000
      9069      3023  TIP3      H2            -19.7583584125       22.3633900614       -3.1127516866  W2        3023            0.0000000000
      9070      3024  TIP3      OH2           -14.6258384125       24.1876200614       -2.9808016866  W2        3024            0.0000000000
      9071      3024  TIP3      H1            -14.0097384125       23.6611600614       -2.4714016866  W2        3024            0.0000000000
      9072      3024  TIP3      H2            -15.2119584125       23.5474900614       -3.3844416866  W2        3024            0.0000000000
      9073      3025  TIP3      OH2            -3.6435284125       20.8244800614        2.5385483134  W2        3025            0.0000000000
      9074      3025  TIP3      H1             -4.3320684125       21.4825500614        2.4432083134  W2        3025            0.0000000000
      9075      3025  TIP3      H2             -3.6280684125       20.6272700614        3.4750883134  W2        3025            0.0000000000
      9076      3026  TIP3      OH2           -17.5922484125       19.1587500614        1.1159883134  W2        3026            0.0000000000
      9077      3026  TIP3      H1            -17.8110784125       19.6888100614        0.3495883134  W2        3026            0.0000000000
      9078      3026  TIP3      H2            -18.2601584125       19.3853000614        1.7631283134  W2        3026            0.0000000000
      9079      3027  TIP3      OH2           -10.2232684125       28.6588600614       -5.3401016866  W2        3027            0.0000000000
      9080      3027  TIP3      H1            -10.5187584125       28.3360900614       -6.1914116866  W2        3027            0.0000000000
      9081      3027  TIP3      H2            -10.5474884125       29.5585300614       -5.2988416866  W2        3027            0.0000000000
      9082      3028  TIP3      OH2           -15.0231084125       26.8343200614        1.4033583134  W2        3028            0.0000000000
      9083      3028  TIP3      H1            -15.7631984125       27.4324700614        1.5068783134  W2        3028            0.0000000000
      9084      3028  TIP3      H2            -14.3091584125       27.3882800614        1.0877183134  W2        3028            0.0000000000
      9085      3029  TIP3      OH2            -6.9163284125       19.6624000614       -2.5766716866  W2        3029            0.0000000000
      9086      3029  TIP3      H1             -7.1315284125       18.8967400614       -2.0440716866  W2        3029            0.0000000000
      9087      3029  TIP3      H2             -6.2605884125       20.1348600614       -2.0638216866  W2        3029            0.0000000000
      9088      3030  TIP3      OH2           -17.9985184125       21.0509300614       -0.9317916866  W2        3030            0.0000000000
      9089      3030  TIP3      H1            -17.3848884125       21.6836900614       -0.5585516866  W2        3030            0.0000000000
      9090      3030  TIP3      H2            -17.4864484125       20.5784300614       -1.5881016866  W2        3030            0.0000000000
      9091      3031  TIP3      OH2           -16.6156784125       28.7986200614        2.1905083134  W2        3031            0.0000000000
      9092      3031  TIP3      H1            -16.6209184125       29.6779700614        1.8124383134  W2        3031            0.0000000000
      9093      3031  TIP3      H2            -17.4692684125       28.7150300614        2.6154983134  W2        3031            0.0000000000
      9094      3032  TIP3      OH2           -20.4945884125       28.4694100614       -7.0275616866  W2        3032            0.0000000000
      9095      3032  TIP3      H1            -20.7664984125       28.6985100614       -7.9162716866  W2        3032            0.0000000000
      9096      3032  TIP3      H2            -20.4490184125       29.3072900614       -6.5670316866  W2        3032            0.0000000000
      9097      3033  TIP3      OH2            -6.8696184125       30.0910000614       -0.3147116866  W2        3033            0.0000000000
      9098      3033  TIP3      H1             -7.8112484125       30.1493900614       -0.1530216866  W2        3033            0.0000000000
      9099      3033  TIP3      H2             -6.5930084125       30.9970500614       -0.4517416866  W2        3033            0.0000000000
      9100      3034  TIP3      OH2            -6.5689184125       18.3775300614        1.1026783134  W2        3034            0.0000000000
      9101      3034  TIP3      H1             -7.3049984125       18.9882400614        1.0648083134  W2        3034            0.0000000000
      9102      3034  TIP3      H2             -5.8855184125       18.7924300614        0.5763183134  W2        3034            0.0000000000
      9103      3035  TIP3      OH2           -13.5657784125       16.4642600614       -1.4315216866  W2        3035            0.0000000000
      9104      3035  TIP3      H1            -13.6833584125       15.5158600614       -1.4856916866  W2        3035            0.0000000000
      9105      3035  TIP3      H2            -14.4207684125       16.7968700614       -1.1584116866  W2        3035            0.0000000000
      9106      3036  TIP3      OH2            -8.6174984125       31.8723500614       -3.6895516866  W2        3036            0.0000000000
      9107      3036  TIP3      H1             -8.1922684125       31.1651400614       -4.1745916866  W2        3036            0.0000000000
      9108      3036  TIP3      H2             -8.3004984125       32.6736200614       -4.1063316866  W2        3036            0.0000000000
      9109      3037  TIP3      OH2            -7.4578484125       29.7732000614       -5.1808916866  W2        3037            0.0000000000
      9110      3037  TIP3      H1             -7.7153684125       29.0832100614       -5.7923016866  W2        3037            0.0000000000
      9111      3037  TIP3      H2             -7.3867684125       29.3303200614       -4.3353016866  W2        3037            0.0000000000
      9112      3038  TIP3      OH2            -5.7718284125       28.3398700614        3.2964583134  W2        3038            0.0000000000
      9113      3038  TIP3      H1             -5.6321984125       27.7481200614        2.5571583134  W2        3038            0.0000000000
      9114      3038  TIP3      H2             -5.6045484125       29.2124600614        2.9403383134  W2        3038            0.0000000000
      9115      3039  TIP3      OH2           -11.2992884125       25.3018200614       -6.9309416866  W2        3039            0.0000000000
      9116      3039  TIP3      H1            -12.0107384125       25.8367900614       -7.2828916866  W2        3039            0.0000000000
      9117      3039  TIP3      H2            -10.6083284125       25.3570300614       -7.5910516866  W2        3039            0.0000000000
      9118      3040  TIP3      OH2           -11.2453684125       23.7592500614       -9.8924416866  W2        3040            0.0000000000
      9119      3040  TIP3      H1            -10.5443784125       23.7819400614       -9.2410416866  W2        3040            0.0000000000
      9120      3040  TIP3      H2            -10.9430784125       23.1312200614      -10.5485116866  W2        3040            0.0000000000
      9121      3041  TIP3      OH2            -3.9298984125       24.6796700614        1.3624983134  W2        3041            0.0000000000
      9122      3041  TIP3      H1             -4.5824884125       25.3742300614        1.4515883134  W2        3041            0.0000000000
      9123      3041  TIP3      H2             -3.4648684125       24.8897600614        0.5526583134  W2        3041            0.0000000000
      9124      3042  TIP3      OH2            -7.8935184125       25.5111500614       -5.9793516866  W2        3042            0.0000000000
      9125      3042  TIP3      H1             -8.6254184125       25.7395200614       -5.4062916866  W2        3042            0.0000000000
      9126      3042  TIP3      H2             -7.4462984125       24.7974200614       -5.5246016866  W2        3042            0.0000000000
      9127      3043  TIP3      OH2            -7.9961684125       23.6854100614        3.0883483134  W2        3043            0.0000000000
      9128      3043  TIP3      H1             -7.9162584125       24.4488500614        3.6601983134  W2        3043            0.0000000000
      9129      3043  TIP3      H2             -8.5973984125       23.9646500614        2.3978583134  W2        3043            0.0000000000
      9130      3044  TIP3      OH2           -16.2481484125       26.1417700614       -4.0968516866  W2        3044            0.0000000000
      9131      3044  TIP3      H1            -16.5786284125       25.7711100614       -4.9151516866  W2        3044            0.0000000000
      9132      3044  TIP3      H2            -15.6597384125       25.4711700614       -3.7500216866  W2        3044            0.0000000000
      9133      3045  TIP3      OH2           -14.8813984125       29.5698300614       -1.4156316866  W2        3045            0.0000000000
      9134      3045  TIP3      H1            -14.9762684125       28.9911400614       -2.1721716866  W2        3045            0.0000000000
      9135      3045  TIP3      H2            -14.1520384125       29.1984000614       -0.9193516866  W2        3045            0.0000000000
      9136      3046  TIP3      OH2           -15.8815984125       24.9103300614       -0.4633516866  W2        3046            0.0000000000
      9137      3046  TIP3      H1            -15.3163484125       25.0317500614       -1.2262316866  W2        3046            0.0000000000
      9138      3046  TIP3      H2            -15.5627084125       25.5478300614        0.1754983134  W2        3046            0.0000000000
      9139      3047  TIP3      OH2            -9.5723784125       30.4135200614        0.2706983134  W2        3047            0.0000000000
      9140      3047  TIP3      H1             -9.8127184125       31.0758300614        0.9186183134  W2        3047            0.0000000000
      9141      3047  TIP3      H2             -9.7705584125       29.5790400614        0.6956583134  W2        3047            0.0000000000
      9142      3048  TIP3      OH2           -15.0015284125       29.3096000614        4.2538383134  W2        3048            0.0000000000
      9143      3048  TIP3      H1            -15.3127784125       30.0919200614        4.7091583134  W2        3048            0.0000000000
      9144      3048  TIP3      H2            -15.6515084125       29.1565100614        3.5680383134  W2        3048            0.0000000000
      9145      3049  TIP3      OH2            -9.0225684125       24.6734400614       -8.2942316866  W2        3049            0.0000000000
      9146      3049  TIP3      H1             -8.4430184125       24.8234700614       -7.5473416866  W2        3049            0.0000000000
      9147      3049  TIP3      H2             -8.6085684125       25.1441800614       -9.0175916866  W2        3049            0.0000000000
      9148      3050  TIP3      OH2           -18.0815384125       25.5077100614        3.4824083134  W2        3050            0.0000000000
      9149      3050  TIP3      H1            -18.0112184125       26.1583900614        4.1809083134  W2        3050            0.0000000000
      9150      3050  TIP3      H2            -18.9723184125       25.6104600614        3.1474983134  W2        3050            0.0000000000
      9151      3051  TIP3      OH2           -11.2960784125       31.4102900614       -4.8589216866  W2        3051            0.0000000000
      9152      3051  TIP3      H1            -10.8223184125       31.7059200614       -4.0815016866  W2        3051            0.0000000000
      9153      3051  TIP3      H2            -11.8591484125       32.1484500614       -5.0919616866  W2        3051            0.0000000000
      9154      3052  TIP3      OH2           -16.7619384125       31.3811000614        5.0172183134  W2        3052            0.0000000000
      9155      3052  TIP3      H1            -16.7544084125       31.2450700614        4.0697683134  W2        3052            0.0000000000
      9156      3052  TIP3      H2            -17.6778984125       31.2639100614        5.2692183134  W2        3052            0.0000000000
      9157      3053  TIP3      OH2            -5.3237284125       16.4234800614       -8.4812616866  W2        3053            0.0000000000
      9158      3053  TIP3      H1             -6.2236584125       16.5623800614       -8.1862016866  W2        3053            0.0000000000
      9159      3053  TIP3      H2             -5.0718884125       17.2549400614       -8.8830916866  W2        3053            0.0000000000
      9160      3054  TIP3      OH2           -17.2578784125       25.2112000614       -6.5075716866  W2        3054            0.0000000000
      9161      3054  TIP3      H1            -17.5497484125       25.9793700614       -6.9984416866  W2        3054            0.0000000000
      9162      3054  TIP3      H2            -17.9323584125       24.5518200614       -6.6704316866  W2        3054            0.0000000000
      9163      3055  TIP3      OH2            -4.1345884125       30.7897200614      -10.1048716866  W2        3055            0.0000000000
      9164      3055  TIP3      H1             -4.0612384125       31.7287400614       -9.9343416866  W2        3055            0.0000000000
      9165      3055  TIP3      H2             -3.2290784125       30.4845800614      -10.1611416866  W2        3055            0.0000000000
      9166      3056  TIP3      OH2           -21.1648684125       27.5741200614        2.3074083134  W2        3056            0.0000000000
      9167      3056  TIP3      H1            -21.6660284125       27.5460600614        1.4923783134  W2        3056            0.0000000000
      9168      3056  TIP3      H2            -21.1594984125       26.6684400614        2.6171383134  W2        3056            0.0000000000
      9169      3057  TIP3      OH2           -21.4145984125       30.3545000614       -0.8085716866  W2        3057            0.0000000000
      9170      3057  TIP3      H1            -20.4685384125       30.2102000614       -0.8276216866  W2        3057            0.0000000000
      9171      3057  TIP3      H2            -21.5269684125       31.1387800614       -0.2714516866  W2        3057            0.0000000000
      9172      3058  TIP3      OH2            -3.2167484125       31.0204700614        4.8737983134  W2        3058            0.0000000000
      9173      3058  TIP3      H1             -3.2660684125       30.0652800614        4.8365583134  W2        3058            0.0000000000
      9174      3058  TIP3      H2             -4.0435184125       31.2880000614        5.2751783134  W2        3058            0.0000000000
      9175      3059  TIP3      OH2           -12.2383484125       30.5943900614        3.7499383134  W2        3059            0.0000000000
      9176      3059  TIP3      H1            -12.1508884125       31.4208500614        4.2248483134  W2        3059            0.0000000000
      9177      3059  TIP3      H2            -13.1018384125       30.2647700614        3.9988683134  W2        3059            0.0000000000
      9178      3060  TIP3      OH2           -11.8237684125       34.3667600614       -6.4440016866  W2        3060            0.0000000000
      9179      3060  TIP3      H1            -11.8991684125       34.2454800614       -7.3904816866  W2        3060            0.0000000000
      9180      3060  TIP3      H2            -11.7908984125       35.3160300614       -6.3255416866  W2        3060            0.0000000000
      9181      3061  TIP3      OH2           -18.1703884125       33.1554600614       -4.6631016866  W2        3061            0.0000000000
      9182      3061  TIP3      H1            -18.0183484125       32.8075000614       -3.7844516866  W2        3061            0.0000000000
      9183      3061  TIP3      H2            -19.0213484125       32.7991900614       -4.9183816866  W2        3061            0.0000000000
      9184      3062  TIP3      OH2            -8.7221684125       33.5207800614       -9.4417616866  W2        3062            0.0000000000
      9185      3062  TIP3      H1             -8.3473284125       32.7763900614       -9.9125016866  W2        3062            0.0000000000
      9186      3062  TIP3      H2             -8.7177984125       33.2508400614       -8.5234316866  W2        3062            0.0000000000
      9187      3063  TIP3      OH2            -9.0533584125       33.4464900614       -6.6925416866  W2        3063            0.0000000000
      9188      3063  TIP3      H1             -9.9883784125       33.5466800614       -6.5138416866  W2        3063            0.0000000000
      9189      3063  TIP3      H2             -8.7731684125       32.7370900614       -6.1142216866  W2        3063            0.0000000000
      9190      3064  TIP3      OH2            -6.0647684125       22.5137200614        5.3540183134  W2        3064            0.0000000000
      9191      3064  TIP3      H1             -6.4720884125       22.9942800614        4.6333483134  W2        3064            0.0000000000
      9192      3064  TIP3      H2             -6.0241984125       21.6083200614        5.0460983134  W2        3064            0.0000000000
      9193      3065  TIP3      OH2           -18.9158184125       28.8976600614        3.3506883134  W2        3065            0.0000000000
      9194      3065  TIP3      H1            -18.6996884125       28.5362200614        4.2102683134  W2        3065            0.0000000000
      9195      3065  TIP3      H2            -19.7713484125       28.5230400614        3.1410383134  W2        3065            0.0000000000
      9196      3066  TIP3      OH2           -16.2970184125       17.3677100614       -0.6538916866  W2        3066            0.0000000000
      9197      3066  TIP3      H1            -17.1586484125       17.2805300614       -1.0616016866  W2        3066            0.0000000000
      9198      3066  TIP3      H2            -16.3194484125       18.2237200614       -0.2261316866  W2        3066            0.0000000000
      9199      3067  TIP3      OH2           -11.6342384125       17.0897500614        2.7208083134  W2        3067            0.0000000000
      9200      3067  TIP3      H1            -11.2139284125       16.6744600614        3.4738683134  W2        3067            0.0000000000
      9201      3067  TIP3      H2            -12.5672784125       16.9110800614        2.8380083134  W2        3067            0.0000000000
      9202      3068  TIP3      OH2            -8.3077484125       20.8452700614        3.5742583134  W2        3068            0.0000000000
      9203      3068  TIP3      H1             -8.8217984125       20.7194900614        4.3718583134  W2        3068            0.0000000000
      9204      3068  TIP3      H2             -8.4632784125       21.7575800614        3.3298783134  W2        3068            0.0000000000
      9205      3069  TIP3      OH2            -7.5452584125       25.7062700614      -10.6644416866  W2        3069            0.0000000000
      9206      3069  TIP3      H1             -7.5031784125       25.4836600614      -11.5944416866  W2        3069            0.0000000000
      9207      3069  TIP3      H2             -6.6960484125       26.1049800614      -10.4744516866  W2        3069            0.0000000000
      9208      3070  TIP3      OH2           -11.9725084125       19.5820900614       -9.9941116866  W2        3070            0.0000000000
      9209      3070  TIP3      H1            -12.2260284125       19.6012500614       -9.0713016866  W2        3070            0.0000000000
      9210      3070  TIP3      H2            -12.2292984125       18.7106300614      -10.2954916866  W2        3070            0.0000000000
      9211      3071  TIP3      OH2           -16.2060084125       22.3331600614        0.4411283134  W2        3071            0.0000000000
      9212      3071  TIP3      H1            -16.8477984125       22.2928900614        1.1501383134  W2        3071            0.0000000000
      9213      3071  TIP3      H2            -16.1688084125       23.2596300614        0.2034283134  W2        3071            0.0000000000
      9214      3072  TIP3      OH2           -16.2090984125       22.5541700614       -4.6468716866  W2        3072            0.0000000000
      9215      3072  TIP3      H1            -17.1018084125       22.2137800614       -4.7054916866  W2        3072            0.0000000000
      9216      3072  TIP3      H2            -15.7584384125       22.1772600614       -5.4025516866  W2        3072            0.0000000000
      9217      3073  TIP3      OH2           -10.6735484125       22.9702000614       -5.8297916866  W2        3073            0.0000000000
      9218      3073  TIP3      H1            -11.0825184125       23.7850600614       -6.1213116866  W2        3073            0.0000000000
      9219      3073  TIP3      H2             -9.9529284125       22.8302100614       -6.4440816866  W2        3073            0.0000000000
      9220      3074  TIP3      OH2           -11.5713884125       23.1458400614        5.6582783134  W2        3074            0.0000000000
      9221      3074  TIP3      H1            -12.1340084125       22.4410000614        5.9790583134  W2        3074            0.0000000000
      9222      3074  TIP3      H2            -10.7450484125       23.0250300614        6.1260383134  W2        3074            0.0000000000
      9223      3075  TIP3      OH2            -9.6687784125       22.4162400614       -3.0158216866  W2        3075            0.0000000000
      9224      3075  TIP3      H1             -9.8643284125       23.0219200614       -3.7307616866  W2        3075            0.0000000000
      9225      3075  TIP3      H2             -9.4875184125       21.5827600614       -3.4501916866  W2        3075            0.0000000000
      9226      3076  TIP3      OH2           -18.4559584125       22.6535100614        2.3083283134  W2        3076            0.0000000000
      9227      3076  TIP3      H1            -18.4940184125       23.0536700614        3.1770383134  W2        3076            0.0000000000
      9228      3076  TIP3      H2            -18.9468484125       21.8367500614        2.3986183134  W2        3076            0.0000000000
      9229      3077  TIP3      OH2           -15.0902184125       20.0277400614      -10.8930716866  W2        3077            0.0000000000
      9230      3077  TIP3      H1            -15.5211484125       19.5827500614      -10.1633316866  W2        3077            0.0000000000
      9231      3077  TIP3      H2            -15.8083484125       20.3993700614      -11.4053216866  W2        3077            0.0000000000
      9232      3078  TIP3      OH2           -21.8478784125       19.7696900614       -3.8412016866  W2        3078            0.0000000000
      9233      3078  TIP3      H1            -21.2171084125       19.7409000614       -3.1218116866  W2        3078            0.0000000000
      9234      3078  TIP3      H2            -21.3984484125       19.3445600614       -4.5716116866  W2        3078            0.0000000000
      9235      3079  TIP3      OH2           -20.5736684125       20.5158900614       -8.4171616866  W2        3079            0.0000000000
      9236      3079  TIP3      H1            -20.0994984125       21.1068800614       -9.0020716866  W2        3079            0.0000000000
      9237      3079  TIP3      H2            -21.2910284125       21.0461800614       -8.0701516866  W2        3079            0.0000000000
      9238      3080  TIP3      OH2           -10.4048584125       24.0543700614        1.6554183134  W2        3080            0.0000000000
      9239      3080  TIP3      H1            -10.0813784125       23.4233400614        1.0124683134  W2        3080            0.0000000000
      9240      3080  TIP3      H2            -10.8449284125       23.5195900614        2.3161583134  W2        3080            0.0000000000
      9241      3081  TIP3      OH2           -13.6275684125       19.9819200614       -3.5604616866  W2        3081            0.0000000000
      9242      3081  TIP3      H1            -14.5384584125       20.0386000614       -3.2718616866  W2        3081            0.0000000000
      9243      3081  TIP3      H2            -13.1222784125       19.9214700614       -2.7497416866  W2        3081            0.0000000000
      9244      3082  TIP3      OH2           -18.7992284125       21.6105500614       -4.7337016866  W2        3082            0.0000000000
      9245      3082  TIP3      H1            -19.6884284125       21.7101000614       -5.0737416866  W2        3082            0.0000000000
      9246      3082  TIP3      H2            -18.5027384125       20.7688500614       -5.0799116866  W2        3082            0.0000000000
      9247      3083  TIP3      OH2           -15.1460484125       21.6108100614       -7.0772416866  W2        3083            0.0000000000
      9248      3083  TIP3      H1            -14.2144984125       21.7398100614       -6.8989316866  W2        3083            0.0000000000
      9249      3083  TIP3      H2            -15.3610184125       22.2802400614       -7.7267716866  W2        3083            0.0000000000
      9250      3084  TIP3      OH2            -9.2223784125       19.2165500614       -0.2962816866  W2        3084            0.0000000000
      9251      3084  TIP3      H1             -9.8992184125       19.3478600614        0.3676883134  W2        3084            0.0000000000
      9252      3084  TIP3      H2             -9.7078884125       19.0615000614       -1.1065116866  W2        3084            0.0000000000
      9253      3085  TIP3      OH2           -16.4720284125       22.8050300614       -9.5106316866  W2        3085            0.0000000000
      9254      3085  TIP3      H1            -17.0145184125       22.4254100614      -10.2018716866  W2        3085            0.0000000000
      9255      3085  TIP3      H2            -15.6385384125       22.9995000614       -9.9392216866  W2        3085            0.0000000000
      9256      3086  TIP3      OH2            -5.9348684125       34.8880900614        5.9804783134  W2        3086            0.0000000000
      9257      3086  TIP3      H1             -5.7349984125       35.3122800614        5.1460083134  W2        3086            0.0000000000
      9258      3086  TIP3      H2             -5.2794984125       35.2319100614        6.5875183134  W2        3086            0.0000000000
      9259      3087  TIP3      OH2           -18.3368884125       27.3622200614        5.5885283134  W2        3087            0.0000000000
      9260      3087  TIP3      H1            -17.6046484125       27.6168100614        6.1499783134  W2        3087            0.0000000000
      9261      3087  TIP3      H2            -19.1170184125       27.5667600614        6.1040683134  W2        3087            0.0000000000
      9262      3088  TIP3      OH2           -12.3075984125       22.7692200614       -1.6735016866  W2        3088            0.0000000000
      9263      3088  TIP3      H1            -11.7432584125       22.2228800614       -2.2205416866  W2        3088            0.0000000000
      9264      3088  TIP3      H2            -12.4552584125       22.2474100614       -0.8847416866  W2        3088            0.0000000000
      9265      3089  TIP3      OH2           -17.3056284125       18.9058300614       -5.2550216866  W2        3089            0.0000000000
      9266      3089  TIP3      H1            -17.6226784125       18.0033600614       -5.2904816866  W2        3089            0.0000000000
      9267      3089  TIP3      H2            -16.5242184125       18.9075700614       -5.8078616866  W2        3089            0.0000000000
      9268      3090  TIP3      OH2           -13.6810084125       21.1578300614        0.7405383134  W2        3090            0.0000000000
      9269      3090  TIP3      H1            -14.5164784125       21.6117800614        0.8507783134  W2        3090            0.0000000000
      9270      3090  TIP3      H2            -13.1569484125       21.4336800614        1.4925283134  W2        3090            0.0000000000
      9271      3091  TIP3      OH2           -13.1367484125       27.3706000614       -7.5748216866  W2        3091            0.0000000000
      9272      3091  TIP3      H1            -13.8816484125       26.8631300614       -7.8970316866  W2        3091            0.0000000000
      9273      3091  TIP3      H2            -13.2710284125       27.4194000614       -6.6283416866  W2        3091            0.0000000000
      9274      3092  TIP3      OH2            -5.9868584125       26.5034200614        1.2119383134  W2        3092            0.0000000000
      9275      3092  TIP3      H1             -5.3449784125       26.9600500614        0.6681583134  W2        3092            0.0000000000
      9276      3092  TIP3      H2             -6.8171684125       26.6166600614        0.7493483134  W2        3092            0.0000000000
      9277      3093  TIP3      OH2            -9.2390684125       20.1845900614       -9.3755616866  W2        3093            0.0000000000
      9278      3093  TIP3      H1            -10.1776484125       20.2961500614       -9.5266816866  W2        3093            0.0000000000
      9279      3093  TIP3      H2             -8.9418584125       21.0412800614       -9.0689916866  W2        3093            0.0000000000
      9280      3094  TIP3      OH2           -11.6175384125       27.5549300614        3.6620883134  W2        3094            0.0000000000
      9281      3094  TIP3      H1            -11.9629284125       27.1731700614        4.4690483134  W2        3094            0.0000000000
      9282      3094  TIP3      H2            -11.8175284125       28.4882900614        3.7333783134  W2        3094            0.0000000000
      9283      3095  TIP3      OH2            -8.5207184125       22.0518600614       -7.7148216866  W2        3095            0.0000000000
      9284      3095  TIP3      H1             -7.6288184125       21.9143600614       -7.3957016866  W2        3095            0.0000000000
      9285      3095  TIP3      H2             -8.4643584125       22.8424700614       -8.2514716866  W2        3095            0.0000000000
      9286      3096  TIP3      OH2           -18.0119184125       26.6656000614       -1.8050316866  W2        3096            0.0000000000
      9287      3096  TIP3      H1            -17.2671984125       26.6631700614       -2.4063816866  W2        3096            0.0000000000
      9288      3096  TIP3      H2            -17.9342584125       25.8419800614       -1.3235216866  W2        3096            0.0000000000
      9289      3097  TIP3      OH2           -11.0113384125       28.8290300614       -8.5493616866  W2        3097            0.0000000000
      9290      3097  TIP3      H1            -11.3064984125       29.6558200614       -8.1678816866  W2        3097            0.0000000000
      9291      3097  TIP3      H2            -11.7143384125       28.2097200614       -8.3532216866  W2        3097            0.0000000000
      9292      3098  TIP3      OH2           -21.0039484125       25.1262900614        3.5098183134  W2        3098            0.0000000000
      9293      3098  TIP3      H1            -20.7810884125       24.7082500614        4.3415683134  W2        3098            0.0000000000
      9294      3098  TIP3      H2            -21.6059384125       24.5137900614        3.0870983134  W2        3098            0.0000000000
      9295      3099  TIP3      OH2           -13.9874584125       24.6432800614        5.7227883134  W2        3099            0.0000000000
      9296      3099  TIP3      H1            -14.2833784125       24.4775800614        4.8276983134  W2        3099            0.0000000000
      9297      3099  TIP3      H2            -13.0559384125       24.4233100614        5.7121783134  W2        3099            0.0000000000
      9298      3100  TIP3      OH2            -9.3671784125       30.0164800614        3.6125883134  W2        3100            0.0000000000
      9299      3100  TIP3      H1            -10.2677484125       30.1997400614        3.3449783134  W2        3100            0.0000000000
      9300      3100  TIP3      H2             -9.3330684125       30.2754100614        4.5334683134  W2        3100            0.0000000000
      9301      3101  TIP3      OH2            -3.6358484125       22.2612700614       -8.0201516866  W2        3101            0.0000000000
      9302      3101  TIP3      H1             -4.1902184125       21.8650700614       -8.6924016866  W2        3101            0.0000000000
      9303      3101  TIP3      H2             -3.5354884125       23.1717900614       -8.2978216866  W2        3101            0.0000000000
      9304      3102  TIP3      OH2            -3.6726484125       28.0614400614        4.8169983134  W2        3102            0.0000000000
      9305      3102  TIP3      H1             -4.5237984125       28.2998200614        4.4496383134  W2        3102            0.0000000000
      9306      3102  TIP3      H2             -3.0823084125       28.0447600614        4.0637083134  W2        3102            0.0000000000
      9307      3103  TIP3      OH2            -5.3406784125       31.0473100614       -7.5549416866  W2        3103            0.0000000000
      9308      3103  TIP3      H1             -5.7135684125       30.2216900614       -7.2458816866  W2        3103            0.0000000000
      9309      3103  TIP3      H2             -5.0633284125       30.8642500614       -8.4526016866  W2        3103            0.0000000000
      9310      3104  TIP3      OH2            -8.1802884125       25.8552600614       -0.5337516866  W2        3104            0.0000000000
      9311      3104  TIP3      H1             -9.1085984125       25.6234500614       -0.5608216866  W2        3104            0.0000000000
      9312      3104  TIP3      H2             -7.7291784125       25.0782400614       -0.8638716866  W2        3104            0.0000000000
      9313      3105  TIP3      OH2           -15.6369784125       30.1834200614       -4.4008816866  W2        3105            0.0000000000
      9314      3105  TIP3      H1            -15.1097584125       30.9568600614       -4.6010016866  W2        3105            0.0000000000
      9315      3105  TIP3      H2            -16.5171284125       30.4083400614       -4.7024816866  W2        3105            0.0000000000
      9316      3106  TIP3      OH2           -19.8822084125       25.0458300614       -9.8136416866  W2        3106            0.0000000000
      9317      3106  TIP3      H1            -19.2662184125       25.6725500614       -9.4341616866  W2        3106            0.0000000000
      9318      3106  TIP3      H2            -20.7439484125       25.3618100614       -9.5419916866  W2        3106            0.0000000000
      9319      3107  TIP3      OH2           -14.2097484125       27.8464100614       -4.8244516866  W2        3107            0.0000000000
      9320      3107  TIP3      H1            -14.4507484125       28.7718500614       -4.7829216866  W2        3107            0.0000000000
      9321      3107  TIP3      H2            -14.9503884125       27.3875400614       -4.4280616866  W2        3107            0.0000000000
      9322      3108  TIP3      OH2           -13.6950884125       31.9957700614        1.4906583134  W2        3108            0.0000000000
      9323      3108  TIP3      H1            -13.3326184125       32.8503300614        1.2570983134  W2        3108            0.0000000000
      9324      3108  TIP3      H2            -13.1635684125       31.7039300614        2.2312883134  W2        3108            0.0000000000
      9325      3109  TIP3      OH2           -15.5266684125       32.8681700614       -5.2792316866  W2        3109            0.0000000000
      9326      3109  TIP3      H1            -16.4766184125       32.9739100614       -5.2279016866  W2        3109            0.0000000000
      9327      3109  TIP3      H2            -15.1748584125       33.6889100614       -4.9344816866  W2        3109            0.0000000000
      9328      3110  TIP3      OH2           -10.1510084125       28.0948400614        1.1912183134  W2        3110            0.0000000000
      9329      3110  TIP3      H1            -10.5768784125       27.8670100614        2.0176183134  W2        3110            0.0000000000
      9330      3110  TIP3      H2             -9.5704284125       27.3560200614        1.0087483134  W2        3110            0.0000000000
      9331      3111  TIP3      OH2            -7.9481184125       29.0238900614       -9.7348816866  W2        3111            0.0000000000
      9332      3111  TIP3      H1             -7.5948084125       28.6438700614       -8.9305316866  W2        3111            0.0000000000
      9333      3111  TIP3      H2             -8.8967684125       28.9303700614       -9.6479516866  W2        3111            0.0000000000
      9334      3112  TIP3      OH2            -7.4925884125       32.6467900614        3.6606983134  W2        3112            0.0000000000
      9335      3112  TIP3      H1             -8.0942684125       32.0910800614        3.1653283134  W2        3112            0.0000000000
      9336      3112  TIP3      H2             -7.2112184125       33.3137700614        3.0344383134  W2        3112            0.0000000000
      9337      3113  TIP3      OH2            -3.4446784125       33.5031400614       -9.5338616866  W2        3113            0.0000000000
      9338      3113  TIP3      H1             -2.7008884125       34.0891900614       -9.6737016866  W2        3113            0.0000000000
      9339      3113  TIP3      H2             -4.1388684125       34.0717200614       -9.2006216866  W2        3113            0.0000000000
      9340      3114  TIP3      OH2           -19.3699984125       19.8795600614        3.0679583134  W2        3114            0.0000000000
      9341      3114  TIP3      H1            -20.2627684125       20.2181000614        3.0003583134  W2        3114            0.0000000000
      9342      3114  TIP3      H2            -19.4687184125       19.0241700614        3.4860383134  W2        3114            0.0000000000
      9343      3115  TIP3      OH2            -7.0821884125       27.6960900614       -7.5080916866  W2        3115            0.0000000000
      9344      3115  TIP3      H1             -7.3594284125       26.9680200614       -6.9519816866  W2        3115            0.0000000000
      9345      3115  TIP3      H2             -6.1548884125       27.8152900614       -7.3028316866  W2        3115            0.0000000000
      9346      3116  TIP3      OH2           -19.7187984125       31.6840000614        1.5028983134  W2        3116            0.0000000000
      9347      3116  TIP3      H1            -19.5017684125       30.7522400614        1.4718683134  W2        3116            0.0000000000
      9348      3116  TIP3      H2            -19.4724484125       31.9585000614        2.3861783134  W2        3116            0.0000000000
      9349      3117  TIP3      OH2           -13.8573384125       30.1355000614      -11.2878816866  W2        3117            0.0000000000
      9350      3117  TIP3      H1            -13.6183584125       29.3873100614      -11.8349916866  W2        3117            0.0000000000
      9351      3117  TIP3      H2            -14.1262084125       29.7476700614      -10.4551016866  W2        3117            0.0000000000
      9352      3118  TIP3      OH2           -14.9202784125       29.7058800614       -8.8316216866  W2        3118            0.0000000000
      9353      3118  TIP3      H1            -14.7734784125       29.1858600614       -8.0415316866  W2        3118            0.0000000000
      9354      3118  TIP3      H2            -14.9231084125       30.6126400614       -8.5250316866  W2        3118            0.0000000000
      9355      3119  TIP3      OH2           -18.4671684125       26.9582100614       -8.3210816866  W2        3119            0.0000000000
      9356      3119  TIP3      H1            -19.1532384125       27.3104600614       -7.7541116866  W2        3119            0.0000000000
      9357      3119  TIP3      H2            -17.9443784125       27.7211700614       -8.5676516866  W2        3119            0.0000000000
      9358      3120  TIP3      OH2           -10.6356584125       19.6205900614        1.9578183134  W2        3120            0.0000000000
      9359      3120  TIP3      H1             -9.9368684125       19.6944600614        2.6077883134  W2        3120            0.0000000000
      9360      3120  TIP3      H2            -11.0165184125       18.7560900614        2.1121083134  W2        3120            0.0000000000
      9361      3121  TIP3      OH2            -9.8511684125       19.2727600614       -6.9449516866  W2        3121            0.0000000000
      9362      3121  TIP3      H1             -9.6313384125       19.7443000614       -7.7484116866  W2        3121            0.0000000000
      9363      3121  TIP3      H2             -9.2927684125       19.6670200614       -6.2748916866  W2        3121            0.0000000000
      9364      3122  TIP3      OH2           -12.1825584125       31.4032400614       -8.0822016866  W2        3122            0.0000000000
      9365      3122  TIP3      H1            -12.9989484125       31.9002100614       -8.0297716866  W2        3122            0.0000000000
      9366      3122  TIP3      H2            -11.6529284125       31.8785900614       -8.7223216866  W2        3122            0.0000000000
      9367      3123  TIP3      OH2           -12.6511784125       21.0006400614       -6.1101116866  W2        3123            0.0000000000
      9368      3123  TIP3      H1            -11.8389184125       21.5049600614       -6.0639416866  W2        3123            0.0000000000
      9369      3123  TIP3      H2            -12.8958784125       20.8556100614       -5.1961516866  W2        3123            0.0000000000
      9370      3124  TIP3      OH2           -12.1155384125       21.9869100614        3.0745483134  W2        3124            0.0000000000
      9371      3124  TIP3      H1            -11.9965084125       22.5604500614        3.8315883134  W2        3124            0.0000000000
      9372      3124  TIP3      H2            -11.4600784125       21.2988500614        3.1893283134  W2        3124            0.0000000000
      9373      3125  TIP3      OH2           -11.7675084125       18.0819400614       -5.1720016866  W2        3125            0.0000000000
      9374      3125  TIP3      H1            -12.1141584125       18.6990000614       -4.5275716866  W2        3125            0.0000000000
      9375      3125  TIP3      H2            -11.1088184125       18.5825100614       -5.6534516866  W2        3125            0.0000000000
      9376      3126  TIP3      OH2           -14.8442484125       32.4469600614       -8.1005116866  W2        3126            0.0000000000
      9377      3126  TIP3      H1            -14.6833784125       33.2467100614       -8.6012516866  W2        3126            0.0000000000
      9378      3126  TIP3      H2            -15.0414684125       32.7535600614       -7.2154516866  W2        3126            0.0000000000
      9379      3127  TIP3      OH2           -16.1098084125       19.1448800614       -8.4847516866  W2        3127            0.0000000000
      9380      3127  TIP3      H1            -16.1933284125       20.0331900614       -8.1381116866  W2        3127            0.0000000000
      9381      3127  TIP3      H2            -15.2197784125       18.8795500614       -8.2530716866  W2        3127            0.0000000000
      9382      3128  TIP3      OH2            -5.9109584125       19.8939400614        3.9095183134  W2        3128            0.0000000000
      9383      3128  TIP3      H1             -6.8273784125       20.1561100614        3.8218883134  W2        3128            0.0000000000
      9384      3128  TIP3      H2             -5.5754584125       19.8908400614        3.0130483134  W2        3128            0.0000000000
      9385      3129  TIP3      OH2            -7.3088584125       23.6440400614       -1.9947516866  W2        3129            0.0000000000
      9386      3129  TIP3      H1             -8.1064184125       23.2290600614       -2.3232516866  W2        3129            0.0000000000
      9387      3129  TIP3      H2             -6.8637484125       22.9534100614       -1.5037016866  W2        3129            0.0000000000
      9388      3130  TIP3      OH2           -17.8512784125       29.5721000614       -9.4243016866  W2        3130            0.0000000000
      9389      3130  TIP3      H1            -17.2591284125       30.2715800614       -9.1480616866  W2        3130            0.0000000000
      9390      3130  TIP3      H2            -17.3919784125       29.1390500614      -10.1438416866  W2        3130            0.0000000000
      9391      3131  TIP3      OH2           -19.5353584125       22.2364000614      -10.3083616866  W2        3131            0.0000000000
      9392      3131  TIP3      H1            -19.5800984125       23.1757100614      -10.1296616866  W2        3131            0.0000000000
      9393      3131  TIP3      H2            -20.4230384125       22.0008900614      -10.5781516866  W2        3131            0.0000000000
      9394      3132  TIP3      OH2            -6.2223984125       32.9002900614       -0.3724016866  W2        3132            0.0000000000
      9395      3132  TIP3      H1             -6.3779684125       33.5787300614       -1.0294716866  W2        3132            0.0000000000
      9396      3132  TIP3      H2             -5.2897584125       32.9722200614       -0.1693416866  W2        3132            0.0000000000
      9397      3133  TIP3      OH2           -18.7271584125       17.0180600614       -1.6352616866  W2        3133            0.0000000000
      9398      3133  TIP3      H1            -18.9561784125       17.0773100614       -2.5627616866  W2        3133            0.0000000000
      9399      3133  TIP3      H2            -19.1698184125       16.2266100614       -1.3288516866  W2        3133            0.0000000000
      9400      3134  TIP3      OH2           -19.7968284125       30.9587700614       -5.4746816866  W2        3134            0.0000000000
      9401      3134  TIP3      H1            -20.6289684125       31.4310400614       -5.4475416866  W2        3134            0.0000000000
      9402      3134  TIP3      H2            -19.2509984125       31.4685300614       -6.0733716866  W2        3134            0.0000000000
      9403      3135  TIP3      OH2           -20.5084584125       33.5711400614        5.8551183134  W2        3135            0.0000000000
      9404      3135  TIP3      H1            -19.9682384125       33.3545400614        6.6150383134  W2        3135            0.0000000000
      9405      3135  TIP3      H2            -20.9896584125       32.7657400614        5.6653683134  W2        3135            0.0000000000
      9406      3136  TIP3      OH2           -15.9111184125       32.4905800614        7.4755383134  W2        3136            0.0000000000
      9407      3136  TIP3      H1            -15.1433984125       32.0316600614        7.8164583134  W2        3136            0.0000000000
      9408      3136  TIP3      H2            -15.9324984125       32.2645600614        6.5456583134  W2        3136            0.0000000000
      9409      3137  TIP3      OH2           -11.8191584125       31.9986400614      -11.1492816866  W2        3137            0.0000000000
      9410      3137  TIP3      H1            -12.4630584125       31.3675000614      -10.8279116866  W2        3137            0.0000000000
      9411      3137  TIP3      H2            -11.0573284125       31.4674400614      -11.3809316866  W2        3137            0.0000000000
      9412      3138  TIP3      OH2            -9.3342484125       30.8706900614        6.2046883134  W2        3138            0.0000000000
      9413      3138  TIP3      H1             -9.6852984125       30.0139900614        6.4477283134  W2        3138            0.0000000000
      9414      3138  TIP3      H2             -8.6079284125       31.0133600614        6.8115883134  W2        3138            0.0000000000
      9415      3139  TIP3      OH2            -7.2148684125       31.8156300614      -10.9154816866  W2        3139            0.0000000000
      9416      3139  TIP3      H1             -6.9318284125       31.0211500614      -10.4627916866  W2        3139            0.0000000000
      9417      3139  TIP3      H2             -6.4750784125       32.0487300614      -11.4763716866  W2        3139            0.0000000000
      9418      3140  TIP3      OH2           -20.6015084125       27.3815500614        6.8095483134  W2        3140            0.0000000000
      9419      3140  TIP3      H1            -20.4574584125       26.4796200614        6.5232183134  W2        3140            0.0000000000
      9420      3140  TIP3      H2            -21.3737684125       27.6677600614        6.3217783134  W2        3140            0.0000000000
      9421      3141  TIP3      OH2           -16.2601384125       27.7251200614      -11.0579916866  W2        3141            0.0000000000
      9422      3141  TIP3      H1            -16.1957284125       26.9310800614      -10.5273516866  W2        3141            0.0000000000
      9423      3141  TIP3      H2            -15.6072184125       27.6064000614      -11.7477916866  W2        3141            0.0000000000
      9424      3142  TIP3      OH2           -13.9458984125       27.3513600614        6.2421883134  W2        3142            0.0000000000
      9425      3142  TIP3      H1            -14.2745184125       27.6221700614        5.3849283134  W2        3142            0.0000000000
      9426      3142  TIP3      H2            -13.7940784125       26.4103400614        6.1546883134  W2        3142            0.0000000000
      9427      3143  TIP3      OH2           -10.9077984125       28.7722900614      -11.3221916866  W2        3143            0.0000000000
      9428      3143  TIP3      H1            -11.1763884125       28.9525000614      -10.4213016866  W2        3143            0.0000000000
      9429      3143  TIP3      H2            -11.1142384125       27.8469100614      -11.4536116866  W2        3143            0.0000000000
      9430      3144  TIP3      OH2            -8.2113784125       27.2670900614        3.6254183134  W2        3144            0.0000000000
      9431      3144  TIP3      H1             -7.4658984125       27.8554600614        3.5058183134  W2        3144            0.0000000000
      9432      3144  TIP3      H2             -8.9686984125       27.8490600614        3.6887283134  W2        3144            0.0000000000
      9433      3145  TIP3      OH2           -19.7688584125       24.5818800614        6.2294783134  W2        3145            0.0000000000
      9434      3145  TIP3      H1            -19.3607384125       23.7245400614        6.1085383134  W2        3145            0.0000000000
      9435      3145  TIP3      H2            -20.0290984125       24.5960100614        7.1505083134  W2        3145            0.0000000000
      9436      3146  TIP3      OH2           -15.1107584125       25.6977400614       -8.7521916866  W2        3146            0.0000000000
      9437      3146  TIP3      H1            -15.5705584125       25.2135700614       -8.0663416866  W2        3146            0.0000000000
      9438      3146  TIP3      H2            -14.8558884125       25.0292800614       -9.3881416866  W2        3146            0.0000000000
      9439      3147  TIP3      OH2           -15.8218284125       23.5904500614        3.6037683134  W2        3147            0.0000000000
      9440      3147  TIP3      H1            -16.4402184125       24.2651100614        3.8842383134  W2        3147            0.0000000000
      9441      3147  TIP3      H2            -15.4777084125       23.9118400614        2.7703883134  W2        3147            0.0000000000
      9442      3148  TIP3      OH2           -14.0397184125       23.9409200614      -10.4898716866  W2        3148            0.0000000000
      9443      3148  TIP3      H1            -14.2202184125       23.7860400614      -11.4170416866  W2        3148            0.0000000000
      9444      3148  TIP3      H2            -13.0896684125       24.0487900614      -10.4450816866  W2        3148            0.0000000000
      9445      3149  TIP3      OH2           -10.8020084125       26.0619800614        6.8812483134  W2        3149            0.0000000000
      9446      3149  TIP3      H1             -9.8488884125       26.1458900614        6.8538483134  W2        3149            0.0000000000
      9447      3149  TIP3      H2            -10.9625484125       25.3501600614        7.5007383134  W2        3149            0.0000000000
      9448      3150  TIP3      OH2            -4.6498884125       26.2953400614      -11.0440616866  W2        3150            0.0000000000
      9449      3150  TIP3      H1             -4.9234084125       25.8708900614      -11.8572316866  W2        3150            0.0000000000
      9450      3150  TIP3      H2             -4.6104784125       27.2267900614      -11.2610216866  W2        3150            0.0000000000
      9451      3151  TIP3      OH2           -15.4824584125       20.9455300614        4.6860783134  W2        3151            0.0000000000
      9452      3151  TIP3      H1            -15.3323684125       20.2166600614        4.0840483134  W2        3151            0.0000000000
      9453      3151  TIP3      H2            -15.4802184125       21.7227000614        4.1272983134  W2        3151            0.0000000000
      9454      3152  TIP3      OH2           -15.0698884125       19.3151100614        2.1788183134  W2        3152            0.0000000000
      9455      3152  TIP3      H1            -14.5341384125       19.7667800614        1.5267483134  W2        3152            0.0000000000
      9456      3152  TIP3      H2            -15.9219284125       19.2070900614        1.7562283134  W2        3152            0.0000000000
      9457      3153  TIP3      OH2           -13.4880484125       24.7547300614        2.4183383134  W2        3153            0.0000000000
      9458      3153  TIP3      H1            -12.7375684125       24.5984800614        1.8451183134  W2        3153            0.0000000000
      9459      3153  TIP3      H2            -13.8272184125       25.6063900614        2.1428883134  W2        3153            0.0000000000
      9460      3154  TIP3      OH2            -9.0724284125       22.5699100614        7.4468683134  W2        3154            0.0000000000
      9461      3154  TIP3      H1             -8.8802984125       21.6388500614        7.3353183134  W2        3154            0.0000000000
      9462      3154  TIP3      H2             -8.2147984125       22.9948600614        7.4364083134  W2        3154            0.0000000000
      9463      3155  TIP3      OH2            -7.7557084125       25.3584300614        5.5241383134  W2        3155            0.0000000000
      9464      3155  TIP3      H1             -8.0372084125       26.0678900614        4.9465183134  W2        3155            0.0000000000
      9465      3155  TIP3      H2             -6.8132784125       25.2857300614        5.3732583134  W2        3155            0.0000000000
      9466      3156  TIP3      OH2           -17.0038284125       22.1438800614        6.5976383134  W2        3156            0.0000000000
      9467      3156  TIP3      H1            -17.7709284125       21.6113600614        6.3873983134  W2        3156            0.0000000000
      9468      3156  TIP3      H2            -16.3249284125       21.8339200614        5.9982683134  W2        3156            0.0000000000
      9469      3157  TIP3      OH2           -14.2643384125       16.7716800614        2.6101783134  W2        3157            0.0000000000
      9470      3157  TIP3      H1            -14.3623784125       17.7180000614        2.5047983134  W2        3157            0.0000000000
      9471      3157  TIP3      H2            -15.0067184125       16.3990600614        2.1345283134  W2        3157            0.0000000000
      9472      3158  TIP3      OH2           -13.0002884125       21.0932200614        6.1740183134  W2        3158            0.0000000000
      9473      3158  TIP3      H1            -13.2357484125       20.8738900614        7.0755083134  W2        3158            0.0000000000
      9474      3158  TIP3      H2            -13.7835984125       20.8863400614        5.6642683134  W2        3158            0.0000000000
      9475      3159  TIP3      OH2           -10.2846284125       20.2205700614        5.2493683134  W2        3159            0.0000000000
      9476      3159  TIP3      H1            -11.2320884125       20.2525400614        5.3816983134  W2        3159            0.0000000000
      9477      3159  TIP3      H2             -9.9719584125       19.5952800614        5.9031883134  W2        3159            0.0000000000
      9478      3160  TIP3      OH2            -8.6504784125       18.8546800614        7.2545583134  W2        3160            0.0000000000
      9479      3160  TIP3      H1             -8.7472984125       17.9024100614        7.2487483134  W2        3160            0.0000000000
      9480      3160  TIP3      H2             -8.9721684125       19.1233600614        8.1151083134  W2        3160            0.0000000000
      9481      3161  TIP3      OH2           -18.8235484125       20.0642600614        6.3021083134  W2        3161            0.0000000000
      9482      3161  TIP3      H1            -18.6118084125       19.3578700614        5.6918583134  W2        3161            0.0000000000
      9483      3161  TIP3      H2            -18.9347984125       19.6268600614        7.1462283134  W2        3161            0.0000000000
      9484      3162  TIP3      OH2           -14.0425284125       16.0654200614        5.2814583134  W2        3162            0.0000000000
      9485      3162  TIP3      H1            -13.3306884125       15.4256400614        5.2673683134  W2        3162            0.0000000000
      9486      3162  TIP3      H2            -14.1434884125       16.3322500614        4.3677683134  W2        3162            0.0000000000
      9487      3163  TIP3      OH2           -13.6887784125       17.7482600614        7.3350883134  W2        3163            0.0000000000
      9488      3163  TIP3      H1            -13.8205584125       17.2726400614        6.5149383134  W2        3163            0.0000000000
      9489      3163  TIP3      H2            -14.2880384125       18.4926200614        7.2797983134  W2        3163            0.0000000000
      9490      3164  TIP3      OH2           -14.1425484125       34.6312900614       -9.4885116866  W2        3164            0.0000000000
      9491      3164  TIP3      H1            -13.2094784125       34.7891600614       -9.3446716866  W2        3164            0.0000000000
      9492      3164  TIP3      H2            -14.4066684125       35.3065900614      -10.1133616866  W2        3164            0.0000000000
      9493      3165  TIP3      OH2           -20.5740584125       29.2676700614      -10.0057016866  W2        3165            0.0000000000
      9494      3165  TIP3      H1            -19.6601384125       29.3465600614       -9.7323116866  W2        3165            0.0000000000
      9495      3165  TIP3      H2            -20.5667484125       28.5806300614      -10.6721416866  W2        3165            0.0000000000
      9496      3166  TIP3      OH2           -21.9249984125       34.6605200614       -4.9283116866  W2        3166            0.0000000000
      9497      3166  TIP3      H1            -22.5722884125       34.1986900614       -5.4611916866  W2        3166            0.0000000000
      9498      3166  TIP3      H2            -21.5705384125       33.9888500614       -4.3456916866  W2        3166            0.0000000000
      9499      3167  TIP3      OH2           -21.0550784125       32.7412200614       -3.1236916866  W2        3167            0.0000000000
      9500      3167  TIP3      H1            -21.3893984125       31.8609500614       -2.9516716866  W2        3167            0.0000000000
      9501      3167  TIP3      H2            -20.8328384125       33.0867200614       -2.2591316866  W2        3167            0.0000000000
      9502      3168  TIP3      OH2            -3.5065984125       33.5508600614       -0.1432116866  W2        3168            0.0000000000
      9503      3168  TIP3      H1             -3.5279284125       33.7357000614        0.7957283134  W2        3168            0.0000000000
      9504      3168  TIP3      H2             -2.8159784125       34.1192600614       -0.4840716866  W2        3168            0.0000000000
      9505      3169  TIP3      OH2            -3.9433084125       33.1179700614        2.7786983134  W2        3169            0.0000000000
      9506      3169  TIP3      H1             -4.4304384125       32.3823800614        2.4074383134  W2        3169            0.0000000000
      9507      3169  TIP3      H2             -3.3940384125       32.7243600614        3.4566383134  W2        3169            0.0000000000
      9508      3170  TIP3      OH2            -5.4925784125       28.9077800614        7.4167283134  W2        3170            0.0000000000
      9509      3170  TIP3      H1             -6.3584684125       28.8027500614        7.8109583134  W2        3170            0.0000000000
      9510      3170  TIP3      H2             -5.1159884125       29.6661100614        7.8631983134  W2        3170            0.0000000000
      9511      3171  TIP3      OH2            -4.1916084125       27.1641500614       -7.0690216866  W2        3171            0.0000000000
      9512      3171  TIP3      H1             -3.3414684125       27.5852400614       -6.9418616866  W2        3171            0.0000000000
      9513      3171  TIP3      H2             -4.1860984125       26.4241600614       -6.4618816866  W2        3171            0.0000000000
      9514      3172  TIP3      OH2            -3.7970484125       25.2178900614       -5.2454516866  W2        3172            0.0000000000
      9515      3172  TIP3      H1             -4.5235884125       24.7381500614       -4.8476916866  W2        3172            0.0000000000
      9516      3172  TIP3      H2             -3.2157184125       25.4233600614       -4.5132916866  W2        3172            0.0000000000
      9517      3173  TIP3      OH2            -4.0379284125       28.0026400614       -0.2976916866  W2        3173            0.0000000000
      9518      3173  TIP3      H1             -3.2045084125       27.6246400614       -0.5783316866  W2        3173            0.0000000000
      9519      3173  TIP3      H2             -3.9258984125       28.9457600614       -0.4167816866  W2        3173            0.0000000000
      9520      3174  TIP3      OH2            -5.5516984125       30.8803900614        2.0091483134  W2        3174            0.0000000000
      9521      3174  TIP3      H1             -6.1991684125       31.2055400614        2.6346683134  W2        3174            0.0000000000
      9522      3174  TIP3      H2             -6.0692984125       30.4401600614        1.3349783134  W2        3174            0.0000000000
      9523      3175  TIP3      OH2            -3.5287384125       25.1187400614       -8.8543216866  W2        3175            0.0000000000
      9524      3175  TIP3      H1             -4.0506284125       25.4751500614       -9.5732316866  W2        3175            0.0000000000
      9525      3175  TIP3      H2             -3.5618184125       25.7935200614       -8.1762316866  W2        3175            0.0000000000
      9526      3176  TIP3      OH2            -5.1798384125       22.3583000614      -10.3036116866  W2        3176            0.0000000000
      9527      3176  TIP3      H1             -5.0833984125       23.0250000614      -10.9836416866  W2        3176            0.0000000000
      9528      3176  TIP3      H2             -5.3198784125       21.5429300614      -10.7850616866  W2        3176            0.0000000000
      9529      3177  TIP3      OH2            -6.0103684125       23.7385400614       -4.6825816866  W2        3177            0.0000000000
      9530      3177  TIP3      H1             -6.1604884125       22.7934000614       -4.7028016866  W2        3177            0.0000000000
      9531      3177  TIP3      H2             -6.3639184125       24.0196800614       -3.8386716866  W2        3177            0.0000000000
      9532      3178  TIP3      OH2           -20.9751284125       25.8167600614       -0.6722016866  W2        3178            0.0000000000
      9533      3178  TIP3      H1            -20.7908384125       25.7349300614       -1.6079116866  W2        3178            0.0000000000
      9534      3178  TIP3      H2            -20.1258384125       25.6924600614       -0.2485616866  W2        3178            0.0000000000
      9535      3179  TIP3      OH2            -5.1540784125       25.7088700614        4.9562483134  W2        3179            0.0000000000
      9536      3179  TIP3      H1             -4.5713484125       24.9741000614        5.1479683134  W2        3179            0.0000000000
      9537      3179  TIP3      H2             -4.5901484125       26.4809000614        5.0028283134  W2        3179            0.0000000000
      9538      3180  TIP3      OH2            -3.6573684125       23.6114500614        5.6407883134  W2        3180            0.0000000000
      9539      3180  TIP3      H1             -4.5206984125       23.2326600614        5.4752583134  W2        3180            0.0000000000
      9540      3180  TIP3      H2             -3.0529984125       22.8729300614        5.5663683134  W2        3180            0.0000000000
      9541      3181  TIP3      OH2            -5.9324584125       19.7662800614      -11.1860616866  W2        3181            0.0000000000
      9542      3181  TIP3      H1             -5.3218784125       19.3949600614      -10.5492416866  W2        3181            0.0000000000
      9543      3181  TIP3      H2             -6.7693084125       19.3449700614      -10.9900616866  W2        3181            0.0000000000
      9544      3182  TIP3      OH2            -6.2998884125       21.3211200614       -6.2200716866  W2        3182            0.0000000000
      9545      3182  TIP3      H1             -6.0201784125       20.4141600614       -6.0959016866  W2        3182            0.0000000000
      9546      3182  TIP3      H2             -5.5407184125       21.7552700614       -6.6091516866  W2        3182            0.0000000000
      9547      3183  TIP3      OH2            -5.6880584125       21.9028600614       -0.7841816866  W2        3183            0.0000000000
      9548      3183  TIP3      H1             -4.7552584125       22.1148500614       -0.8185816866  W2        3183            0.0000000000
      9549      3183  TIP3      H2             -5.9233084125       22.0040700614        0.1381183134  W2        3183            0.0000000000
      9550      3184  TIP3      OH2            -5.6588684125       22.6393900614        1.9917583134  W2        3184            0.0000000000
      9551      3184  TIP3      H1             -6.5017384125       22.9074300614        2.3577383134  W2        3184            0.0000000000
      9552      3184  TIP3      H2             -5.2164384125       23.4615800614        1.7808683134  W2        3184            0.0000000000
      9553      3185  TIP3      OH2           -21.3776484125       21.0872600614        5.4686783134  W2        3185            0.0000000000
      9554      3185  TIP3      H1            -20.4581584125       20.9650900614        5.7049883134  W2        3185            0.0000000000
      9555      3185  TIP3      H2            -21.8271984125       20.3372300614        5.8580283134  W2        3185            0.0000000000
      9556      3186  TIP3      OH2            -3.3757084125       16.6194100614        7.3452583134  W2        3186            0.0000000000
      9557      3186  TIP3      H1             -3.0260084125       15.9657600614        6.7397283134  W2        3186            0.0000000000
      9558      3186  TIP3      H2             -3.2287584125       17.4568200614        6.9055183134  W2        3186            0.0000000000
      9559      3187  TIP3      OH2            -5.6864084125       18.5840500614       -6.1718716866  W2        3187            0.0000000000
      9560      3187  TIP3      H1             -5.5039084125       18.1352000614       -5.3463716866  W2        3187            0.0000000000
      9561      3187  TIP3      H2             -6.2861184125       17.9994900614       -6.6354116866  W2        3187            0.0000000000
      9562      3188  TIP3      OH2           -20.1563984125       19.3994200614       -1.6400316866  W2        3188            0.0000000000
      9563      3188  TIP3      H1            -19.7112384125       18.6076700614       -1.3380616866  W2        3188            0.0000000000
      9564      3188  TIP3      H2            -19.6900984125       20.1159400614       -1.2094716866  W2        3188            0.0000000000
      9565      3189  TIP3      OH2           -21.8523684125       22.3987200614       -0.5710116866  W2        3189            0.0000000000
      9566      3189  TIP3      H1            -21.3603884125       22.1777700614       -1.3618116866  W2        3189            0.0000000000
      9567      3189  TIP3      H2            -21.4902784125       23.2390600614       -0.2900616866  W2        3189            0.0000000000
      9568      3190  TIP3      OH2            -3.8559884125       18.7288700614        5.6943883134  W2        3190            0.0000000000
      9569      3190  TIP3      H1             -4.7734184125       18.9995800614        5.6587383134  W2        3190            0.0000000000
      9570      3190  TIP3      H2             -3.7330484125       18.1937100614        4.9103583134  W2        3190            0.0000000000
      9571      3191  TIP3      OH2            -3.8197884125       18.6518600614       -9.6438416866  W2        3191            0.0000000000
      9572      3191  TIP3      H1             -3.4075284125       17.9304300614      -10.1190416866  W2        3191            0.0000000000
      9573      3191  TIP3      H2             -3.1381384125       19.3213200614       -9.5854116866  W2        3191            0.0000000000
      9574      3192  TIP3      OH2           -21.5387184125       18.6566300614       -6.5167716866  W2        3192            0.0000000000
      9575      3192  TIP3      H1            -22.4638784125       18.8652900614       -6.6462216866  W2        3192            0.0000000000
      9576      3192  TIP3      H2            -21.0847284125       19.1407100614       -7.2065416866  W2        3192            0.0000000000
      9577      3193  TIP3      OH2            -6.7679984125       33.6408000614       -4.5710316866  W2        3193            0.0000000000
      9578      3193  TIP3      H1             -6.1157084125       33.2930100614       -5.1791216866  W2        3193            0.0000000000
      9579      3193  TIP3      H2             -6.2576184125       34.1291200614       -3.9250616866  W2        3193            0.0000000000
      9580      3194  TIP3      OH2           -21.5751784125       17.3945300614        1.8274783134  W2        3194            0.0000000000
      9581      3194  TIP3      H1            -22.2401284125       17.1485600614        2.4705683134  W2        3194            0.0000000000
      9582      3194  TIP3      H2            -22.0180484125       18.0165700614        1.2502783134  W2        3194            0.0000000000
      9583      3195  TIP3      OH2           -19.3832484125       30.5699400614        5.9720583134  W2        3195            0.0000000000
      9584      3195  TIP3      H1            -20.2039984125       30.7445900614        5.5115283134  W2        3195            0.0000000000
      9585      3195  TIP3      H2            -19.6354684125       30.4964100614        6.8924983134  W2        3195            0.0000000000
      9586      3196  TIP3      OH2           -16.4289584125       31.5440600614        2.2304583134  W2        3196            0.0000000000
      9587      3196  TIP3      H1            -16.8538484125       32.3539100614        1.9479183134  W2        3196            0.0000000000
      9588      3196  TIP3      H2            -15.5246784125       31.6294700614        1.9284383134  W2        3196            0.0000000000
      9589      3197  TIP3      OH2           -12.1178184125       32.9430600614        5.1898283134  W2        3197            0.0000000000
      9590      3197  TIP3      H1            -11.9330684125       32.6096700614        6.0678583134  W2        3197            0.0000000000
      9591      3197  TIP3      H2            -11.2713684125       33.2529200614        4.8677483134  W2        3197            0.0000000000
      9592      3198  TIP3      OH2            -9.7727784125       34.2289500614        4.4339683134  W2        3198            0.0000000000
      9593      3198  TIP3      H1             -9.0958884125       33.5961800614        4.1938883134  W2        3198            0.0000000000
      9594      3198  TIP3      H2             -9.4508984125       34.6300000614        5.2412983134  W2        3198            0.0000000000
      9595      3199  TIP3      OH2            -4.8553984125       16.8185000614        3.5134683134  W2        3199            0.0000000000
      9596      3199  TIP3      H1             -5.6680484125       17.1435300614        3.1259383134  W2        3199            0.0000000000
      9597      3199  TIP3      H2             -4.6225484125       16.0583500614        2.9803783134  W2        3199            0.0000000000
      9598      3200  TIP3      OH2           -19.0272884125       34.8004500614        2.2779883134  W2        3200            0.0000000000
      9599      3200  TIP3      H1            -19.7476484125       35.2405500614        1.8267583134  W2        3200            0.0000000000
      9600      3200  TIP3      H2            -19.3928884125       34.5499200614        3.1263883134  W2        3200            0.0000000000
      9601      3201  TIP3      OH2           -16.5600284125       34.4008400614        1.3077083134  W2        3201            0.0000000000
      9602      3201  TIP3      H1            -17.4248084125       34.4726900614        1.7117183134  W2        3201            0.0000000000
      9603      3201  TIP3      H2            -16.6151284125       34.9475700614        0.5239583134  W2        3201            0.0000000000
      9604      3202  TIP3      OH2           -11.8494684125       34.2887300614        0.4833083134  W2        3202            0.0000000000
      9605      3202  TIP3      H1            -12.3060684125       34.8177000614       -0.1708516866  W2        3202            0.0000000000
      9606      3202  TIP3      H2            -11.6866684125       34.8918700614        1.2085383134  W2        3202            0.0000000000
      9607      3203  TIP3      OH2            -9.5218384125       33.1666900614        1.4283383134  W2        3203            0.0000000000
      9608      3203  TIP3      H1            -10.4264684125       33.3317100614        1.1625483134  W2        3203            0.0000000000
      9609      3203  TIP3      H2             -9.0929784125       34.0199100614        1.3626783134  W2        3203            0.0000000000
      9610      3204  TIP3      OH2            -6.9176484125       34.7366000614        1.7231183134  W2        3204            0.0000000000
      9611      3204  TIP3      H1             -7.0994484125       35.6524900614        1.5126083134  W2        3204            0.0000000000
      9612      3204  TIP3      H2             -6.7408684125       34.3263100614        0.8765783134  W2        3204            0.0000000000
      9613      3205  TIP3      OH2           -19.6124784125       33.4237000614       -0.8118316866  W2        3205            0.0000000000
      9614      3205  TIP3      H1            -19.6308784125       32.9982100614        0.0453983134  W2        3205            0.0000000000
      9615      3205  TIP3      H2            -18.8076884125       33.1052000614       -1.2206116866  W2        3205            0.0000000000
      9616      3206  TIP3      OH2           -17.4711684125       32.1335700614       -2.1568416866  W2        3206            0.0000000000
      9617      3206  TIP3      H1            -17.6900984125       31.2173100614       -1.9872416866  W2        3206            0.0000000000
      9618      3206  TIP3      H2            -16.6469484125       32.2736100614       -1.6907016866  W2        3206            0.0000000000
      9619      3207  TIP3      OH2           -14.9339184125       32.6035000614       -1.3080416866  W2        3207            0.0000000000
      9620      3207  TIP3      H1            -14.7213484125       31.7154000614       -1.5949516866  W2        3207            0.0000000000
      9621      3207  TIP3      H2            -14.8694084125       32.5692700614       -0.3536416866  W2        3207            0.0000000000
      9622      3208  TIP3      OH2           -11.4255484125       18.2675600614       -2.1637116866  W2        3208            0.0000000000
      9623      3208  TIP3      H1            -12.0998684125       17.6381200614       -1.9081316866  W2        3208            0.0000000000
      9624      3208  TIP3      H2            -10.8616284125       17.7834500614       -2.7669216866  W2        3208            0.0000000000
      9625      3209  TIP3      OH2            -6.2828284125       16.3749600614       -2.0510016866  W2        3209            0.0000000000
      9626      3209  TIP3      H1             -5.6790684125       16.9225000614       -2.5529016866  W2        3209            0.0000000000
      9627      3209  TIP3      H2             -7.1526284125       16.6940000614       -2.2915916866  W2        3209            0.0000000000
      9628      3210  TIP3      OH2            -4.5557884125       17.5138300614       -3.7179116866  W2        3210            0.0000000000
      9629      3210  TIP3      H1             -3.9440384125       16.9994000614       -4.2445516866  W2        3210            0.0000000000
      9630      3210  TIP3      H2             -4.1734484125       18.3910400614       -3.6944716866  W2        3210            0.0000000000
      9631      3211  TIP3      OH2           -19.0987984125       16.9015900614       -4.3417216866  W2        3211            0.0000000000
      9632      3211  TIP3      H1            -19.8758184125       16.6670800614       -4.8491316866  W2        3211            0.0000000000
      9633      3211  TIP3      H2            -18.5684384125       16.1048000614       -4.3329216866  W2        3211            0.0000000000
      9634      3212  TIP3      OH2           -20.2624584125       16.6994000614       -8.5381116866  W2        3212            0.0000000000
      9635      3212  TIP3      H1            -19.8233884125       17.3104500614       -9.1297616866  W2        3212            0.0000000000
      9636      3212  TIP3      H2            -20.8962184125       17.2378100614       -8.0641116866  W2        3212            0.0000000000
      9637      3213  TIP3      OH2           -14.5195384125       16.8283000614       -4.5284116866  W2        3213            0.0000000000
      9638      3213  TIP3      H1            -13.6451984125       17.2167300614       -4.5579816866  W2        3213            0.0000000000
      9639      3213  TIP3      H2            -14.6554584125       16.6130800614       -3.6056916866  W2        3213            0.0000000000
      9640      3214  TIP3      OH2            -8.9626984125       16.8582800614       -2.8792416866  W2        3214            0.0000000000
      9641      3214  TIP3      H1             -8.8865384125       16.9534400614       -3.8286416866  W2        3214            0.0000000000
      9642      3214  TIP3      H2             -9.2377784125       15.9505700614       -2.7503316866  W2        3214            0.0000000000
      9643      3215  TIP3      OH2            -7.6094384125       16.8840600614       -7.1867416866  W2        3215            0.0000000000
      9644      3215  TIP3      H1             -8.3123284125       17.4989800614       -7.3966016866  W2        3215            0.0000000000
      9645      3215  TIP3      H2             -8.0542984125       16.0467300614       -7.0556516866  W2        3215            0.0000000000
      9646      3216  TIP3      OH2           -20.3615084125       32.6476200614       -7.6406016866  W2        3216            0.0000000000
      9647      3216  TIP3      H1            -21.0465184125       32.6095100614       -8.3080916866  W2        3216            0.0000000000
      9648      3216  TIP3      H2            -20.3577884125       33.5603800614       -7.3523916866  W2        3216            0.0000000000
      9649      3217  TIP3      OH2           -18.4015484125       18.6155500614      -10.0957016866  W2        3217            0.0000000000
      9650      3217  TIP3      H1            -17.9102084125       17.9857900614      -10.6231516866  W2        3217            0.0000000000
      9651      3217  TIP3      H2            -17.7779184125       18.9114900614       -9.4325816866  W2        3217            0.0000000000
      9652      3218  TIP3      OH2           -13.3755384125       18.9087000614       -7.6386516866  W2        3218            0.0000000000
      9653      3218  TIP3      H1            -13.1974084125       18.2620200614       -6.9557916866  W2        3218            0.0000000000
      9654      3218  TIP3      H2            -13.4289184125       19.7424700614       -7.1715416866  W2        3218            0.0000000000
      9655      3219  TIP3      OH2           -11.4971584125       33.8571100614       -9.2429816866  W2        3219            0.0000000000
      9656      3219  TIP3      H1            -10.6311384125       34.2238500614       -9.4211616866  W2        3219            0.0000000000
      9657      3219  TIP3      H2            -11.7438784125       33.4179100614      -10.0569016866  W2        3219            0.0000000000
      9658      3220  TIP3      OH2            -4.7881984125       33.4201400614       -6.5638716866  W2        3220            0.0000000000
      9659      3220  TIP3      H1             -4.9824884125       32.6723500614       -7.1289116866  W2        3220            0.0000000000
      9660      3220  TIP3      H2             -4.8271884125       34.1781500614       -7.1470816866  W2        3220            0.0000000000
      9661      3221  TIP3      OH2           -19.1409984125       17.4157800614        5.1758983134  W2        3221            0.0000000000
      9662      3221  TIP3      H1            -19.5071784125       16.6500400614        5.6183683134  W2        3221            0.0000000000
      9663      3221  TIP3      H2            -18.2281484125       17.4448000614        5.4624083134  W2        3221            0.0000000000
      9664      3222  TIP3      OH2           -17.1679184125       16.7662200614        6.7116083134  W2        3222            0.0000000000
      9665      3222  TIP3      H1            -16.2695584125       16.4922400614        6.5269483134  W2        3222            0.0000000000
      9666      3222  TIP3      H2            -17.5546084125       16.0238200614        7.1758683134  W2        3222            0.0000000000
      9667      3223  TIP3      OH2           -18.5433884125       33.5677000614      -10.6153916866  W2        3223            0.0000000000
      9668      3223  TIP3      H1            -18.8109284125       33.8539900614       -9.7420816866  W2        3223            0.0000000000
      9669      3223  TIP3      H2            -17.7721284125       33.0216200614      -10.4631416866  W2        3223            0.0000000000
      9670      3224  TIP3      OH2            -8.7466884125       16.0987500614        6.8938883134  W2        3224            0.0000000000
      9671      3224  TIP3      H1             -8.6699684125       15.6728200614        7.7476583134  W2        3224            0.0000000000
      9672      3224  TIP3      H2             -7.8530284125       16.1122200614        6.5512383134  W2        3224            0.0000000000
      9673      3225  TIP3      OH2            -5.5705784125       32.1713800614        5.5863083134  W2        3225            0.0000000000
      9674      3225  TIP3      H1             -6.3523884125       31.9851800614        5.0663683134  W2        3225            0.0000000000
      9675      3225  TIP3      H2             -5.6425884125       33.1008100614        5.8035583134  W2        3225            0.0000000000
      9676      3226  TIP3      OH2             8.8354615875       26.0578200614       -4.3829716866  W2        3226            0.0000000000
      9677      3226  TIP3      H1              8.9245715875       27.0016400614       -4.5152616866  W2        3226            0.0000000000
      9678      3226  TIP3      H2              8.1972215875       25.7824600614       -5.0410316866  W2        3226            0.0000000000
      9679      3227  TIP3      OH2             7.7685915875       25.3128900614       -0.9641516866  W2        3227            0.0000000000
      9680      3227  TIP3      H1              7.7303415875       24.6665200614       -0.2591916866  W2        3227            0.0000000000
      9681      3227  TIP3      H2              7.4462415875       24.8463300614       -1.7352816866  W2        3227            0.0000000000
      9682      3228  TIP3      OH2             0.1370915875       24.9271000614        0.6288383134  W2        3228            0.0000000000
      9683      3228  TIP3      H1              0.1783015875       24.3014300614        1.3520783134  W2        3228            0.0000000000
      9684      3228  TIP3      H2              0.8398615875       25.5509600614        0.8108783134  W2        3228            0.0000000000
      9685      3229  TIP3      OH2            11.4746115875       28.2519300614       -2.6626416866  W2        3229            0.0000000000
      9686      3229  TIP3      H1             11.0338815875       27.5315300614       -2.2120816866  W2        3229            0.0000000000
      9687      3229  TIP3      H2             11.4615815875       28.9726500614       -2.0328716866  W2        3229            0.0000000000
      9688      3230  TIP3      OH2             1.0604015875       29.3769900614       -0.8362516866  W2        3230            0.0000000000
      9689      3230  TIP3      H1              0.6909215875       28.5750400614       -1.2058216866  W2        3230            0.0000000000
      9690      3230  TIP3      H2              2.0015115875       29.2084800614       -0.7899116866  W2        3230            0.0000000000
      9691      3231  TIP3      OH2            -2.3295484125       23.0372500614       -5.4433716866  W2        3231            0.0000000000
      9692      3231  TIP3      H1             -2.7772084125       23.8831200614       -5.4617216866  W2        3231            0.0000000000
      9693      3231  TIP3      H2             -2.8904284125       22.4576700614       -5.9588616866  W2        3231            0.0000000000
      9694      3232  TIP3      OH2            -1.6189384125       25.1992100614       -3.3175716866  W2        3232            0.0000000000
      9695      3232  TIP3      H1             -1.4055884125       24.4293700614       -2.7902716866  W2        3232            0.0000000000
      9696      3232  TIP3      H2             -0.8811784125       25.2888800614       -3.9208116866  W2        3232            0.0000000000
      9697      3233  TIP3      OH2             8.5861615875       33.3561000614       -2.4506016866  W2        3233            0.0000000000
      9698      3233  TIP3      H1              9.2058015875       32.6795700614       -2.7236816866  W2        3233            0.0000000000
      9699      3233  TIP3      H2              8.3779015875       33.1381800614       -1.5421116866  W2        3233            0.0000000000
      9700      3234  TIP3      OH2             6.1580315875       27.7450300614       -0.5580516866  W2        3234            0.0000000000
      9701      3234  TIP3      H1              6.4618215875       27.0591700614       -1.1526416866  W2        3234            0.0000000000
      9702      3234  TIP3      H2              6.8794315875       27.8639000614        0.0597483134  W2        3234            0.0000000000
      9703      3235  TIP3      OH2            14.8210115875       19.3465600614        0.3025683134  W2        3235            0.0000000000
      9704      3235  TIP3      H1             14.8702315875       19.9566800614        1.0384783134  W2        3235            0.0000000000
      9705      3235  TIP3      H2             15.2465215875       19.8076500614       -0.4203216866  W2        3235            0.0000000000
      9706      3236  TIP3      OH2             9.2987315875       22.1392700614       -0.2305716866  W2        3236            0.0000000000
      9707      3236  TIP3      H1              9.4413215875       21.1929700614       -0.2104116866  W2        3236            0.0000000000
      9708      3236  TIP3      H2              9.1926315875       22.3462500614       -1.1590816866  W2        3236            0.0000000000
      9709      3237  TIP3      OH2             2.4535615875       20.2409100614       -2.9580916866  W2        3237            0.0000000000
      9710      3237  TIP3      H1              2.4966715875       21.1007600614       -3.3764616866  W2        3237            0.0000000000
      9711      3237  TIP3      H2              1.9959715875       19.6883800614       -3.5917716866  W2        3237            0.0000000000
      9712      3238  TIP3      OH2            10.1758315875       20.3714700614       -4.5572616866  W2        3238            0.0000000000
      9713      3238  TIP3      H1             10.8222615875       20.0427900614       -3.9325016866  W2        3238            0.0000000000
      9714      3238  TIP3      H2             10.6857715875       20.8893700614       -5.1801216866  W2        3238            0.0000000000
      9715      3239  TIP3      OH2            -0.9262884125       22.6374900614       -2.1959516866  W2        3239            0.0000000000
      9716      3239  TIP3      H1             -0.2726284125       22.0876600614       -1.7639416866  W2        3239            0.0000000000
      9717      3239  TIP3      H2             -0.9023584125       22.3633900614       -3.1127516866  W2        3239            0.0000000000
      9718      3240  TIP3      OH2             4.2301615875       24.1876200614       -2.9808016866  W2        3240            0.0000000000
      9719      3240  TIP3      H1              4.8462615875       23.6611600614       -2.4714016866  W2        3240            0.0000000000
      9720      3240  TIP3      H2              3.6440415875       23.5474900614       -3.3844416866  W2        3240            0.0000000000
      9721      3241  TIP3      OH2            15.2124715875       20.8244800614        2.5385483134  W2        3241            0.0000000000
      9722      3241  TIP3      H1             14.5239315875       21.4825500614        2.4432083134  W2        3241            0.0000000000
      9723      3241  TIP3      H2             15.2279315875       20.6272700614        3.4750883134  W2        3241            0.0000000000
      9724      3242  TIP3      OH2             1.2637515875       19.1587500614        1.1159883134  W2        3242            0.0000000000
      9725      3242  TIP3      H1              1.0449215875       19.6888100614        0.3495883134  W2        3242            0.0000000000
      9726      3242  TIP3      H2              0.5958415875       19.3853000614        1.7631283134  W2        3242            0.0000000000
      9727      3243  TIP3      OH2             8.6327315875       28.6588600614       -5.3401016866  W2        3243            0.0000000000
      9728      3243  TIP3      H1              8.3372415875       28.3360900614       -6.1914116866  W2        3243            0.0000000000
      9729      3243  TIP3      H2              8.3085115875       29.5585300614       -5.2988416866  W2        3243            0.0000000000
      9730      3244  TIP3      OH2             3.8328915875       26.8343200614        1.4033583134  W2        3244            0.0000000000
      9731      3244  TIP3      H1              3.0928015875       27.4324700614        1.5068783134  W2        3244            0.0000000000
      9732      3244  TIP3      H2              4.5468415875       27.3882800614        1.0877183134  W2        3244            0.0000000000
      9733      3245  TIP3      OH2            11.9396715875       19.6624000614       -2.5766716866  W2        3245            0.0000000000
      9734      3245  TIP3      H1             11.7244715875       18.8967400614       -2.0440716866  W2        3245            0.0000000000
      9735      3245  TIP3      H2             12.5954115875       20.1348600614       -2.0638216866  W2        3245            0.0000000000
      9736      3246  TIP3      OH2             0.8574815875       21.0509300614       -0.9317916866  W2        3246            0.0000000000
      9737      3246  TIP3      H1              1.4711115875       21.6836900614       -0.5585516866  W2        3246            0.0000000000
      9738      3246  TIP3      H2              1.3695515875       20.5784300614       -1.5881016866  W2        3246            0.0000000000
      9739      3247  TIP3      OH2             2.2403215875       28.7986200614        2.1905083134  W2        3247            0.0000000000
      9740      3247  TIP3      H1              2.2350815875       29.6779700614        1.8124383134  W2        3247            0.0000000000
      9741      3247  TIP3      H2              1.3867315875       28.7150300614        2.6154983134  W2        3247            0.0000000000
      9742      3248  TIP3      OH2            -1.6385884125       28.4694100614       -7.0275616866  W2        3248            0.0000000000
      9743      3248  TIP3      H1             -1.9104984125       28.6985100614       -7.9162716866  W2        3248            0.0000000000
      9744      3248  TIP3      H2             -1.5930184125       29.3072900614       -6.5670316866  W2        3248            0.0000000000
      9745      3249  TIP3      OH2            11.9863815875       30.0910000614       -0.3147116866  W2        3249            0.0000000000
      9746      3249  TIP3      H1             11.0447515875       30.1493900614       -0.1530216866  W2        3249            0.0000000000
      9747      3249  TIP3      H2             12.2629915875       30.9970500614       -0.4517416866  W2        3249            0.0000000000
      9748      3250  TIP3      OH2            12.2870815875       18.3775300614        1.1026783134  W2        3250            0.0000000000
      9749      3250  TIP3      H1             11.5510015875       18.9882400614        1.0648083134  W2        3250            0.0000000000
      9750      3250  TIP3      H2             12.9704815875       18.7924300614        0.5763183134  W2        3250            0.0000000000
      9751      3251  TIP3      OH2             5.2902215875       16.4642600614       -1.4315216866  W2        3251            0.0000000000
      9752      3251  TIP3      H1              5.1726415875       15.5158600614       -1.4856916866  W2        3251            0.0000000000
      9753      3251  TIP3      H2              4.4352315875       16.7968700614       -1.1584116866  W2        3251            0.0000000000
      9754      3252  TIP3      OH2            10.2385015875       31.8723500614       -3.6895516866  W2        3252            0.0000000000
      9755      3252  TIP3      H1             10.6637315875       31.1651400614       -4.1745916866  W2        3252            0.0000000000
      9756      3252  TIP3      H2             10.5555015875       32.6736200614       -4.1063316866  W2        3252            0.0000000000
      9757      3253  TIP3      OH2            11.3981515875       29.7732000614       -5.1808916866  W2        3253            0.0000000000
      9758      3253  TIP3      H1             11.1406315875       29.0832100614       -5.7923016866  W2        3253            0.0000000000
      9759      3253  TIP3      H2             11.4692315875       29.3303200614       -4.3353016866  W2        3253            0.0000000000
      9760      3254  TIP3      OH2            13.0841715875       28.3398700614        3.2964583134  W2        3254            0.0000000000
      9761      3254  TIP3      H1             13.2238015875       27.7481200614        2.5571583134  W2        3254            0.0000000000
      9762      3254  TIP3      H2             13.2514515875       29.2124600614        2.9403383134  W2        3254            0.0000000000
      9763      3255  TIP3      OH2             7.5567115875       25.3018200614       -6.9309416866  W2        3255            0.0000000000
      9764      3255  TIP3      H1              6.8452615875       25.8367900614       -7.2828916866  W2        3255            0.0000000000
      9765      3255  TIP3      H2              8.2476715875       25.3570300614       -7.5910516866  W2        3255            0.0000000000
      9766      3256  TIP3      OH2             7.6106315875       23.7592500614       -9.8924416866  W2        3256            0.0000000000
      9767      3256  TIP3      H1              8.3116215875       23.7819400614       -9.2410416866  W2        3256            0.0000000000
      9768      3256  TIP3      H2              7.9129215875       23.1312200614      -10.5485116866  W2        3256            0.0000000000
      9769      3257  TIP3      OH2            14.9261015875       24.6796700614        1.3624983134  W2        3257            0.0000000000
      9770      3257  TIP3      H1             14.2735115875       25.3742300614        1.4515883134  W2        3257            0.0000000000
      9771      3257  TIP3      H2             15.3911315875       24.8897600614        0.5526583134  W2        3257            0.0000000000
      9772      3258  TIP3      OH2            10.9624815875       25.5111500614       -5.9793516866  W2        3258            0.0000000000
      9773      3258  TIP3      H1             10.2305815875       25.7395200614       -5.4062916866  W2        3258            0.0000000000
      9774      3258  TIP3      H2             11.4097015875       24.7974200614       -5.5246016866  W2        3258            0.0000000000
      9775      3259  TIP3      OH2            10.8598315875       23.6854100614        3.0883483134  W2        3259            0.0000000000
      9776      3259  TIP3      H1             10.9397415875       24.4488500614        3.6601983134  W2        3259            0.0000000000
      9777      3259  TIP3      H2             10.2586015875       23.9646500614        2.3978583134  W2        3259            0.0000000000
      9778      3260  TIP3      OH2             2.6078515875       26.1417700614       -4.0968516866  W2        3260            0.0000000000
      9779      3260  TIP3      H1              2.2773715875       25.7711100614       -4.9151516866  W2        3260            0.0000000000
      9780      3260  TIP3      H2              3.1962615875       25.4711700614       -3.7500216866  W2        3260            0.0000000000
      9781      3261  TIP3      OH2             3.9746015875       29.5698300614       -1.4156316866  W2        3261            0.0000000000
      9782      3261  TIP3      H1              3.8797315875       28.9911400614       -2.1721716866  W2        3261            0.0000000000
      9783      3261  TIP3      H2              4.7039615875       29.1984000614       -0.9193516866  W2        3261            0.0000000000
      9784      3262  TIP3      OH2             2.9744015875       24.9103300614       -0.4633516866  W2        3262            0.0000000000
      9785      3262  TIP3      H1              3.5396515875       25.0317500614       -1.2262316866  W2        3262            0.0000000000
      9786      3262  TIP3      H2              3.2932915875       25.5478300614        0.1754983134  W2        3262            0.0000000000
      9787      3263  TIP3      OH2             9.2836215875       30.4135200614        0.2706983134  W2        3263            0.0000000000
      9788      3263  TIP3      H1              9.0432815875       31.0758300614        0.9186183134  W2        3263            0.0000000000
      9789      3263  TIP3      H2              9.0854415875       29.5790400614        0.6956583134  W2        3263            0.0000000000
      9790      3264  TIP3      OH2             3.8544715875       29.3096000614        4.2538383134  W2        3264            0.0000000000
      9791      3264  TIP3      H1              3.5432215875       30.0919200614        4.7091583134  W2        3264            0.0000000000
      9792      3264  TIP3      H2              3.2044915875       29.1565100614        3.5680383134  W2        3264            0.0000000000
      9793      3265  TIP3      OH2             9.8334315875       24.6734400614       -8.2942316866  W2        3265            0.0000000000
      9794      3265  TIP3      H1             10.4129815875       24.8234700614       -7.5473416866  W2        3265            0.0000000000
      9795      3265  TIP3      H2             10.2474315875       25.1441800614       -9.0175916866  W2        3265            0.0000000000
      9796      3266  TIP3      OH2             0.7744615875       25.5077100614        3.4824083134  W2        3266            0.0000000000
      9797      3266  TIP3      H1              0.8447815875       26.1583900614        4.1809083134  W2        3266            0.0000000000
      9798      3266  TIP3      H2             -0.1163184125       25.6104600614        3.1474983134  W2        3266            0.0000000000
      9799      3267  TIP3      OH2             7.5599215875       31.4102900614       -4.8589216866  W2        3267            0.0000000000
      9800      3267  TIP3      H1              8.0336815875       31.7059200614       -4.0815016866  W2        3267            0.0000000000
      9801      3267  TIP3      H2              6.9968515875       32.1484500614       -5.0919616866  W2        3267            0.0000000000
      9802      3268  TIP3      OH2             2.0940615875       31.3811000614        5.0172183134  W2        3268            0.0000000000
      9803      3268  TIP3      H1              2.1015915875       31.2450700614        4.0697683134  W2        3268            0.0000000000
      9804      3268  TIP3      H2              1.1781015875       31.2639100614        5.2692183134  W2        3268            0.0000000000
      9805      3269  TIP3      OH2            13.5322715875       16.4234800614       -8.4812616866  W2        3269            0.0000000000
      9806      3269  TIP3      H1             12.6323415875       16.5623800614       -8.1862016866  W2        3269            0.0000000000
      9807      3269  TIP3      H2             13.7841115875       17.2549400614       -8.8830916866  W2        3269            0.0000000000
      9808      3270  TIP3      OH2             1.5981215875       25.2112000614       -6.5075716866  W2        3270            0.0000000000
      9809      3270  TIP3      H1              1.3062515875       25.9793700614       -6.9984416866  W2        3270            0.0000000000
      9810      3270  TIP3      H2              0.9236415875       24.5518200614       -6.6704316866  W2        3270            0.0000000000
      9811      3271  TIP3      OH2            14.7214115875       30.7897200614      -10.1048716866  W2        3271            0.0000000000
      9812      3271  TIP3      H1             14.7947615875       31.7287400614       -9.9343416866  W2        3271            0.0000000000
      9813      3271  TIP3      H2             15.6269215875       30.4845800614      -10.1611416866  W2        3271            0.0000000000
      9814      3272  TIP3      OH2            -2.3088684125       27.5741200614        2.3074083134  W2        3272            0.0000000000
      9815      3272  TIP3      H1             -2.8100284125       27.5460600614        1.4923783134  W2        3272            0.0000000000
      9816      3272  TIP3      H2             -2.3034984125       26.6684400614        2.6171383134  W2        3272            0.0000000000
      9817      3273  TIP3      OH2            -2.5585984125       30.3545000614       -0.8085716866  W2        3273            0.0000000000
      9818      3273  TIP3      H1             -1.6125384125       30.2102000614       -0.8276216866  W2        3273            0.0000000000
      9819      3273  TIP3      H2             -2.6709684125       31.1387800614       -0.2714516866  W2        3273            0.0000000000
      9820      3274  TIP3      OH2            15.6392515875       31.0204700614        4.8737983134  W2        3274            0.0000000000
      9821      3274  TIP3      H1             15.5899315875       30.0652800614        4.8365583134  W2        3274            0.0000000000
      9822      3274  TIP3      H2             14.8124815875       31.2880000614        5.2751783134  W2        3274            0.0000000000
      9823      3275  TIP3      OH2             6.6176515875       30.5943900614        3.7499383134  W2        3275            0.0000000000
      9824      3275  TIP3      H1              6.7051115875       31.4208500614        4.2248483134  W2        3275            0.0000000000
      9825      3275  TIP3      H2              5.7541615875       30.2647700614        3.9988683134  W2        3275            0.0000000000
      9826      3276  TIP3      OH2             7.0322315875       34.3667600614       -6.4440016866  W2        3276            0.0000000000
      9827      3276  TIP3      H1              6.9568315875       34.2454800614       -7.3904816866  W2        3276            0.0000000000
      9828      3276  TIP3      H2              7.0651015875       35.3160300614       -6.3255416866  W2        3276            0.0000000000
      9829      3277  TIP3      OH2             0.6856115875       33.1554600614       -4.6631016866  W2        3277            0.0000000000
      9830      3277  TIP3      H1              0.8376515875       32.8075000614       -3.7844516866  W2        3277            0.0000000000
      9831      3277  TIP3      H2             -0.1653484125       32.7991900614       -4.9183816866  W2        3277            0.0000000000
      9832      3278  TIP3      OH2            10.1338315875       33.5207800614       -9.4417616866  W2        3278            0.0000000000
      9833      3278  TIP3      H1             10.5086715875       32.7763900614       -9.9125016866  W2        3278            0.0000000000
      9834      3278  TIP3      H2             10.1382015875       33.2508400614       -8.5234316866  W2        3278            0.0000000000
      9835      3279  TIP3      OH2             9.8026415875       33.4464900614       -6.6925416866  W2        3279            0.0000000000
      9836      3279  TIP3      H1              8.8676215875       33.5466800614       -6.5138416866  W2        3279            0.0000000000
      9837      3279  TIP3      H2             10.0828315875       32.7370900614       -6.1142216866  W2        3279            0.0000000000
      9838      3280  TIP3      OH2            12.7912315875       22.5137200614        5.3540183134  W2        3280            0.0000000000
      9839      3280  TIP3      H1             12.3839115875       22.9942800614        4.6333483134  W2        3280            0.0000000000
      9840      3280  TIP3      H2             12.8318015875       21.6083200614        5.0460983134  W2        3280            0.0000000000
      9841      3281  TIP3      OH2            -0.0598184125       28.8976600614        3.3506883134  W2        3281            0.0000000000
      9842      3281  TIP3      H1              0.1563115875       28.5362200614        4.2102683134  W2        3281            0.0000000000
      9843      3281  TIP3      H2             -0.9153484125       28.5230400614        3.1410383134  W2        3281            0.0000000000
      9844      3282  TIP3      OH2             2.5589815875       17.3677100614       -0.6538916866  W2        3282            0.0000000000
      9845      3282  TIP3      H1              1.6973515875       17.2805300614       -1.0616016866  W2        3282            0.0000000000
      9846      3282  TIP3      H2              2.5365515875       18.2237200614       -0.2261316866  W2        3282            0.0000000000
      9847      3283  TIP3      OH2             7.2217615875       17.0897500614        2.7208083134  W2        3283            0.0000000000
      9848      3283  TIP3      H1              7.6420715875       16.6744600614        3.4738683134  W2        3283            0.0000000000
      9849      3283  TIP3      H2              6.2887215875       16.9110800614        2.8380083134  W2        3283            0.0000000000
      9850      3284  TIP3      OH2            10.5482515875       20.8452700614        3.5742583134  W2        3284            0.0000000000
      9851      3284  TIP3      H1             10.0342015875       20.7194900614        4.3718583134  W2        3284            0.0000000000
      9852      3284  TIP3      H2             10.3927215875       21.7575800614        3.3298783134  W2        3284            0.0000000000
      9853      3285  TIP3      OH2            11.3107415875       25.7062700614      -10.6644416866  W2        3285            0.0000000000
      9854      3285  TIP3      H1             11.3528215875       25.4836600614      -11.5944416866  W2        3285            0.0000000000
      9855      3285  TIP3      H2             12.1599515875       26.1049800614      -10.4744516866  W2        3285            0.0000000000
      9856      3286  TIP3      OH2             6.8834915875       19.5820900614       -9.9941116866  W2        3286            0.0000000000
      9857      3286  TIP3      H1              6.6299715875       19.6012500614       -9.0713016866  W2        3286            0.0000000000
      9858      3286  TIP3      H2              6.6267015875       18.7106300614      -10.2954916866  W2        3286            0.0000000000
      9859      3287  TIP3      OH2             2.6499915875       22.3331600614        0.4411283134  W2        3287            0.0000000000
      9860      3287  TIP3      H1              2.0082015875       22.2928900614        1.1501383134  W2        3287            0.0000000000
      9861      3287  TIP3      H2              2.6871915875       23.2596300614        0.2034283134  W2        3287            0.0000000000
      9862      3288  TIP3      OH2             2.6469015875       22.5541700614       -4.6468716866  W2        3288            0.0000000000
      9863      3288  TIP3      H1              1.7541915875       22.2137800614       -4.7054916866  W2        3288            0.0000000000
      9864      3288  TIP3      H2              3.0975615875       22.1772600614       -5.4025516866  W2        3288            0.0000000000
      9865      3289  TIP3      OH2             8.1824515875       22.9702000614       -5.8297916866  W2        3289            0.0000000000
      9866      3289  TIP3      H1              7.7734815875       23.7850600614       -6.1213116866  W2        3289            0.0000000000
      9867      3289  TIP3      H2              8.9030715875       22.8302100614       -6.4440816866  W2        3289            0.0000000000
      9868      3290  TIP3      OH2             7.2846115875       23.1458400614        5.6582783134  W2        3290            0.0000000000
      9869      3290  TIP3      H1              6.7219915875       22.4410000614        5.9790583134  W2        3290            0.0000000000
      9870      3290  TIP3      H2              8.1109515875       23.0250300614        6.1260383134  W2        3290            0.0000000000
      9871      3291  TIP3      OH2             9.1872215875       22.4162400614       -3.0158216866  W2        3291            0.0000000000
      9872      3291  TIP3      H1              8.9916715875       23.0219200614       -3.7307616866  W2        3291            0.0000000000
      9873      3291  TIP3      H2              9.3684815875       21.5827600614       -3.4501916866  W2        3291            0.0000000000
      9874      3292  TIP3      OH2             0.4000415875       22.6535100614        2.3083283134  W2        3292            0.0000000000
      9875      3292  TIP3      H1              0.3619815875       23.0536700614        3.1770383134  W2        3292            0.0000000000
      9876      3292  TIP3      H2             -0.0908484125       21.8367500614        2.3986183134  W2        3292            0.0000000000
      9877      3293  TIP3      OH2             3.7657815875       20.0277400614      -10.8930716866  W2        3293            0.0000000000
      9878      3293  TIP3      H1              3.3348515875       19.5827500614      -10.1633316866  W2        3293            0.0000000000
      9879      3293  TIP3      H2              3.0476515875       20.3993700614      -11.4053216866  W2        3293            0.0000000000
      9880      3294  TIP3      OH2            -2.9918784125       19.7696900614       -3.8412016866  W2        3294            0.0000000000
      9881      3294  TIP3      H1             -2.3611084125       19.7409000614       -3.1218116866  W2        3294            0.0000000000
      9882      3294  TIP3      H2             -2.5424484125       19.3445600614       -4.5716116866  W2        3294            0.0000000000
      9883      3295  TIP3      OH2            -1.7176684125       20.5158900614       -8.4171616866  W2        3295            0.0000000000
      9884      3295  TIP3      H1             -1.2434984125       21.1068800614       -9.0020716866  W2        3295            0.0000000000
      9885      3295  TIP3      H2             -2.4350284125       21.0461800614       -8.0701516866  W2        3295            0.0000000000
      9886      3296  TIP3      OH2             8.4511415875       24.0543700614        1.6554183134  W2        3296            0.0000000000
      9887      3296  TIP3      H1              8.7746215875       23.4233400614        1.0124683134  W2        3296            0.0000000000
      9888      3296  TIP3      H2              8.0110715875       23.5195900614        2.3161583134  W2        3296            0.0000000000
      9889      3297  TIP3      OH2             5.2284315875       19.9819200614       -3.5604616866  W2        3297            0.0000000000
      9890      3297  TIP3      H1              4.3175415875       20.0386000614       -3.2718616866  W2        3297            0.0000000000
      9891      3297  TIP3      H2              5.7337215875       19.9214700614       -2.7497416866  W2        3297            0.0000000000
      9892      3298  TIP3      OH2             0.0567715875       21.6105500614       -4.7337016866  W2        3298            0.0000000000
      9893      3298  TIP3      H1             -0.8324284125       21.7101000614       -5.0737416866  W2        3298            0.0000000000
      9894      3298  TIP3      H2              0.3532615875       20.7688500614       -5.0799116866  W2        3298            0.0000000000
      9895      3299  TIP3      OH2             3.7099515875       21.6108100614       -7.0772416866  W2        3299            0.0000000000
      9896      3299  TIP3      H1              4.6415015875       21.7398100614       -6.8989316866  W2        3299            0.0000000000
      9897      3299  TIP3      H2              3.4949815875       22.2802400614       -7.7267716866  W2        3299            0.0000000000
      9898      3300  TIP3      OH2             9.6336215875       19.2165500614       -0.2962816866  W2        3300            0.0000000000
      9899      3300  TIP3      H1              8.9567815875       19.3478600614        0.3676883134  W2        3300            0.0000000000
      9900      3300  TIP3      H2              9.1481115875       19.0615000614       -1.1065116866  W2        3300            0.0000000000
      9901      3301  TIP3      OH2             2.3839715875       22.8050300614       -9.5106316866  W2        3301            0.0000000000
      9902      3301  TIP3      H1              1.8414815875       22.4254100614      -10.2018716866  W2        3301            0.0000000000
      9903      3301  TIP3      H2              3.2174615875       22.9995000614       -9.9392216866  W2        3301            0.0000000000
      9904      3302  TIP3      OH2            12.9211315875       34.8880900614        5.9804783134  W2        3302            0.0000000000
      9905      3302  TIP3      H1             13.1210015875       35.3122800614        5.1460083134  W2        3302            0.0000000000
      9906      3302  TIP3      H2             13.5765015875       35.2319100614        6.5875183134  W2        3302            0.0000000000
      9907      3303  TIP3      OH2             0.5191115875       27.3622200614        5.5885283134  W2        3303            0.0000000000
      9908      3303  TIP3      H1              1.2513515875       27.6168100614        6.1499783134  W2        3303            0.0000000000
      9909      3303  TIP3      H2             -0.2610184125       27.5667600614        6.1040683134  W2        3303            0.0000000000
      9910      3304  TIP3      OH2             6.5484015875       22.7692200614       -1.6735016866  W2        3304            0.0000000000
      9911      3304  TIP3      H1              7.1127415875       22.2228800614       -2.2205416866  W2        3304            0.0000000000
      9912      3304  TIP3      H2              6.4007415875       22.2474100614       -0.8847416866  W2        3304            0.0000000000
      9913      3305  TIP3      OH2             1.5503715875       18.9058300614       -5.2550216866  W2        3305            0.0000000000
      9914      3305  TIP3      H1              1.2333215875       18.0033600614       -5.2904816866  W2        3305            0.0000000000
      9915      3305  TIP3      H2              2.3317815875       18.9075700614       -5.8078616866  W2        3305            0.0000000000
      9916      3306  TIP3      OH2             5.1749915875       21.1578300614        0.7405383134  W2        3306            0.0000000000
      9917      3306  TIP3      H1              4.3395215875       21.6117800614        0.8507783134  W2        3306            0.0000000000
      9918      3306  TIP3      H2              5.6990515875       21.4336800614        1.4925283134  W2        3306            0.0000000000
      9919      3307  TIP3      OH2             5.7192515875       27.3706000614       -7.5748216866  W2        3307            0.0000000000
      9920      3307  TIP3      H1              4.9743515875       26.8631300614       -7.8970316866  W2        3307            0.0000000000
      9921      3307  TIP3      H2              5.5849715875       27.4194000614       -6.6283416866  W2        3307            0.0000000000
      9922      3308  TIP3      OH2            12.8691415875       26.5034200614        1.2119383134  W2        3308            0.0000000000
      9923      3308  TIP3      H1             13.5110215875       26.9600500614        0.6681583134  W2        3308            0.0000000000
      9924      3308  TIP3      H2             12.0388315875       26.6166600614        0.7493483134  W2        3308            0.0000000000
      9925      3309  TIP3      OH2             9.6169315875       20.1845900614       -9.3755616866  W2        3309            0.0000000000
      9926      3309  TIP3      H1              8.6783515875       20.2961500614       -9.5266816866  W2        3309            0.0000000000
      9927      3309  TIP3      H2              9.9141415875       21.0412800614       -9.0689916866  W2        3309            0.0000000000
      9928      3310  TIP3      OH2             7.2384615875       27.5549300614        3.6620883134  W2        3310            0.0000000000
      9929      3310  TIP3      H1              6.8930715875       27.1731700614        4.4690483134  W2        3310            0.0000000000
      9930      3310  TIP3      H2              7.0384715875       28.4882900614        3.7333783134  W2        3310            0.0000000000
      9931      3311  TIP3      OH2            10.3352815875       22.0518600614       -7.7148216866  W2        3311            0.0000000000
      9932      3311  TIP3      H1             11.2271815875       21.9143600614       -7.3957016866  W2        3311            0.0000000000
      9933      3311  TIP3      H2             10.3916415875       22.8424700614       -8.2514716866  W2        3311            0.0000000000
      9934      3312  TIP3      OH2             0.8440815875       26.6656000614       -1.8050316866  W2        3312            0.0000000000
      9935      3312  TIP3      H1              1.5888015875       26.6631700614       -2.4063816866  W2        3312            0.0000000000
      9936      3312  TIP3      H2              0.9217415875       25.8419800614       -1.3235216866  W2        3312            0.0000000000
      9937      3313  TIP3      OH2             7.8446615875       28.8290300614       -8.5493616866  W2        3313            0.0000000000
      9938      3313  TIP3      H1              7.5495015875       29.6558200614       -8.1678816866  W2        3313            0.0000000000
      9939      3313  TIP3      H2              7.1416615875       28.2097200614       -8.3532216866  W2        3313            0.0000000000
      9940      3314  TIP3      OH2            -2.1479484125       25.1262900614        3.5098183134  W2        3314            0.0000000000
      9941      3314  TIP3      H1             -1.9250884125       24.7082500614        4.3415683134  W2        3314            0.0000000000
      9942      3314  TIP3      H2             -2.7499384125       24.5137900614        3.0870983134  W2        3314            0.0000000000
      9943      3315  TIP3      OH2             4.8685415875       24.6432800614        5.7227883134  W2        3315            0.0000000000
      9944      3315  TIP3      H1              4.5726215875       24.4775800614        4.8276983134  W2        3315            0.0000000000
      9945      3315  TIP3      H2              5.8000615875       24.4233100614        5.7121783134  W2        3315            0.0000000000
      9946      3316  TIP3      OH2             9.4888215875       30.0164800614        3.6125883134  W2        3316            0.0000000000
      9947      3316  TIP3      H1              8.5882515875       30.1997400614        3.3449783134  W2        3316            0.0000000000
      9948      3316  TIP3      H2              9.5229315875       30.2754100614        4.5334683134  W2        3316            0.0000000000
      9949      3317  TIP3      OH2            15.2201515875       22.2612700614       -8.0201516866  W2        3317            0.0000000000
      9950      3317  TIP3      H1             14.6657815875       21.8650700614       -8.6924016866  W2        3317            0.0000000000
      9951      3317  TIP3      H2             15.3205115875       23.1717900614       -8.2978216866  W2        3317            0.0000000000
      9952      3318  TIP3      OH2            15.1833515875       28.0614400614        4.8169983134  W2        3318            0.0000000000
      9953      3318  TIP3      H1             14.3322015875       28.2998200614        4.4496383134  W2        3318            0.0000000000
      9954      3318  TIP3      H2             15.7736915875       28.0447600614        4.0637083134  W2        3318            0.0000000000
      9955      3319  TIP3      OH2            13.5153215875       31.0473100614       -7.5549416866  W2        3319            0.0000000000
      9956      3319  TIP3      H1             13.1424315875       30.2216900614       -7.2458816866  W2        3319            0.0000000000
      9957      3319  TIP3      H2             13.7926715875       30.8642500614       -8.4526016866  W2        3319            0.0000000000
      9958      3320  TIP3      OH2            10.6757115875       25.8552600614       -0.5337516866  W2        3320            0.0000000000
      9959      3320  TIP3      H1              9.7474015875       25.6234500614       -0.5608216866  W2        3320            0.0000000000
      9960      3320  TIP3      H2             11.1268215875       25.0782400614       -0.8638716866  W2        3320            0.0000000000
      9961      3321  TIP3      OH2             3.2190215875       30.1834200614       -4.4008816866  W2        3321            0.0000000000
      9962      3321  TIP3      H1              3.7462415875       30.9568600614       -4.6010016866  W2        3321            0.0000000000
      9963      3321  TIP3      H2              2.3388715875       30.4083400614       -4.7024816866  W2        3321            0.0000000000
      9964      3322  TIP3      OH2            -1.0262084125       25.0458300614       -9.8136416866  W2        3322            0.0000000000
      9965      3322  TIP3      H1             -0.4102184125       25.6725500614       -9.4341616866  W2        3322            0.0000000000
      9966      3322  TIP3      H2             -1.8879484125       25.3618100614       -9.5419916866  W2        3322            0.0000000000
      9967      3323  TIP3      OH2             4.6462515875       27.8464100614       -4.8244516866  W2        3323            0.0000000000
      9968      3323  TIP3      H1              4.4052515875       28.7718500614       -4.7829216866  W2        3323            0.0000000000
      9969      3323  TIP3      H2              3.9056115875       27.3875400614       -4.4280616866  W2        3323            0.0000000000
      9970      3324  TIP3      OH2             5.1609115875       31.9957700614        1.4906583134  W2        3324            0.0000000000
      9971      3324  TIP3      H1              5.5233815875       32.8503300614        1.2570983134  W2        3324            0.0000000000
      9972      3324  TIP3      H2              5.6924315875       31.7039300614        2.2312883134  W2        3324            0.0000000000
      9973      3325  TIP3      OH2             3.3293315875       32.8681700614       -5.2792316866  W2        3325            0.0000000000
      9974      3325  TIP3      H1              2.3793815875       32.9739100614       -5.2279016866  W2        3325            0.0000000000
      9975      3325  TIP3      H2              3.6811415875       33.6889100614       -4.9344816866  W2        3325            0.0000000000
      9976      3326  TIP3      OH2             8.7049915875       28.0948400614        1.1912183134  W2        3326            0.0000000000
      9977      3326  TIP3      H1              8.2791215875       27.8670100614        2.0176183134  W2        3326            0.0000000000
      9978      3326  TIP3      H2              9.2855715875       27.3560200614        1.0087483134  W2        3326            0.0000000000
      9979      3327  TIP3      OH2            10.9078815875       29.0238900614       -9.7348816866  W2        3327            0.0000000000
      9980      3327  TIP3      H1             11.2611915875       28.6438700614       -8.9305316866  W2        3327            0.0000000000
      9981      3327  TIP3      H2              9.9592315875       28.9303700614       -9.6479516866  W2        3327            0.0000000000
      9982      3328  TIP3      OH2            11.3634115875       32.6467900614        3.6606983134  W2        3328            0.0000000000
      9983      3328  TIP3      H1             10.7617315875       32.0910800614        3.1653283134  W2        3328            0.0000000000
      9984      3328  TIP3      H2             11.6447815875       33.3137700614        3.0344383134  W2        3328            0.0000000000
      9985      3329  TIP3      OH2            15.4113215875       33.5031400614       -9.5338616866  W2        3329            0.0000000000
      9986      3329  TIP3      H1             16.1551115875       34.0891900614       -9.6737016866  W2        3329            0.0000000000
      9987      3329  TIP3      H2             14.7171315875       34.0717200614       -9.2006216866  W2        3329            0.0000000000
      9988      3330  TIP3      OH2            -0.5139984125       19.8795600614        3.0679583134  W2        3330            0.0000000000
      9989      3330  TIP3      H1             -1.4067684125       20.2181000614        3.0003583134  W2        3330            0.0000000000
      9990      3330  TIP3      H2             -0.6127184125       19.0241700614        3.4860383134  W2        3330            0.0000000000
      9991      3331  TIP3      OH2            11.7738115875       27.6960900614       -7.5080916866  W2        3331            0.0000000000
      9992      3331  TIP3      H1             11.4965715875       26.9680200614       -6.9519816866  W2        3331            0.0000000000
      9993      3331  TIP3      H2             12.7011115875       27.8152900614       -7.3028316866  W2        3331            0.0000000000
      9994      3332  TIP3      OH2            -0.8627984125       31.6840000614        1.5028983134  W2        3332            0.0000000000
      9995      3332  TIP3      H1             -0.6457684125       30.7522400614        1.4718683134  W2        3332            0.0000000000
      9996      3332  TIP3      H2             -0.6164484125       31.9585000614        2.3861783134  W2        3332            0.0000000000
      9997      3333  TIP3      OH2             4.9986615875       30.1355000614      -11.2878816866  W2        3333            0.0000000000
      9998      3333  TIP3      H1              5.2376415875       29.3873100614      -11.8349916866  W2        3333            0.0000000000
      9999      3333  TIP3      H2              4.7297915875       29.7476700614      -10.4551016866  W2        3333            0.0000000000
     10000      3334  TIP3      OH2             3.9357215875       29.7058800614       -8.8316216866  W2        3334            0.0000000000
     10001      3334  TIP3      H1              4.0825215875       29.1858600614       -8.0415316866  W2        3334            0.0000000000
     10002      3334  TIP3      H2              3.9328915875       30.6126400614       -8.5250316866  W2        3334            0.0000000000
     10003      3335  TIP3      OH2             0.3888315875       26.9582100614       -8.3210816866  W2        3335            0.0000000000
     10004      3335  TIP3      H1             -0.2972384125       27.3104600614       -7.7541116866  W2        3335            0.0000000000
     10005      3335  TIP3      H2              0.9116215875       27.7211700614       -8.5676516866  W2        3335            0.0000000000
     10006      3336  TIP3      OH2             8.2203415875       19.6205900614        1.9578183134  W2        3336            0.0000000000
     10007      3336  TIP3      H1              8.9191315875       19.6944600614        2.6077883134  W2        3336            0.0000000000
     10008      3336  TIP3      H2              7.8394815875       18.7560900614        2.1121083134  W2        3336            0.0000000000
     10009      3337  TIP3      OH2             9.0048315875       19.2727600614       -6.9449516866  W2        3337            0.0000000000
     10010      3337  TIP3      H1              9.2246615875       19.7443000614       -7.7484116866  W2        3337            0.0000000000
     10011      3337  TIP3      H2              9.5632315875       19.6670200614       -6.2748916866  W2        3337            0.0000000000
     10012      3338  TIP3      OH2             6.6734415875       31.4032400614       -8.0822016866  W2        3338            0.0000000000
     10013      3338  TIP3      H1              5.8570515875       31.9002100614       -8.0297716866  W2        3338            0.0000000000
     10014      3338  TIP3      H2              7.2030715875       31.8785900614       -8.7223216866  W2        3338            0.0000000000
     10015      3339  TIP3      OH2             6.2048215875       21.0006400614       -6.1101116866  W2        3339            0.0000000000
     10016      3339  TIP3      H1              7.0170815875       21.5049600614       -6.0639416866  W2        3339            0.0000000000
     10017      3339  TIP3      H2              5.9601215875       20.8556100614       -5.1961516866  W2        3339            0.0000000000
     10018      3340  TIP3      OH2             6.7404615875       21.9869100614        3.0745483134  W2        3340            0.0000000000
     10019      3340  TIP3      H1              6.8594915875       22.5604500614        3.8315883134  W2        3340            0.0000000000
     10020      3340  TIP3      H2              7.3959215875       21.2988500614        3.1893283134  W2        3340            0.0000000000
     10021      3341  TIP3      OH2             7.0884915875       18.0819400614       -5.1720016866  W2        3341            0.0000000000
     10022      3341  TIP3      H1              6.7418415875       18.6990000614       -4.5275716866  W2        3341            0.0000000000
     10023      3341  TIP3      H2              7.7471815875       18.5825100614       -5.6534516866  W2        3341            0.0000000000
     10024      3342  TIP3      OH2             4.0117515875       32.4469600614       -8.1005116866  W2        3342            0.0000000000
     10025      3342  TIP3      H1              4.1726215875       33.2467100614       -8.6012516866  W2        3342            0.0000000000
     10026      3342  TIP3      H2              3.8145315875       32.7535600614       -7.2154516866  W2        3342            0.0000000000
     10027      3343  TIP3      OH2             2.7461915875       19.1448800614       -8.4847516866  W2        3343            0.0000000000
     10028      3343  TIP3      H1              2.6626715875       20.0331900614       -8.1381116866  W2        3343            0.0000000000
     10029      3343  TIP3      H2              3.6362215875       18.8795500614       -8.2530716866  W2        3343            0.0000000000
     10030      3344  TIP3      OH2            12.9450415875       19.8939400614        3.9095183134  W2        3344            0.0000000000
     10031      3344  TIP3      H1             12.0286215875       20.1561100614        3.8218883134  W2        3344            0.0000000000
     10032      3344  TIP3      H2             13.2805415875       19.8908400614        3.0130483134  W2        3344            0.0000000000
     10033      3345  TIP3      OH2            11.5471415875       23.6440400614       -1.9947516866  W2        3345            0.0000000000
     10034      3345  TIP3      H1             10.7495815875       23.2290600614       -2.3232516866  W2        3345            0.0000000000
     10035      3345  TIP3      H2             11.9922515875       22.9534100614       -1.5037016866  W2        3345            0.0000000000
     10036      3346  TIP3      OH2             1.0047215875       29.5721000614       -9.4243016866  W2        3346            0.0000000000
     10037      3346  TIP3      H1              1.5968715875       30.2715800614       -9.1480616866  W2        3346            0.0000000000
     10038      3346  TIP3      H2              1.4640215875       29.1390500614      -10.1438416866  W2        3346            0.0000000000
     10039      3347  TIP3      OH2            -0.6793584125       22.2364000614      -10.3083616866  W2        3347            0.0000000000
     10040      3347  TIP3      H1             -0.7240984125       23.1757100614      -10.1296616866  W2        3347            0.0000000000
     10041      3347  TIP3      H2             -1.5670384125       22.0008900614      -10.5781516866  W2        3347            0.0000000000
     10042      3348  TIP3      OH2            12.6336015875       32.9002900614       -0.3724016866  W2        3348            0.0000000000
     10043      3348  TIP3      H1             12.4780315875       33.5787300614       -1.0294716866  W2        3348            0.0000000000
     10044      3348  TIP3      H2             13.5662415875       32.9722200614       -0.1693416866  W2        3348            0.0000000000
     10045      3349  TIP3      OH2             0.1288415875       17.0180600614       -1.6352616866  W2        3349            0.0000000000
     10046      3349  TIP3      H1             -0.1001784125       17.0773100614       -2.5627616866  W2        3349            0.0000000000
     10047      3349  TIP3      H2             -0.3138184125       16.2266100614       -1.3288516866  W2        3349            0.0000000000
     10048      3350  TIP3      OH2            -0.9408284125       30.9587700614       -5.4746816866  W2        3350            0.0000000000
     10049      3350  TIP3      H1             -1.7729684125       31.4310400614       -5.4475416866  W2        3350            0.0000000000
     10050      3350  TIP3      H2             -0.3949984125       31.4685300614       -6.0733716866  W2        3350            0.0000000000
     10051      3351  TIP3      OH2            -1.6524584125       33.5711400614        5.8551183134  W2        3351            0.0000000000
     10052      3351  TIP3      H1             -1.1122384125       33.3545400614        6.6150383134  W2        3351            0.0000000000
     10053      3351  TIP3      H2             -2.1336584125       32.7657400614        5.6653683134  W2        3351            0.0000000000
     10054      3352  TIP3      OH2             2.9448815875       32.4905800614        7.4755383134  W2        3352            0.0000000000
     10055      3352  TIP3      H1              3.7126015875       32.0316600614        7.8164583134  W2        3352            0.0000000000
     10056      3352  TIP3      H2              2.9235015875       32.2645600614        6.5456583134  W2        3352            0.0000000000
     10057      3353  TIP3      OH2             7.0368415875       31.9986400614      -11.1492816866  W2        3353            0.0000000000
     10058      3353  TIP3      H1              6.3929415875       31.3675000614      -10.8279116866  W2        3353            0.0000000000
     10059      3353  TIP3      H2              7.7986715875       31.4674400614      -11.3809316866  W2        3353            0.0000000000
     10060      3354  TIP3      OH2             9.5217515875       30.8706900614        6.2046883134  W2        3354            0.0000000000
     10061      3354  TIP3      H1              9.1707015875       30.0139900614        6.4477283134  W2        3354            0.0000000000
     10062      3354  TIP3      H2             10.2480715875       31.0133600614        6.8115883134  W2        3354            0.0000000000
     10063      3355  TIP3      OH2            11.6411315875       31.8156300614      -10.9154816866  W2        3355            0.0000000000
     10064      3355  TIP3      H1             11.9241715875       31.0211500614      -10.4627916866  W2        3355            0.0000000000
     10065      3355  TIP3      H2             12.3809215875       32.0487300614      -11.4763716866  W2        3355            0.0000000000
     10066      3356  TIP3      OH2            -1.7455084125       27.3815500614        6.8095483134  W2        3356            0.0000000000
     10067      3356  TIP3      H1             -1.6014584125       26.4796200614        6.5232183134  W2        3356            0.0000000000
     10068      3356  TIP3      H2             -2.5177684125       27.6677600614        6.3217783134  W2        3356            0.0000000000
     10069      3357  TIP3      OH2             2.5958615875       27.7251200614      -11.0579916866  W2        3357            0.0000000000
     10070      3357  TIP3      H1              2.6602715875       26.9310800614      -10.5273516866  W2        3357            0.0000000000
     10071      3357  TIP3      H2              3.2487815875       27.6064000614      -11.7477916866  W2        3357            0.0000000000
     10072      3358  TIP3      OH2             4.9101015875       27.3513600614        6.2421883134  W2        3358            0.0000000000
     10073      3358  TIP3      H1              4.5814815875       27.6221700614        5.3849283134  W2        3358            0.0000000000
     10074      3358  TIP3      H2              5.0619215875       26.4103400614        6.1546883134  W2        3358            0.0000000000
     10075      3359  TIP3      OH2             7.9482015875       28.7722900614      -11.3221916866  W2        3359            0.0000000000
     10076      3359  TIP3      H1              7.6796115875       28.9525000614      -10.4213016866  W2        3359            0.0000000000
     10077      3359  TIP3      H2              7.7417615875       27.8469100614      -11.4536116866  W2        3359            0.0000000000
     10078      3360  TIP3      OH2            10.6446215875       27.2670900614        3.6254183134  W2        3360            0.0000000000
     10079      3360  TIP3      H1             11.3901015875       27.8554600614        3.5058183134  W2        3360            0.0000000000
     10080      3360  TIP3      H2              9.8873015875       27.8490600614        3.6887283134  W2        3360            0.0000000000
     10081      3361  TIP3      OH2            -0.9128584125       24.5818800614        6.2294783134  W2        3361            0.0000000000
     10082      3361  TIP3      H1             -0.5047384125       23.7245400614        6.1085383134  W2        3361            0.0000000000
     10083      3361  TIP3      H2             -1.1730984125       24.5960100614        7.1505083134  W2        3361            0.0000000000
     10084      3362  TIP3      OH2             3.7452415875       25.6977400614       -8.7521916866  W2        3362            0.0000000000
     10085      3362  TIP3      H1              3.2854415875       25.2135700614       -8.0663416866  W2        3362            0.0000000000
     10086      3362  TIP3      H2              4.0001115875       25.0292800614       -9.3881416866  W2        3362            0.0000000000
     10087      3363  TIP3      OH2             3.0341715875       23.5904500614        3.6037683134  W2        3363            0.0000000000
     10088      3363  TIP3      H1              2.4157815875       24.2651100614        3.8842383134  W2        3363            0.0000000000
     10089      3363  TIP3      H2              3.3782915875       23.9118400614        2.7703883134  W2        3363            0.0000000000
     10090      3364  TIP3      OH2             4.8162815875       23.9409200614      -10.4898716866  W2        3364            0.0000000000
     10091      3364  TIP3      H1              4.6357815875       23.7860400614      -11.4170416866  W2        3364            0.0000000000
     10092      3364  TIP3      H2              5.7663315875       24.0487900614      -10.4450816866  W2        3364            0.0000000000
     10093      3365  TIP3      OH2             8.0539915875       26.0619800614        6.8812483134  W2        3365            0.0000000000
     10094      3365  TIP3      H1              9.0071115875       26.1458900614        6.8538483134  W2        3365            0.0000000000
     10095      3365  TIP3      H2              7.8934515875       25.3501600614        7.5007383134  W2        3365            0.0000000000
     10096      3366  TIP3      OH2            14.2061115875       26.2953400614      -11.0440616866  W2        3366            0.0000000000
     10097      3366  TIP3      H1             13.9325915875       25.8708900614      -11.8572316866  W2        3366            0.0000000000
     10098      3366  TIP3      H2             14.2455215875       27.2267900614      -11.2610216866  W2        3366            0.0000000000
     10099      3367  TIP3      OH2             3.3735415875       20.9455300614        4.6860783134  W2        3367            0.0000000000
     10100      3367  TIP3      H1              3.5236315875       20.2166600614        4.0840483134  W2        3367            0.0000000000
     10101      3367  TIP3      H2              3.3757815875       21.7227000614        4.1272983134  W2        3367            0.0000000000
     10102      3368  TIP3      OH2             3.7861115875       19.3151100614        2.1788183134  W2        3368            0.0000000000
     10103      3368  TIP3      H1              4.3218615875       19.7667800614        1.5267483134  W2        3368            0.0000000000
     10104      3368  TIP3      H2              2.9340715875       19.2070900614        1.7562283134  W2        3368            0.0000000000
     10105      3369  TIP3      OH2             5.3679515875       24.7547300614        2.4183383134  W2        3369            0.0000000000
     10106      3369  TIP3      H1              6.1184315875       24.5984800614        1.8451183134  W2        3369            0.0000000000
     10107      3369  TIP3      H2              5.0287815875       25.6063900614        2.1428883134  W2        3369            0.0000000000
     10108      3370  TIP3      OH2             9.7835715875       22.5699100614        7.4468683134  W2        3370            0.0000000000
     10109      3370  TIP3      H1              9.9757015875       21.6388500614        7.3353183134  W2        3370            0.0000000000
     10110      3370  TIP3      H2             10.6412015875       22.9948600614        7.4364083134  W2        3370            0.0000000000
     10111      3371  TIP3      OH2            11.1002915875       25.3584300614        5.5241383134  W2        3371            0.0000000000
     10112      3371  TIP3      H1             10.8187915875       26.0678900614        4.9465183134  W2        3371            0.0000000000
     10113      3371  TIP3      H2             12.0427215875       25.2857300614        5.3732583134  W2        3371            0.0000000000
     10114      3372  TIP3      OH2             1.8521715875       22.1438800614        6.5976383134  W2        3372            0.0000000000
     10115      3372  TIP3      H1              1.0850715875       21.6113600614        6.3873983134  W2        3372            0.0000000000
     10116      3372  TIP3      H2              2.5310715875       21.8339200614        5.9982683134  W2        3372            0.0000000000
     10117      3373  TIP3      OH2             4.5916615875       16.7716800614        2.6101783134  W2        3373            0.0000000000
     10118      3373  TIP3      H1              4.4936215875       17.7180000614        2.5047983134  W2        3373            0.0000000000
     10119      3373  TIP3      H2              3.8492815875       16.3990600614        2.1345283134  W2        3373            0.0000000000
     10120      3374  TIP3      OH2             5.8557115875       21.0932200614        6.1740183134  W2        3374            0.0000000000
     10121      3374  TIP3      H1              5.6202515875       20.8738900614        7.0755083134  W2        3374            0.0000000000
     10122      3374  TIP3      H2              5.0724015875       20.8863400614        5.6642683134  W2        3374            0.0000000000
     10123      3375  TIP3      OH2             8.5713715875       20.2205700614        5.2493683134  W2        3375            0.0000000000
     10124      3375  TIP3      H1              7.6239115875       20.2525400614        5.3816983134  W2        3375            0.0000000000
     10125      3375  TIP3      H2              8.8840415875       19.5952800614        5.9031883134  W2        3375            0.0000000000
     10126      3376  TIP3      OH2            10.2055215875       18.8546800614        7.2545583134  W2        3376            0.0000000000
     10127      3376  TIP3      H1             10.1087015875       17.9024100614        7.2487483134  W2        3376            0.0000000000
     10128      3376  TIP3      H2              9.8838315875       19.1233600614        8.1151083134  W2        3376            0.0000000000
     10129      3377  TIP3      OH2             0.0324515875       20.0642600614        6.3021083134  W2        3377            0.0000000000
     10130      3377  TIP3      H1              0.2441915875       19.3578700614        5.6918583134  W2        3377            0.0000000000
     10131      3377  TIP3      H2             -0.0787984125       19.6268600614        7.1462283134  W2        3377            0.0000000000
     10132      3378  TIP3      OH2             4.8134715875       16.0654200614        5.2814583134  W2        3378            0.0000000000
     10133      3378  TIP3      H1              5.5253115875       15.4256400614        5.2673683134  W2        3378            0.0000000000
     10134      3378  TIP3      H2              4.7125115875       16.3322500614        4.3677683134  W2        3378            0.0000000000
     10135      3379  TIP3      OH2             5.1672215875       17.7482600614        7.3350883134  W2        3379            0.0000000000
     10136      3379  TIP3      H1              5.0354415875       17.2726400614        6.5149383134  W2        3379            0.0000000000
     10137      3379  TIP3      H2              4.5679615875       18.4926200614        7.2797983134  W2        3379            0.0000000000
     10138      3380  TIP3      OH2             4.7134515875       34.6312900614       -9.4885116866  W2        3380            0.0000000000
     10139      3380  TIP3      H1              5.6465215875       34.7891600614       -9.3446716866  W2        3380            0.0000000000
     10140      3380  TIP3      H2              4.4493315875       35.3065900614      -10.1133616866  W2        3380            0.0000000000
     10141      3381  TIP3      OH2            -1.7180584125       29.2676700614      -10.0057016866  W2        3381            0.0000000000
     10142      3381  TIP3      H1             -0.8041384125       29.3465600614       -9.7323116866  W2        3381            0.0000000000
     10143      3381  TIP3      H2             -1.7107484125       28.5806300614      -10.6721416866  W2        3381            0.0000000000
     10144      3382  TIP3      OH2            -3.0689984125       34.6605200614       -4.9283116866  W2        3382            0.0000000000
     10145      3382  TIP3      H1             -3.7162884125       34.1986900614       -5.4611916866  W2        3382            0.0000000000
     10146      3382  TIP3      H2             -2.7145384125       33.9888500614       -4.3456916866  W2        3382            0.0000000000
     10147      3383  TIP3      OH2            -2.1990784125       32.7412200614       -3.1236916866  W2        3383            0.0000000000
     10148      3383  TIP3      H1             -2.5333984125       31.8609500614       -2.9516716866  W2        3383            0.0000000000
     10149      3383  TIP3      H2             -1.9768384125       33.0867200614       -2.2591316866  W2        3383            0.0000000000
     10150      3384  TIP3      OH2            15.3494015875       33.5508600614       -0.1432116866  W2        3384            0.0000000000
     10151      3384  TIP3      H1             15.3280715875       33.7357000614        0.7957283134  W2        3384            0.0000000000
     10152      3384  TIP3      H2             16.0400215875       34.1192600614       -0.4840716866  W2        3384            0.0000000000
     10153      3385  TIP3      OH2            14.9126915875       33.1179700614        2.7786983134  W2        3385            0.0000000000
     10154      3385  TIP3      H1             14.4255615875       32.3823800614        2.4074383134  W2        3385            0.0000000000
     10155      3385  TIP3      H2             15.4619615875       32.7243600614        3.4566383134  W2        3385            0.0000000000
     10156      3386  TIP3      OH2            13.3634215875       28.9077800614        7.4167283134  W2        3386            0.0000000000
     10157      3386  TIP3      H1             12.4975315875       28.8027500614        7.8109583134  W2        3386            0.0000000000
     10158      3386  TIP3      H2             13.7400115875       29.6661100614        7.8631983134  W2        3386            0.0000000000
     10159      3387  TIP3      OH2            14.6643915875       27.1641500614       -7.0690216866  W2        3387            0.0000000000
     10160      3387  TIP3      H1             15.5145315875       27.5852400614       -6.9418616866  W2        3387            0.0000000000
     10161      3387  TIP3      H2             14.6699015875       26.4241600614       -6.4618816866  W2        3387            0.0000000000
     10162      3388  TIP3      OH2            15.0589515875       25.2178900614       -5.2454516866  W2        3388            0.0000000000
     10163      3388  TIP3      H1             14.3324115875       24.7381500614       -4.8476916866  W2        3388            0.0000000000
     10164      3388  TIP3      H2             15.6402815875       25.4233600614       -4.5132916866  W2        3388            0.0000000000
     10165      3389  TIP3      OH2            14.8180715875       28.0026400614       -0.2976916866  W2        3389            0.0000000000
     10166      3389  TIP3      H1             15.6514915875       27.6246400614       -0.5783316866  W2        3389            0.0000000000
     10167      3389  TIP3      H2             14.9301015875       28.9457600614       -0.4167816866  W2        3389            0.0000000000
     10168      3390  TIP3      OH2            13.3043015875       30.8803900614        2.0091483134  W2        3390            0.0000000000
     10169      3390  TIP3      H1             12.6568315875       31.2055400614        2.6346683134  W2        3390            0.0000000000
     10170      3390  TIP3      H2             12.7867015875       30.4401600614        1.3349783134  W2        3390            0.0000000000
     10171      3391  TIP3      OH2            15.3272615875       25.1187400614       -8.8543216866  W2        3391            0.0000000000
     10172      3391  TIP3      H1             14.8053715875       25.4751500614       -9.5732316866  W2        3391            0.0000000000
     10173      3391  TIP3      H2             15.2941815875       25.7935200614       -8.1762316866  W2        3391            0.0000000000
     10174      3392  TIP3      OH2            13.6761615875       22.3583000614      -10.3036116866  W2        3392            0.0000000000
     10175      3392  TIP3      H1             13.7726015875       23.0250000614      -10.9836416866  W2        3392            0.0000000000
     10176      3392  TIP3      H2             13.5361215875       21.5429300614      -10.7850616866  W2        3392            0.0000000000
     10177      3393  TIP3      OH2            12.8456315875       23.7385400614       -4.6825816866  W2        3393            0.0000000000
     10178      3393  TIP3      H1             12.6955115875       22.7934000614       -4.7028016866  W2        3393            0.0000000000
     10179      3393  TIP3      H2             12.4920815875       24.0196800614       -3.8386716866  W2        3393            0.0000000000
     10180      3394  TIP3      OH2            -2.1191284125       25.8167600614       -0.6722016866  W2        3394            0.0000000000
     10181      3394  TIP3      H1             -1.9348384125       25.7349300614       -1.6079116866  W2        3394            0.0000000000
     10182      3394  TIP3      H2             -1.2698384125       25.6924600614       -0.2485616866  W2        3394            0.0000000000
     10183      3395  TIP3      OH2            13.7019215875       25.7088700614        4.9562483134  W2        3395            0.0000000000
     10184      3395  TIP3      H1             14.2846515875       24.9741000614        5.1479683134  W2        3395            0.0000000000
     10185      3395  TIP3      H2             14.2658515875       26.4809000614        5.0028283134  W2        3395            0.0000000000
     10186      3396  TIP3      OH2            15.1986315875       23.6114500614        5.6407883134  W2        3396            0.0000000000
     10187      3396  TIP3      H1             14.3353015875       23.2326600614        5.4752583134  W2        3396            0.0000000000
     10188      3396  TIP3      H2             15.8030015875       22.8729300614        5.5663683134  W2        3396            0.0000000000
     10189      3397  TIP3      OH2            12.9235415875       19.7662800614      -11.1860616866  W2        3397            0.0000000000
     10190      3397  TIP3      H1             13.5341215875       19.3949600614      -10.5492416866  W2        3397            0.0000000000
     10191      3397  TIP3      H2             12.0866915875       19.3449700614      -10.9900616866  W2        3397            0.0000000000
     10192      3398  TIP3      OH2            12.5561115875       21.3211200614       -6.2200716866  W2        3398            0.0000000000
     10193      3398  TIP3      H1             12.8358215875       20.4141600614       -6.0959016866  W2        3398            0.0000000000
     10194      3398  TIP3      H2             13.3152815875       21.7552700614       -6.6091516866  W2        3398            0.0000000000
     10195      3399  TIP3      OH2            13.1679415875       21.9028600614       -0.7841816866  W2        3399            0.0000000000
     10196      3399  TIP3      H1             14.1007415875       22.1148500614       -0.8185816866  W2        3399            0.0000000000
     10197      3399  TIP3      H2             12.9326915875       22.0040700614        0.1381183134  W2        3399            0.0000000000
     10198      3400  TIP3      OH2            13.1971315875       22.6393900614        1.9917583134  W2        3400            0.0000000000
     10199      3400  TIP3      H1             12.3542615875       22.9074300614        2.3577383134  W2        3400            0.0000000000
     10200      3400  TIP3      H2             13.6395615875       23.4615800614        1.7808683134  W2        3400            0.0000000000
     10201      3401  TIP3      OH2            -2.5216484125       21.0872600614        5.4686783134  W2        3401            0.0000000000
     10202      3401  TIP3      H1             -1.6021584125       20.9650900614        5.7049883134  W2        3401            0.0000000000
     10203      3401  TIP3      H2             -2.9711984125       20.3372300614        5.8580283134  W2        3401            0.0000000000
     10204      3402  TIP3      OH2            15.4802915875       16.6194100614        7.3452583134  W2        3402            0.0000000000
     10205      3402  TIP3      H1             15.8299915875       15.9657600614        6.7397283134  W2        3402            0.0000000000
     10206      3402  TIP3      H2             15.6272415875       17.4568200614        6.9055183134  W2        3402            0.0000000000
     10207      3403  TIP3      OH2            13.1695915875       18.5840500614       -6.1718716866  W2        3403            0.0000000000
     10208      3403  TIP3      H1             13.3520915875       18.1352000614       -5.3463716866  W2        3403            0.0000000000
     10209      3403  TIP3      H2             12.5698815875       17.9994900614       -6.6354116866  W2        3403            0.0000000000
     10210      3404  TIP3      OH2            -1.3003984125       19.3994200614       -1.6400316866  W2        3404            0.0000000000
     10211      3404  TIP3      H1             -0.8552384125       18.6076700614       -1.3380616866  W2        3404            0.0000000000
     10212      3404  TIP3      H2             -0.8340984125       20.1159400614       -1.2094716866  W2        3404            0.0000000000
     10213      3405  TIP3      OH2            -2.9963684125       22.3987200614       -0.5710116866  W2        3405            0.0000000000
     10214      3405  TIP3      H1             -2.5043884125       22.1777700614       -1.3618116866  W2        3405            0.0000000000
     10215      3405  TIP3      H2             -2.6342784125       23.2390600614       -0.2900616866  W2        3405            0.0000000000
     10216      3406  TIP3      OH2            15.0000115875       18.7288700614        5.6943883134  W2        3406            0.0000000000
     10217      3406  TIP3      H1             14.0825815875       18.9995800614        5.6587383134  W2        3406            0.0000000000
     10218      3406  TIP3      H2             15.1229515875       18.1937100614        4.9103583134  W2        3406            0.0000000000
     10219      3407  TIP3      OH2            15.0362115875       18.6518600614       -9.6438416866  W2        3407            0.0000000000
     10220      3407  TIP3      H1             15.4484715875       17.9304300614      -10.1190416866  W2        3407            0.0000000000
     10221      3407  TIP3      H2             15.7178615875       19.3213200614       -9.5854116866  W2        3407            0.0000000000
     10222      3408  TIP3      OH2            -2.6827184125       18.6566300614       -6.5167716866  W2        3408            0.0000000000
     10223      3408  TIP3      H1             -3.6078784125       18.8652900614       -6.6462216866  W2        3408            0.0000000000
     10224      3408  TIP3      H2             -2.2287284125       19.1407100614       -7.2065416866  W2        3408            0.0000000000
     10225      3409  TIP3      OH2            12.0880015875       33.6408000614       -4.5710316866  W2        3409            0.0000000000
     10226      3409  TIP3      H1             12.7402915875       33.2930100614       -5.1791216866  W2        3409            0.0000000000
     10227      3409  TIP3      H2             12.5983815875       34.1291200614       -3.9250616866  W2        3409            0.0000000000
     10228      3410  TIP3      OH2            -2.7191784125       17.3945300614        1.8274783134  W2        3410            0.0000000000
     10229      3410  TIP3      H1             -3.3841284125       17.1485600614        2.4705683134  W2        3410            0.0000000000
     10230      3410  TIP3      H2             -3.1620484125       18.0165700614        1.2502783134  W2        3410            0.0000000000
     10231      3411  TIP3      OH2            -0.5272484125       30.5699400614        5.9720583134  W2        3411            0.0000000000
     10232      3411  TIP3      H1             -1.3479984125       30.7445900614        5.5115283134  W2        3411            0.0000000000
     10233      3411  TIP3      H2             -0.7794684125       30.4964100614        6.8924983134  W2        3411            0.0000000000
     10234      3412  TIP3      OH2             2.4270415875       31.5440600614        2.2304583134  W2        3412            0.0000000000
     10235      3412  TIP3      H1              2.0021515875       32.3539100614        1.9479183134  W2        3412            0.0000000000
     10236      3412  TIP3      H2              3.3313215875       31.6294700614        1.9284383134  W2        3412            0.0000000000
     10237      3413  TIP3      OH2             6.7381815875       32.9430600614        5.1898283134  W2        3413            0.0000000000
     10238      3413  TIP3      H1              6.9229315875       32.6096700614        6.0678583134  W2        3413            0.0000000000
     10239      3413  TIP3      H2              7.5846315875       33.2529200614        4.8677483134  W2        3413            0.0000000000
     10240      3414  TIP3      OH2             9.0832215875       34.2289500614        4.4339683134  W2        3414            0.0000000000
     10241      3414  TIP3      H1              9.7601115875       33.5961800614        4.1938883134  W2        3414            0.0000000000
     10242      3414  TIP3      H2              9.4051015875       34.6300000614        5.2412983134  W2        3414            0.0000000000
     10243      3415  TIP3      OH2            14.0006015875       16.8185000614        3.5134683134  W2        3415            0.0000000000
     10244      3415  TIP3      H1             13.1879515875       17.1435300614        3.1259383134  W2        3415            0.0000000000
     10245      3415  TIP3      H2             14.2334515875       16.0583500614        2.9803783134  W2        3415            0.0000000000
     10246      3416  TIP3      OH2            -0.1712884125       34.8004500614        2.2779883134  W2        3416            0.0000000000
     10247      3416  TIP3      H1             -0.8916484125       35.2405500614        1.8267583134  W2        3416            0.0000000000
     10248      3416  TIP3      H2             -0.5368884125       34.5499200614        3.1263883134  W2        3416            0.0000000000
     10249      3417  TIP3      OH2             2.2959715875       34.4008400614        1.3077083134  W2        3417            0.0000000000
     10250      3417  TIP3      H1              1.4311915875       34.4726900614        1.7117183134  W2        3417            0.0000000000
     10251      3417  TIP3      H2              2.2408715875       34.9475700614        0.5239583134  W2        3417            0.0000000000
     10252      3418  TIP3      OH2             7.0065315875       34.2887300614        0.4833083134  W2        3418            0.0000000000
     10253      3418  TIP3      H1              6.5499315875       34.8177000614       -0.1708516866  W2        3418            0.0000000000
     10254      3418  TIP3      H2              7.1693315875       34.8918700614        1.2085383134  W2        3418            0.0000000000
     10255      3419  TIP3      OH2             9.3341615875       33.1666900614        1.4283383134  W2        3419            0.0000000000
     10256      3419  TIP3      H1              8.4295315875       33.3317100614        1.1625483134  W2        3419            0.0000000000
     10257      3419  TIP3      H2              9.7630215875       34.0199100614        1.3626783134  W2        3419            0.0000000000
     10258      3420  TIP3      OH2            11.9383515875       34.7366000614        1.7231183134  W2        3420            0.0000000000
     10259      3420  TIP3      H1             11.7565515875       35.6524900614        1.5126083134  W2        3420            0.0000000000
     10260      3420  TIP3      H2             12.1151315875       34.3263100614        0.8765783134  W2        3420            0.0000000000
     10261      3421  TIP3      OH2            -0.7564784125       33.4237000614       -0.8118316866  W2        3421            0.0000000000
     10262      3421  TIP3      H1             -0.7748784125       32.9982100614        0.0453983134  W2        3421            0.0000000000
     10263      3421  TIP3      H2              0.0483115875       33.1052000614       -1.2206116866  W2        3421            0.0000000000
     10264      3422  TIP3      OH2             1.3848315875       32.1335700614       -2.1568416866  W2        3422            0.0000000000
     10265      3422  TIP3      H1              1.1659015875       31.2173100614       -1.9872416866  W2        3422            0.0000000000
     10266      3422  TIP3      H2              2.2090515875       32.2736100614       -1.6907016866  W2        3422            0.0000000000
     10267      3423  TIP3      OH2             3.9220815875       32.6035000614       -1.3080416866  W2        3423            0.0000000000
     10268      3423  TIP3      H1              4.1346515875       31.7154000614       -1.5949516866  W2        3423            0.0000000000
     10269      3423  TIP3      H2              3.9865915875       32.5692700614       -0.3536416866  W2        3423            0.0000000000
     10270      3424  TIP3      OH2             7.4304515875       18.2675600614       -2.1637116866  W2        3424            0.0000000000
     10271      3424  TIP3      H1              6.7561315875       17.6381200614       -1.9081316866  W2        3424            0.0000000000
     10272      3424  TIP3      H2              7.9943715875       17.7834500614       -2.7669216866  W2        3424            0.0000000000
     10273      3425  TIP3      OH2            12.5731715875       16.3749600614       -2.0510016866  W2        3425            0.0000000000
     10274      3425  TIP3      H1             13.1769315875       16.9225000614       -2.5529016866  W2        3425            0.0000000000
     10275      3425  TIP3      H2             11.7033715875       16.6940000614       -2.2915916866  W2        3425            0.0000000000
     10276      3426  TIP3      OH2            14.3002115875       17.5138300614       -3.7179116866  W2        3426            0.0000000000
     10277      3426  TIP3      H1             14.9119615875       16.9994000614       -4.2445516866  W2        3426            0.0000000000
     10278      3426  TIP3      H2             14.6825515875       18.3910400614       -3.6944716866  W2        3426            0.0000000000
     10279      3427  TIP3      OH2            -0.2427984125       16.9015900614       -4.3417216866  W2        3427            0.0000000000
     10280      3427  TIP3      H1             -1.0198184125       16.6670800614       -4.8491316866  W2        3427            0.0000000000
     10281      3427  TIP3      H2              0.2875615875       16.1048000614       -4.3329216866  W2        3427            0.0000000000
     10282      3428  TIP3      OH2            -1.4064584125       16.6994000614       -8.5381116866  W2        3428            0.0000000000
     10283      3428  TIP3      H1             -0.9673884125       17.3104500614       -9.1297616866  W2        3428            0.0000000000
     10284      3428  TIP3      H2             -2.0402184125       17.2378100614       -8.0641116866  W2        3428            0.0000000000
     10285      3429  TIP3      OH2             4.3364615875       16.8283000614       -4.5284116866  W2        3429            0.0000000000
     10286      3429  TIP3      H1              5.2108015875       17.2167300614       -4.5579816866  W2        3429            0.0000000000
     10287      3429  TIP3      H2              4.2005415875       16.6130800614       -3.6056916866  W2        3429            0.0000000000
     10288      3430  TIP3      OH2             9.8933015875       16.8582800614       -2.8792416866  W2        3430            0.0000000000
     10289      3430  TIP3      H1              9.9694615875       16.9534400614       -3.8286416866  W2        3430            0.0000000000
     10290      3430  TIP3      H2              9.6182215875       15.9505700614       -2.7503316866  W2        3430            0.0000000000
     10291      3431  TIP3      OH2            11.2465615875       16.8840600614       -7.1867416866  W2        3431            0.0000000000
     10292      3431  TIP3      H1             10.5436715875       17.4989800614       -7.3966016866  W2        3431            0.0000000000
     10293      3431  TIP3      H2             10.8017015875       16.0467300614       -7.0556516866  W2        3431            0.0000000000
     10294      3432  TIP3      OH2            -1.5055084125       32.6476200614       -7.6406016866  W2        3432            0.0000000000
     10295      3432  TIP3      H1             -2.1905184125       32.6095100614       -8.3080916866  W2        3432            0.0000000000
     10296      3432  TIP3      H2             -1.5017884125       33.5603800614       -7.3523916866  W2        3432            0.0000000000
     10297      3433  TIP3      OH2             0.4544515875       18.6155500614      -10.0957016866  W2        3433            0.0000000000
     10298      3433  TIP3      H1              0.9457915875       17.9857900614      -10.6231516866  W2        3433            0.0000000000
     10299      3433  TIP3      H2              1.0780815875       18.9114900614       -9.4325816866  W2        3433            0.0000000000
     10300      3434  TIP3      OH2             5.4804615875       18.9087000614       -7.6386516866  W2        3434            0.0000000000
     10301      3434  TIP3      H1              5.6585915875       18.2620200614       -6.9557916866  W2        3434            0.0000000000
     10302      3434  TIP3      H2              5.4270815875       19.7424700614       -7.1715416866  W2        3434            0.0000000000
     10303      3435  TIP3      OH2             7.3588415875       33.8571100614       -9.2429816866  W2        3435            0.0000000000
     10304      3435  TIP3      H1              8.2248615875       34.2238500614       -9.4211616866  W2        3435            0.0000000000
     10305      3435  TIP3      H2              7.1121215875       33.4179100614      -10.0569016866  W2        3435            0.0000000000
     10306      3436  TIP3      OH2            14.0678015875       33.4201400614       -6.5638716866  W2        3436            0.0000000000
     10307      3436  TIP3      H1             13.8735115875       32.6723500614       -7.1289116866  W2        3436            0.0000000000
     10308      3436  TIP3      H2             14.0288115875       34.1781500614       -7.1470816866  W2        3436            0.0000000000
     10309      3437  TIP3      OH2            -0.2849984125       17.4157800614        5.1758983134  W2        3437            0.0000000000
     10310      3437  TIP3      H1             -0.6511784125       16.6500400614        5.6183683134  W2        3437            0.0000000000
     10311      3437  TIP3      H2              0.6278515875       17.4448000614        5.4624083134  W2        3437            0.0000000000
     10312      3438  TIP3      OH2             1.6880815875       16.7662200614        6.7116083134  W2        3438            0.0000000000
     10313      3438  TIP3      H1              2.5864415875       16.4922400614        6.5269483134  W2        3438            0.0000000000
     10314      3438  TIP3      H2              1.3013915875       16.0238200614        7.1758683134  W2        3438            0.0000000000
     10315      3439  TIP3      OH2             0.3126115875       33.5677000614      -10.6153916866  W2        3439            0.0000000000
     10316      3439  TIP3      H1              0.0450715875       33.8539900614       -9.7420816866  W2        3439            0.0000000000
     10317      3439  TIP3      H2              1.0838715875       33.0216200614      -10.4631416866  W2        3439            0.0000000000
     10318      3440  TIP3      OH2            10.1093115875       16.0987500614        6.8938883134  W2        3440            0.0000000000
     10319      3440  TIP3      H1             10.1860315875       15.6728200614        7.7476583134  W2        3440            0.0000000000
     10320      3440  TIP3      H2             11.0029715875       16.1122200614        6.5512383134  W2        3440            0.0000000000
     10321      3441  TIP3      OH2            13.2854215875       32.1713800614        5.5863083134  W2        3441            0.0000000000
     10322      3441  TIP3      H1             12.5036115875       31.9851800614        5.0663683134  W2        3441            0.0000000000
     10323      3441  TIP3      H2             13.2134115875       33.1008100614        5.8035583134  W2        3441            0.0000000000
     10324      3442  TIP3      OH2            27.6914615875       26.0578200614       -4.3829716866  W2        3442            0.0000000000
     10325      3442  TIP3      H1             27.7805715875       27.0016400614       -4.5152616866  W2        3442            0.0000000000
     10326      3442  TIP3      H2             27.0532215875       25.7824600614       -5.0410316866  W2        3442            0.0000000000
     10327      3443  TIP3      OH2            26.6245915875       25.3128900614       -0.9641516866  W2        3443            0.0000000000
     10328      3443  TIP3      H1             26.5863415875       24.6665200614       -0.2591916866  W2        3443            0.0000000000
     10329      3443  TIP3      H2             26.3022415875       24.8463300614       -1.7352816866  W2        3443            0.0000000000
     10330      3444  TIP3      OH2            18.9930915875       24.9271000614        0.6288383134  W2        3444            0.0000000000
     10331      3444  TIP3      H1             19.0343015875       24.3014300614        1.3520783134  W2        3444            0.0000000000
     10332      3444  TIP3      H2             19.6958615875       25.5509600614        0.8108783134  W2        3444            0.0000000000
     10333      3445  TIP3      OH2            30.3306115875       28.2519300614       -2.6626416866  W2        3445            0.0000000000
     10334      3445  TIP3      H1             29.8898815875       27.5315300614       -2.2120816866  W2        3445            0.0000000000
     10335      3445  TIP3      H2             30.3175815875       28.9726500614       -2.0328716866  W2        3445            0.0000000000
     10336      3446  TIP3      OH2            19.9164015875       29.3769900614       -0.8362516866  W2        3446            0.0000000000
     10337      3446  TIP3      H1             19.5469215875       28.5750400614       -1.2058216866  W2        3446            0.0000000000
     10338      3446  TIP3      H2             20.8575115875       29.2084800614       -0.7899116866  W2        3446            0.0000000000
     10339      3447  TIP3      OH2            16.5264515875       23.0372500614       -5.4433716866  W2        3447            0.0000000000
     10340      3447  TIP3      H1             16.0787915875       23.8831200614       -5.4617216866  W2        3447            0.0000000000
     10341      3447  TIP3      H2             15.9655715875       22.4576700614       -5.9588616866  W2        3447            0.0000000000
     10342      3448  TIP3      OH2            17.2370615875       25.1992100614       -3.3175716866  W2        3448            0.0000000000
     10343      3448  TIP3      H1             17.4504115875       24.4293700614       -2.7902716866  W2        3448            0.0000000000
     10344      3448  TIP3      H2             17.9748215875       25.2888800614       -3.9208116866  W2        3448            0.0000000000
     10345      3449  TIP3      OH2            27.4421615875       33.3561000614       -2.4506016866  W2        3449            0.0000000000
     10346      3449  TIP3      H1             28.0618015875       32.6795700614       -2.7236816866  W2        3449            0.0000000000
     10347      3449  TIP3      H2             27.2339015875       33.1381800614       -1.5421116866  W2        3449            0.0000000000
     10348      3450  TIP3      OH2            25.0140315875       27.7450300614       -0.5580516866  W2        3450            0.0000000000
     10349      3450  TIP3      H1             25.3178215875       27.0591700614       -1.1526416866  W2        3450            0.0000000000
     10350      3450  TIP3      H2             25.7354315875       27.8639000614        0.0597483134  W2        3450            0.0000000000
     10351      3451  TIP3      OH2            33.6770115875       19.3465600614        0.3025683134  W2        3451            0.0000000000
     10352      3451  TIP3      H1             33.7262315875       19.9566800614        1.0384783134  W2        3451            0.0000000000
     10353      3451  TIP3      H2             34.1025215875       19.8076500614       -0.4203216866  W2        3451            0.0000000000
     10354      3452  TIP3      OH2            28.1547315875       22.1392700614       -0.2305716866  W2        3452            0.0000000000
     10355      3452  TIP3      H1             28.2973215875       21.1929700614       -0.2104116866  W2        3452            0.0000000000
     10356      3452  TIP3      H2             28.0486315875       22.3462500614       -1.1590816866  W2        3452            0.0000000000
     10357      3453  TIP3      OH2            21.3095615875       20.2409100614       -2.9580916866  W2        3453            0.0000000000
     10358      3453  TIP3      H1             21.3526715875       21.1007600614       -3.3764616866  W2        3453            0.0000000000
     10359      3453  TIP3      H2             20.8519715875       19.6883800614       -3.5917716866  W2        3453            0.0000000000
     10360      3454  TIP3      OH2            29.0318315875       20.3714700614       -4.5572616866  W2        3454            0.0000000000
     10361      3454  TIP3      H1             29.6782615875       20.0427900614       -3.9325016866  W2        3454            0.0000000000
     10362      3454  TIP3      H2             29.5417715875       20.8893700614       -5.1801216866  W2        3454            0.0000000000
     10363      3455  TIP3      OH2            17.9297115875       22.6374900614       -2.1959516866  W2        3455            0.0000000000
     10364      3455  TIP3      H1             18.5833715875       22.0876600614       -1.7639416866  W2        3455            0.0000000000
     10365      3455  TIP3      H2             17.9536415875       22.3633900614       -3.1127516866  W2        3455            0.0000000000
     10366      3456  TIP3      OH2            23.0861615875       24.1876200614       -2.9808016866  W2        3456            0.0000000000
     10367      3456  TIP3      H1             23.7022615875       23.6611600614       -2.4714016866  W2        3456            0.0000000000
     10368      3456  TIP3      H2             22.5000415875       23.5474900614       -3.3844416866  W2        3456            0.0000000000
     10369      3457  TIP3      OH2            34.0684715875       20.8244800614        2.5385483134  W2        3457            0.0000000000
     10370      3457  TIP3      H1             33.3799315875       21.4825500614        2.4432083134  W2        3457            0.0000000000
     10371      3457  TIP3      H2             34.0839315875       20.6272700614        3.4750883134  W2        3457            0.0000000000
     10372      3458  TIP3      OH2            20.1197515875       19.1587500614        1.1159883134  W2        3458            0.0000000000
     10373      3458  TIP3      H1             19.9009215875       19.6888100614        0.3495883134  W2        3458            0.0000000000
     10374      3458  TIP3      H2             19.4518415875       19.3853000614        1.7631283134  W2        3458            0.0000000000
     10375      3459  TIP3      OH2            27.4887315875       28.6588600614       -5.3401016866  W2        3459            0.0000000000
     10376      3459  TIP3      H1             27.1932415875       28.3360900614       -6.1914116866  W2        3459            0.0000000000
     10377      3459  TIP3      H2             27.1645115875       29.5585300614       -5.2988416866  W2        3459            0.0000000000
     10378      3460  TIP3      OH2            22.6888915875       26.8343200614        1.4033583134  W2        3460            0.0000000000
     10379      3460  TIP3      H1             21.9488015875       27.4324700614        1.5068783134  W2        3460            0.0000000000
     10380      3460  TIP3      H2             23.4028415875       27.3882800614        1.0877183134  W2        3460            0.0000000000
     10381      3461  TIP3      OH2            30.7956715875       19.6624000614       -2.5766716866  W2        3461            0.0000000000
     10382      3461  TIP3      H1             30.5804715875       18.8967400614       -2.0440716866  W2        3461            0.0000000000
     10383      3461  TIP3      H2             31.4514115875       20.1348600614       -2.0638216866  W2        3461            0.0000000000
     10384      3462  TIP3      OH2            19.7134815875       21.0509300614       -0.9317916866  W2        3462            0.0000000000
     10385      3462  TIP3      H1             20.3271115875       21.6836900614       -0.5585516866  W2        3462            0.0000000000
     10386      3462  TIP3      H2             20.2255515875       20.5784300614       -1.5881016866  W2        3462            0.0000000000
     10387      3463  TIP3      OH2            21.0963215875       28.7986200614        2.1905083134  W2        3463            0.0000000000
     10388      3463  TIP3      H1             21.0910815875       29.6779700614        1.8124383134  W2        3463            0.0000000000
     10389      3463  TIP3      H2             20.2427315875       28.7150300614        2.6154983134  W2        3463            0.0000000000
     10390      3464  TIP3      OH2            17.2174115875       28.4694100614       -7.0275616866  W2        3464            0.0000000000
     10391      3464  TIP3      H1             16.9455015875       28.6985100614       -7.9162716866  W2        3464            0.0000000000
     10392      3464  TIP3      H2             17.2629815875       29.3072900614       -6.5670316866  W2        3464            0.0000000000
     10393      3465  TIP3      OH2            30.8423815875       30.0910000614       -0.3147116866  W2        3465            0.0000000000
     10394      3465  TIP3      H1             29.9007515875       30.1493900614       -0.1530216866  W2        3465            0.0000000000
     10395      3465  TIP3      H2             31.1189915875       30.9970500614       -0.4517416866  W2        3465            0.0000000000
     10396      3466  TIP3      OH2            31.1430815875       18.3775300614        1.1026783134  W2        3466            0.0000000000
     10397      3466  TIP3      H1             30.4070015875       18.9882400614        1.0648083134  W2        3466            0.0000000000
     10398      3466  TIP3      H2             31.8264815875       18.7924300614        0.5763183134  W2        3466            0.0000000000
     10399      3467  TIP3      OH2            24.1462215875       16.4642600614       -1.4315216866  W2        3467            0.0000000000
     10400      3467  TIP3      H1             24.0286415875       15.5158600614       -1.4856916866  W2        3467            0.0000000000
     10401      3467  TIP3      H2             23.2912315875       16.7968700614       -1.1584116866  W2        3467            0.0000000000
     10402      3468  TIP3      OH2            29.0945015875       31.8723500614       -3.6895516866  W2        3468            0.0000000000
     10403      3468  TIP3      H1             29.5197315875       31.1651400614       -4.1745916866  W2        3468            0.0000000000
     10404      3468  TIP3      H2             29.4115015875       32.6736200614       -4.1063316866  W2        3468            0.0000000000
     10405      3469  TIP3      OH2            30.2541515875       29.7732000614       -5.1808916866  W2        3469            0.0000000000
     10406      3469  TIP3      H1             29.9966315875       29.0832100614       -5.7923016866  W2        3469            0.0000000000
     10407      3469  TIP3      H2             30.3252315875       29.3303200614       -4.3353016866  W2        3469            0.0000000000
     10408      3470  TIP3      OH2            31.9401715875       28.3398700614        3.2964583134  W2        3470            0.0000000000
     10409      3470  TIP3      H1             32.0798015875       27.7481200614        2.5571583134  W2        3470            0.0000000000
     10410      3470  TIP3      H2             32.1074515875       29.2124600614        2.9403383134  W2        3470            0.0000000000
     10411      3471  TIP3      OH2            26.4127115875       25.3018200614       -6.9309416866  W2        3471            0.0000000000
     10412      3471  TIP3      H1             25.7012615875       25.8367900614       -7.2828916866  W2        3471            0.0000000000
     10413      3471  TIP3      H2             27.1036715875       25.3570300614       -7.5910516866  W2        3471            0.0000000000
     10414      3472  TIP3      OH2            26.4666315875       23.7592500614       -9.8924416866  W2        3472            0.0000000000
     10415      3472  TIP3      H1             27.1676215875       23.7819400614       -9.2410416866  W2        3472            0.0000000000
     10416      3472  TIP3      H2             26.7689215875       23.1312200614      -10.5485116866  W2        3472            0.0000000000
     10417      3473  TIP3      OH2            33.7821015875       24.6796700614        1.3624983134  W2        3473            0.0000000000
     10418      3473  TIP3      H1             33.1295115875       25.3742300614        1.4515883134  W2        3473            0.0000000000
     10419      3473  TIP3      H2             34.2471315875       24.8897600614        0.5526583134  W2        3473            0.0000000000
     10420      3474  TIP3      OH2            29.8184815875       25.5111500614       -5.9793516866  W2        3474            0.0000000000
     10421      3474  TIP3      H1             29.0865815875       25.7395200614       -5.4062916866  W2        3474            0.0000000000
     10422      3474  TIP3      H2             30.2657015875       24.7974200614       -5.5246016866  W2        3474            0.0000000000
     10423      3475  TIP3      OH2            29.7158315875       23.6854100614        3.0883483134  W2        3475            0.0000000000
     10424      3475  TIP3      H1             29.7957415875       24.4488500614        3.6601983134  W2        3475            0.0000000000
     10425      3475  TIP3      H2             29.1146015875       23.9646500614        2.3978583134  W2        3475            0.0000000000
     10426      3476  TIP3      OH2            21.4638515875       26.1417700614       -4.0968516866  W2        3476            0.0000000000
     10427      3476  TIP3      H1             21.1333715875       25.7711100614       -4.9151516866  W2        3476            0.0000000000
     10428      3476  TIP3      H2             22.0522615875       25.4711700614       -3.7500216866  W2        3476            0.0000000000
     10429      3477  TIP3      OH2            22.8306015875       29.5698300614       -1.4156316866  W2        3477            0.0000000000
     10430      3477  TIP3      H1             22.7357315875       28.9911400614       -2.1721716866  W2        3477            0.0000000000
     10431      3477  TIP3      H2             23.5599615875       29.1984000614       -0.9193516866  W2        3477            0.0000000000
     10432      3478  TIP3      OH2            21.8304015875       24.9103300614       -0.4633516866  W2        3478            0.0000000000
     10433      3478  TIP3      H1             22.3956515875       25.0317500614       -1.2262316866  W2        3478            0.0000000000
     10434      3478  TIP3      H2             22.1492915875       25.5478300614        0.1754983134  W2        3478            0.0000000000
     10435      3479  TIP3      OH2            28.1396215875       30.4135200614        0.2706983134  W2        3479            0.0000000000
     10436      3479  TIP3      H1             27.8992815875       31.0758300614        0.9186183134  W2        3479            0.0000000000
     10437      3479  TIP3      H2             27.9414415875       29.5790400614        0.6956583134  W2        3479            0.0000000000
     10438      3480  TIP3      OH2            22.7104715875       29.3096000614        4.2538383134  W2        3480            0.0000000000
     10439      3480  TIP3      H1             22.3992215875       30.0919200614        4.7091583134  W2        3480            0.0000000000
     10440      3480  TIP3      H2             22.0604915875       29.1565100614        3.5680383134  W2        3480            0.0000000000
     10441      3481  TIP3      OH2            28.6894315875       24.6734400614       -8.2942316866  W2        3481            0.0000000000
     10442      3481  TIP3      H1             29.2689815875       24.8234700614       -7.5473416866  W2        3481            0.0000000000
     10443      3481  TIP3      H2             29.1034315875       25.1441800614       -9.0175916866  W2        3481            0.0000000000
     10444      3482  TIP3      OH2            19.6304615875       25.5077100614        3.4824083134  W2        3482            0.0000000000
     10445      3482  TIP3      H1             19.7007815875       26.1583900614        4.1809083134  W2        3482            0.0000000000
     10446      3482  TIP3      H2             18.7396815875       25.6104600614        3.1474983134  W2        3482            0.0000000000
     10447      3483  TIP3      OH2            26.4159215875       31.4102900614       -4.8589216866  W2        3483            0.0000000000
     10448      3483  TIP3      H1             26.8896815875       31.7059200614       -4.0815016866  W2        3483            0.0000000000
     10449      3483  TIP3      H2             25.8528515875       32.1484500614       -5.0919616866  W2        3483            0.0000000000
     10450      3484  TIP3      OH2            20.9500615875       31.3811000614        5.0172183134  W2        3484            0.0000000000
     10451      3484  TIP3      H1             20.9575915875       31.2450700614        4.0697683134  W2        3484            0.0000000000
     10452      3484  TIP3      H2             20.0341015875       31.2639100614        5.2692183134  W2        3484            0.0000000000
     10453      3485  TIP3      OH2            32.3882715875       16.4234800614       -8.4812616866  W2        3485            0.0000000000
     10454      3485  TIP3      H1             31.4883415875       16.5623800614       -8.1862016866  W2        3485            0.0000000000
     10455      3485  TIP3      H2             32.6401115875       17.2549400614       -8.8830916866  W2        3485            0.0000000000
     10456      3486  TIP3      OH2            20.4541215875       25.2112000614       -6.5075716866  W2        3486            0.0000000000
     10457      3486  TIP3      H1             20.1622515875       25.9793700614       -6.9984416866  W2        3486            0.0000000000
     10458      3486  TIP3      H2             19.7796415875       24.5518200614       -6.6704316866  W2        3486            0.0000000000
     10459      3487  TIP3      OH2            33.5774115875       30.7897200614      -10.1048716866  W2        3487            0.0000000000
     10460      3487  TIP3      H1             33.6507615875       31.7287400614       -9.9343416866  W2        3487            0.0000000000
     10461      3487  TIP3      H2             34.4829215875       30.4845800614      -10.1611416866  W2        3487            0.0000000000
     10462      3488  TIP3      OH2            16.5471315875       27.5741200614        2.3074083134  W2        3488            0.0000000000
     10463      3488  TIP3      H1             16.0459715875       27.5460600614        1.4923783134  W2        3488            0.0000000000
     10464      3488  TIP3      H2             16.5525015875       26.6684400614        2.6171383134  W2        3488            0.0000000000
     10465      3489  TIP3      OH2            16.2974015875       30.3545000614       -0.8085716866  W2        3489            0.0000000000
     10466      3489  TIP3      H1             17.2434615875       30.2102000614       -0.8276216866  W2        3489            0.0000000000
     10467      3489  TIP3      H2             16.1850315875       31.1387800614       -0.2714516866  W2        3489            0.0000000000
     10468      3490  TIP3      OH2            34.4952515875       31.0204700614        4.8737983134  W2        3490            0.0000000000
     10469      3490  TIP3      H1             34.4459315875       30.0652800614        4.8365583134  W2        3490            0.0000000000
     10470      3490  TIP3      H2             33.6684815875       31.2880000614        5.2751783134  W2        3490            0.0000000000
     10471      3491  TIP3      OH2            25.4736515875       30.5943900614        3.7499383134  W2        3491            0.0000000000
     10472      3491  TIP3      H1             25.5611115875       31.4208500614        4.2248483134  W2        3491            0.0000000000
     10473      3491  TIP3      H2             24.6101615875       30.2647700614        3.9988683134  W2        3491            0.0000000000
     10474      3492  TIP3      OH2            25.8882315875       34.3667600614       -6.4440016866  W2        3492            0.0000000000
     10475      3492  TIP3      H1             25.8128315875       34.2454800614       -7.3904816866  W2        3492            0.0000000000
     10476      3492  TIP3      H2             25.9211015875       35.3160300614       -6.3255416866  W2        3492            0.0000000000
     10477      3493  TIP3      OH2            19.5416115875       33.1554600614       -4.6631016866  W2        3493            0.0000000000
     10478      3493  TIP3      H1             19.6936515875       32.8075000614       -3.7844516866  W2        3493            0.0000000000
     10479      3493  TIP3      H2             18.6906515875       32.7991900614       -4.9183816866  W2        3493            0.0000000000
     10480      3494  TIP3      OH2            28.9898315875       33.5207800614       -9.4417616866  W2        3494            0.0000000000
     10481      3494  TIP3      H1             29.3646715875       32.7763900614       -9.9125016866  W2        3494            0.0000000000
     10482      3494  TIP3      H2             28.9942015875       33.2508400614       -8.5234316866  W2        3494            0.0000000000
     10483      3495  TIP3      OH2            28.6586415875       33.4464900614       -6.6925416866  W2        3495            0.0000000000
     10484      3495  TIP3      H1             27.7236215875       33.5466800614       -6.5138416866  W2        3495            0.0000000000
     10485      3495  TIP3      H2             28.9388315875       32.7370900614       -6.1142216866  W2        3495            0.0000000000
     10486      3496  TIP3      OH2            31.6472315875       22.5137200614        5.3540183134  W2        3496            0.0000000000
     10487      3496  TIP3      H1             31.2399115875       22.9942800614        4.6333483134  W2        3496            0.0000000000
     10488      3496  TIP3      H2             31.6878015875       21.6083200614        5.0460983134  W2        3496            0.0000000000
     10489      3497  TIP3      OH2            18.7961815875       28.8976600614        3.3506883134  W2        3497            0.0000000000
     10490      3497  TIP3      H1             19.0123115875       28.5362200614        4.2102683134  W2        3497            0.0000000000
     10491      3497  TIP3      H2             17.9406515875       28.5230400614        3.1410383134  W2        3497            0.0000000000
     10492      3498  TIP3      OH2            21.4149815875       17.3677100614       -0.6538916866  W2        3498            0.0000000000
     10493      3498  TIP3      H1             20.5533515875       17.2805300614       -1.0616016866  W2        3498            0.0000000000
     10494      3498  TIP3      H2             21.3925515875       18.2237200614       -0.2261316866  W2        3498            0.0000000000
     10495      3499  TIP3      OH2            26.0777615875       17.0897500614        2.7208083134  W2        3499            0.0000000000
     10496      3499  TIP3      H1             26.4980715875       16.6744600614        3.4738683134  W2        3499            0.0000000000
     10497      3499  TIP3      H2             25.1447215875       16.9110800614        2.8380083134  W2        3499            0.0000000000
     10498      3500  TIP3      OH2            29.4042515875       20.8452700614        3.5742583134  W2        3500            0.0000000000
     10499      3500  TIP3      H1             28.8902015875       20.7194900614        4.3718583134  W2        3500            0.0000000000
     10500      3500  TIP3      H2             29.2487215875       21.7575800614        3.3298783134  W2        3500            0.0000000000
     10501      3501  TIP3      OH2            30.1667415875       25.7062700614      -10.6644416866  W2        3501            0.0000000000
     10502      3501  TIP3      H1             30.2088215875       25.4836600614      -11.5944416866  W2        3501            0.0000000000
     10503      3501  TIP3      H2             31.0159515875       26.1049800614      -10.4744516866  W2        3501            0.0000000000
     10504      3502  TIP3      OH2            25.7394915875       19.5820900614       -9.9941116866  W2        3502            0.0000000000
     10505      3502  TIP3      H1             25.4859715875       19.6012500614       -9.0713016866  W2        3502            0.0000000000
     10506      3502  TIP3      H2             25.4827015875       18.7106300614      -10.2954916866  W2        3502            0.0000000000
     10507      3503  TIP3      OH2            21.5059915875       22.3331600614        0.4411283134  W2        3503            0.0000000000
     10508      3503  TIP3      H1             20.8642015875       22.2928900614        1.1501383134  W2        3503            0.0000000000
     10509      3503  TIP3      H2             21.5431915875       23.2596300614        0.2034283134  W2        3503            0.0000000000
     10510      3504  TIP3      OH2            21.5029015875       22.5541700614       -4.6468716866  W2        3504            0.0000000000
     10511      3504  TIP3      H1             20.6101915875       22.2137800614       -4.7054916866  W2        3504            0.0000000000
     10512      3504  TIP3      H2             21.9535615875       22.1772600614       -5.4025516866  W2        3504            0.0000000000
     10513      3505  TIP3      OH2            27.0384515875       22.9702000614       -5.8297916866  W2        3505            0.0000000000
     10514      3505  TIP3      H1             26.6294815875       23.7850600614       -6.1213116866  W2        3505            0.0000000000
     10515      3505  TIP3      H2             27.7590715875       22.8302100614       -6.4440816866  W2        3505            0.0000000000
     10516      3506  TIP3      OH2            26.1406115875       23.1458400614        5.6582783134  W2        3506            0.0000000000
     10517      3506  TIP3      H1             25.5779915875       22.4410000614        5.9790583134  W2        3506            0.0000000000
     10518      3506  TIP3      H2             26.9669515875       23.0250300614        6.1260383134  W2        3506            0.0000000000
     10519      3507  TIP3      OH2            28.0432215875       22.4162400614       -3.0158216866  W2        3507            0.0000000000
     10520      3507  TIP3      H1             27.8476715875       23.0219200614       -3.7307616866  W2        3507            0.0000000000
     10521      3507  TIP3      H2             28.2244815875       21.5827600614       -3.4501916866  W2        3507            0.0000000000
     10522      3508  TIP3      OH2            19.2560415875       22.6535100614        2.3083283134  W2        3508            0.0000000000
     10523      3508  TIP3      H1             19.2179815875       23.0536700614        3.1770383134  W2        3508            0.0000000000
     10524      3508  TIP3      H2             18.7651515875       21.8367500614        2.3986183134  W2        3508            0.0000000000
     10525      3509  TIP3      OH2            22.6217815875       20.0277400614      -10.8930716866  W2        3509            0.0000000000
     10526      3509  TIP3      H1             22.1908515875       19.5827500614      -10.1633316866  W2        3509            0.0000000000
     10527      3509  TIP3      H2             21.9036515875       20.3993700614      -11.4053216866  W2        3509            0.0000000000
     10528      3510  TIP3      OH2            15.8641215875       19.7696900614       -3.8412016866  W2        3510            0.0000000000
     10529      3510  TIP3      H1             16.4948915875       19.7409000614       -3.1218116866  W2        3510            0.0000000000
     10530      3510  TIP3      H2             16.3135515875       19.3445600614       -4.5716116866  W2        3510            0.0000000000
     10531      3511  TIP3      OH2            17.1383315875       20.5158900614       -8.4171616866  W2        3511            0.0000000000
     10532      3511  TIP3      H1             17.6125015875       21.1068800614       -9.0020716866  W2        3511            0.0000000000
     10533      3511  TIP3      H2             16.4209715875       21.0461800614       -8.0701516866  W2        3511            0.0000000000
     10534      3512  TIP3      OH2            27.3071415875       24.0543700614        1.6554183134  W2        3512            0.0000000000
     10535      3512  TIP3      H1             27.6306215875       23.4233400614        1.0124683134  W2        3512            0.0000000000
     10536      3512  TIP3      H2             26.8670715875       23.5195900614        2.3161583134  W2        3512            0.0000000000
     10537      3513  TIP3      OH2            24.0844315875       19.9819200614       -3.5604616866  W2        3513            0.0000000000
     10538      3513  TIP3      H1             23.1735415875       20.0386000614       -3.2718616866  W2        3513            0.0000000000
     10539      3513  TIP3      H2             24.5897215875       19.9214700614       -2.7497416866  W2        3513            0.0000000000
     10540      3514  TIP3      OH2            18.9127715875       21.6105500614       -4.7337016866  W2        3514            0.0000000000
     10541      3514  TIP3      H1             18.0235715875       21.7101000614       -5.0737416866  W2        3514            0.0000000000
     10542      3514  TIP3      H2             19.2092615875       20.7688500614       -5.0799116866  W2        3514            0.0000000000
     10543      3515  TIP3      OH2            22.5659515875       21.6108100614       -7.0772416866  W2        3515            0.0000000000
     10544      3515  TIP3      H1             23.4975015875       21.7398100614       -6.8989316866  W2        3515            0.0000000000
     10545      3515  TIP3      H2             22.3509815875       22.2802400614       -7.7267716866  W2        3515            0.0000000000
     10546      3516  TIP3      OH2            28.4896215875       19.2165500614       -0.2962816866  W2        3516            0.0000000000
     10547      3516  TIP3      H1             27.8127815875       19.3478600614        0.3676883134  W2        3516            0.0000000000
     10548      3516  TIP3      H2             28.0041115875       19.0615000614       -1.1065116866  W2        3516            0.0000000000
     10549      3517  TIP3      OH2            21.2399715875       22.8050300614       -9.5106316866  W2        3517            0.0000000000
     10550      3517  TIP3      H1             20.6974815875       22.4254100614      -10.2018716866  W2        3517            0.0000000000
     10551      3517  TIP3      H2             22.0734615875       22.9995000614       -9.9392216866  W2        3517            0.0000000000
     10552      3518  TIP3      OH2            31.7771315875       34.8880900614        5.9804783134  W2        3518            0.0000000000
     10553      3518  TIP3      H1             31.9770015875       35.3122800614        5.1460083134  W2        3518            0.0000000000
     10554      3518  TIP3      H2             32.4325015875       35.2319100614        6.5875183134  W2        3518            0.0000000000
     10555      3519  TIP3      OH2            19.3751115875       27.3622200614        5.5885283134  W2        3519            0.0000000000
     10556      3519  TIP3      H1             20.1073515875       27.6168100614        6.1499783134  W2        3519            0.0000000000
     10557      3519  TIP3      H2             18.5949815875       27.5667600614        6.1040683134  W2        3519            0.0000000000
     10558      3520  TIP3      OH2            25.4044015875       22.7692200614       -1.6735016866  W2        3520            0.0000000000
     10559      3520  TIP3      H1             25.9687415875       22.2228800614       -2.2205416866  W2        3520            0.0000000000
     10560      3520  TIP3      H2             25.2567415875       22.2474100614       -0.8847416866  W2        3520            0.0000000000
     10561      3521  TIP3      OH2            20.4063715875       18.9058300614       -5.2550216866  W2        3521            0.0000000000
     10562      3521  TIP3      H1             20.0893215875       18.0033600614       -5.2904816866  W2        3521            0.0000000000
     10563      3521  TIP3      H2             21.1877815875       18.9075700614       -5.8078616866  W2        3521            0.0000000000
     10564      3522  TIP3      OH2            24.0309915875       21.1578300614        0.7405383134  W2        3522            0.0000000000
     10565      3522  TIP3      H1             23.1955215875       21.6117800614        0.8507783134  W2        3522            0.0000000000
     10566      3522  TIP3      H2             24.5550515875       21.4336800614        1.4925283134  W2        3522            0.0000000000
     10567      3523  TIP3      OH2            24.5752515875       27.3706000614       -7.5748216866  W2        3523            0.0000000000
     10568      3523  TIP3      H1             23.8303515875       26.8631300614       -7.8970316866  W2        3523            0.0000000000
     10569      3523  TIP3      H2             24.4409715875       27.4194000614       -6.6283416866  W2        3523            0.0000000000
     10570      3524  TIP3      OH2            31.7251415875       26.5034200614        1.2119383134  W2        3524            0.0000000000
     10571      3524  TIP3      H1             32.3670215875       26.9600500614        0.6681583134  W2        3524            0.0000000000
     10572      3524  TIP3      H2             30.8948315875       26.6166600614        0.7493483134  W2        3524            0.0000000000
     10573      3525  TIP3      OH2            28.4729315875       20.1845900614       -9.3755616866  W2        3525            0.0000000000
     10574      3525  TIP3      H1             27.5343515875       20.2961500614       -9.5266816866  W2        3525            0.0000000000
     10575      3525  TIP3      H2             28.7701415875       21.0412800614       -9.0689916866  W2        3525            0.0000000000
     10576      3526  TIP3      OH2            26.0944615875       27.5549300614        3.6620883134  W2        3526            0.0000000000
     10577      3526  TIP3      H1             25.7490715875       27.1731700614        4.4690483134  W2        3526            0.0000000000
     10578      3526  TIP3      H2             25.8944715875       28.4882900614        3.7333783134  W2        3526            0.0000000000
     10579      3527  TIP3      OH2            29.1912815875       22.0518600614       -7.7148216866  W2        3527            0.0000000000
     10580      3527  TIP3      H1             30.0831815875       21.9143600614       -7.3957016866  W2        3527            0.0000000000
     10581      3527  TIP3      H2             29.2476415875       22.8424700614       -8.2514716866  W2        3527            0.0000000000
     10582      3528  TIP3      OH2            19.7000815875       26.6656000614       -1.8050316866  W2        3528            0.0000000000
     10583      3528  TIP3      H1             20.4448015875       26.6631700614       -2.4063816866  W2        3528            0.0000000000
     10584      3528  TIP3      H2             19.7777415875       25.8419800614       -1.3235216866  W2        3528            0.0000000000
     10585      3529  TIP3      OH2            26.7006615875       28.8290300614       -8.5493616866  W2        3529            0.0000000000
     10586      3529  TIP3      H1             26.4055015875       29.6558200614       -8.1678816866  W2        3529            0.0000000000
     10587      3529  TIP3      H2             25.9976615875       28.2097200614       -8.3532216866  W2        3529            0.0000000000
     10588      3530  TIP3      OH2            16.7080515875       25.1262900614        3.5098183134  W2        3530            0.0000000000
     10589      3530  TIP3      H1             16.9309115875       24.7082500614        4.3415683134  W2        3530            0.0000000000
     10590      3530  TIP3      H2             16.1060615875       24.5137900614        3.0870983134  W2        3530            0.0000000000
     10591      3531  TIP3      OH2            23.7245415875       24.6432800614        5.7227883134  W2        3531            0.0000000000
     10592      3531  TIP3      H1             23.4286215875       24.4775800614        4.8276983134  W2        3531            0.0000000000
     10593      3531  TIP3      H2             24.6560615875       24.4233100614        5.7121783134  W2        3531            0.0000000000
     10594      3532  TIP3      OH2            28.3448215875       30.0164800614        3.6125883134  W2        3532            0.0000000000
     10595      3532  TIP3      H1             27.4442515875       30.1997400614        3.3449783134  W2        3532            0.0000000000
     10596      3532  TIP3      H2             28.3789315875       30.2754100614        4.5334683134  W2        3532            0.0000000000
     10597      3533  TIP3      OH2            34.0761515875       22.2612700614       -8.0201516866  W2        3533            0.0000000000
     10598      3533  TIP3      H1             33.5217815875       21.8650700614       -8.6924016866  W2        3533            0.0000000000
     10599      3533  TIP3      H2             34.1765115875       23.1717900614       -8.2978216866  W2        3533            0.0000000000
     10600      3534  TIP3      OH2            34.0393515875       28.0614400614        4.8169983134  W2        3534            0.0000000000
     10601      3534  TIP3      H1             33.1882015875       28.2998200614        4.4496383134  W2        3534            0.0000000000
     10602      3534  TIP3      H2             34.6296915875       28.0447600614        4.0637083134  W2        3534            0.0000000000
     10603      3535  TIP3      OH2            32.3713215875       31.0473100614       -7.5549416866  W2        3535            0.0000000000
     10604      3535  TIP3      H1             31.9984315875       30.2216900614       -7.2458816866  W2        3535            0.0000000000
     10605      3535  TIP3      H2             32.6486715875       30.8642500614       -8.4526016866  W2        3535            0.0000000000
     10606      3536  TIP3      OH2            29.5317115875       25.8552600614       -0.5337516866  W2        3536            0.0000000000
     10607      3536  TIP3      H1             28.6034015875       25.6234500614       -0.5608216866  W2        3536            0.0000000000
     10608      3536  TIP3      H2             29.9828215875       25.0782400614       -0.8638716866  W2        3536            0.0000000000
     10609      3537  TIP3      OH2            22.0750215875       30.1834200614       -4.4008816866  W2        3537            0.0000000000
     10610      3537  TIP3      H1             22.6022415875       30.9568600614       -4.6010016866  W2        3537            0.0000000000
     10611      3537  TIP3      H2             21.1948715875       30.4083400614       -4.7024816866  W2        3537            0.0000000000
     10612      3538  TIP3      OH2            17.8297915875       25.0458300614       -9.8136416866  W2        3538            0.0000000000
     10613      3538  TIP3      H1             18.4457815875       25.6725500614       -9.4341616866  W2        3538            0.0000000000
     10614      3538  TIP3      H2             16.9680515875       25.3618100614       -9.5419916866  W2        3538            0.0000000000
     10615      3539  TIP3      OH2            23.5022515875       27.8464100614       -4.8244516866  W2        3539            0.0000000000
     10616      3539  TIP3      H1             23.2612515875       28.7718500614       -4.7829216866  W2        3539            0.0000000000
     10617      3539  TIP3      H2             22.7616115875       27.3875400614       -4.4280616866  W2        3539            0.0000000000
     10618      3540  TIP3      OH2            24.0169115875       31.9957700614        1.4906583134  W2        3540            0.0000000000
     10619      3540  TIP3      H1             24.3793815875       32.8503300614        1.2570983134  W2        3540            0.0000000000
     10620      3540  TIP3      H2             24.5484315875       31.7039300614        2.2312883134  W2        3540            0.0000000000
     10621      3541  TIP3      OH2            22.1853315875       32.8681700614       -5.2792316866  W2        3541            0.0000000000
     10622      3541  TIP3      H1             21.2353815875       32.9739100614       -5.2279016866  W2        3541            0.0000000000
     10623      3541  TIP3      H2             22.5371415875       33.6889100614       -4.9344816866  W2        3541            0.0000000000
     10624      3542  TIP3      OH2            27.5609915875       28.0948400614        1.1912183134  W2        3542            0.0000000000
     10625      3542  TIP3      H1             27.1351215875       27.8670100614        2.0176183134  W2        3542            0.0000000000
     10626      3542  TIP3      H2             28.1415715875       27.3560200614        1.0087483134  W2        3542            0.0000000000
     10627      3543  TIP3      OH2            29.7638815875       29.0238900614       -9.7348816866  W2        3543            0.0000000000
     10628      3543  TIP3      H1             30.1171915875       28.6438700614       -8.9305316866  W2        3543            0.0000000000
     10629      3543  TIP3      H2             28.8152315875       28.9303700614       -9.6479516866  W2        3543            0.0000000000
     10630      3544  TIP3      OH2            30.2194115875       32.6467900614        3.6606983134  W2        3544            0.0000000000
     10631      3544  TIP3      H1             29.6177315875       32.0910800614        3.1653283134  W2        3544            0.0000000000
     10632      3544  TIP3      H2             30.5007815875       33.3137700614        3.0344383134  W2        3544            0.0000000000
     10633      3545  TIP3      OH2            34.2673215875       33.5031400614       -9.5338616866  W2        3545            0.0000000000
     10634      3545  TIP3      H1             35.0111115875       34.0891900614       -9.6737016866  W2        3545            0.0000000000
     10635      3545  TIP3      H2             33.5731315875       34.0717200614       -9.2006216866  W2        3545            0.0000000000
     10636      3546  TIP3      OH2            18.3420015875       19.8795600614        3.0679583134  W2        3546            0.0000000000
     10637      3546  TIP3      H1             17.4492315875       20.2181000614        3.0003583134  W2        3546            0.0000000000
     10638      3546  TIP3      H2             18.2432815875       19.0241700614        3.4860383134  W2        3546            0.0000000000
     10639      3547  TIP3      OH2            30.6298115875       27.6960900614       -7.5080916866  W2        3547            0.0000000000
     10640      3547  TIP3      H1             30.3525715875       26.9680200614       -6.9519816866  W2        3547            0.0000000000
     10641      3547  TIP3      H2             31.5571115875       27.8152900614       -7.3028316866  W2        3547            0.0000000000
     10642      3548  TIP3      OH2            17.9932015875       31.6840000614        1.5028983134  W2        3548            0.0000000000
     10643      3548  TIP3      H1             18.2102315875       30.7522400614        1.4718683134  W2        3548            0.0000000000
     10644      3548  TIP3      H2             18.2395515875       31.9585000614        2.3861783134  W2        3548            0.0000000000
     10645      3549  TIP3      OH2            23.8546615875       30.1355000614      -11.2878816866  W2        3549            0.0000000000
     10646      3549  TIP3      H1             24.0936415875       29.3873100614      -11.8349916866  W2        3549            0.0000000000
     10647      3549  TIP3      H2             23.5857915875       29.7476700614      -10.4551016866  W2        3549            0.0000000000
     10648      3550  TIP3      OH2            22.7917215875       29.7058800614       -8.8316216866  W2        3550            0.0000000000
     10649      3550  TIP3      H1             22.9385215875       29.1858600614       -8.0415316866  W2        3550            0.0000000000
     10650      3550  TIP3      H2             22.7888915875       30.6126400614       -8.5250316866  W2        3550            0.0000000000
     10651      3551  TIP3      OH2            19.2448315875       26.9582100614       -8.3210816866  W2        3551            0.0000000000
     10652      3551  TIP3      H1             18.5587615875       27.3104600614       -7.7541116866  W2        3551            0.0000000000
     10653      3551  TIP3      H2             19.7676215875       27.7211700614       -8.5676516866  W2        3551            0.0000000000
     10654      3552  TIP3      OH2            27.0763415875       19.6205900614        1.9578183134  W2        3552            0.0000000000
     10655      3552  TIP3      H1             27.7751315875       19.6944600614        2.6077883134  W2        3552            0.0000000000
     10656      3552  TIP3      H2             26.6954815875       18.7560900614        2.1121083134  W2        3552            0.0000000000
     10657      3553  TIP3      OH2            27.8608315875       19.2727600614       -6.9449516866  W2        3553            0.0000000000
     10658      3553  TIP3      H1             28.0806615875       19.7443000614       -7.7484116866  W2        3553            0.0000000000
     10659      3553  TIP3      H2             28.4192315875       19.6670200614       -6.2748916866  W2        3553            0.0000000000
     10660      3554  TIP3      OH2            25.5294415875       31.4032400614       -8.0822016866  W2        3554            0.0000000000
     10661      3554  TIP3      H1             24.7130515875       31.9002100614       -8.0297716866  W2        3554            0.0000000000
     10662      3554  TIP3      H2             26.0590715875       31.8785900614       -8.7223216866  W2        3554            0.0000000000
     10663      3555  TIP3      OH2            25.0608215875       21.0006400614       -6.1101116866  W2        3555            0.0000000000
     10664      3555  TIP3      H1             25.8730815875       21.5049600614       -6.0639416866  W2        3555            0.0000000000
     10665      3555  TIP3      H2             24.8161215875       20.8556100614       -5.1961516866  W2        3555            0.0000000000
     10666      3556  TIP3      OH2            25.5964615875       21.9869100614        3.0745483134  W2        3556            0.0000000000
     10667      3556  TIP3      H1             25.7154915875       22.5604500614        3.8315883134  W2        3556            0.0000000000
     10668      3556  TIP3      H2             26.2519215875       21.2988500614        3.1893283134  W2        3556            0.0000000000
     10669      3557  TIP3      OH2            25.9444915875       18.0819400614       -5.1720016866  W2        3557            0.0000000000
     10670      3557  TIP3      H1             25.5978415875       18.6990000614       -4.5275716866  W2        3557            0.0000000000
     10671      3557  TIP3      H2             26.6031815875       18.5825100614       -5.6534516866  W2        3557            0.0000000000
     10672      3558  TIP3      OH2            22.8677515875       32.4469600614       -8.1005116866  W2        3558            0.0000000000
     10673      3558  TIP3      H1             23.0286215875       33.2467100614       -8.6012516866  W2        3558            0.0000000000
     10674      3558  TIP3      H2             22.6705315875       32.7535600614       -7.2154516866  W2        3558            0.0000000000
     10675      3559  TIP3      OH2            21.6021915875       19.1448800614       -8.4847516866  W2        3559            0.0000000000
     10676      3559  TIP3      H1             21.5186715875       20.0331900614       -8.1381116866  W2        3559            0.0000000000
     10677      3559  TIP3      H2             22.4922215875       18.8795500614       -8.2530716866  W2        3559            0.0000000000
     10678      3560  TIP3      OH2            31.8010415875       19.8939400614        3.9095183134  W2        3560            0.0000000000
     10679      3560  TIP3      H1             30.8846215875       20.1561100614        3.8218883134  W2        3560            0.0000000000
     10680      3560  TIP3      H2             32.1365415875       19.8908400614        3.0130483134  W2        3560            0.0000000000
     10681      3561  TIP3      OH2            30.4031415875       23.6440400614       -1.9947516866  W2        3561            0.0000000000
     10682      3561  TIP3      H1             29.6055815875       23.2290600614       -2.3232516866  W2        3561            0.0000000000
     10683      3561  TIP3      H2             30.8482515875       22.9534100614       -1.5037016866  W2        3561            0.0000000000
     10684      3562  TIP3      OH2            19.8607215875       29.5721000614       -9.4243016866  W2        3562            0.0000000000
     10685      3562  TIP3      H1             20.4528715875       30.2715800614       -9.1480616866  W2        3562            0.0000000000
     10686      3562  TIP3      H2             20.3200215875       29.1390500614      -10.1438416866  W2        3562            0.0000000000
     10687      3563  TIP3      OH2            18.1766415875       22.2364000614      -10.3083616866  W2        3563            0.0000000000
     10688      3563  TIP3      H1             18.1319015875       23.1757100614      -10.1296616866  W2        3563            0.0000000000
     10689      3563  TIP3      H2             17.2889615875       22.0008900614      -10.5781516866  W2        3563            0.0000000000
     10690      3564  TIP3      OH2            31.4896015875       32.9002900614       -0.3724016866  W2        3564            0.0000000000
     10691      3564  TIP3      H1             31.3340315875       33.5787300614       -1.0294716866  W2        3564            0.0000000000
     10692      3564  TIP3      H2             32.4222415875       32.9722200614       -0.1693416866  W2        3564            0.0000000000
     10693      3565  TIP3      OH2            18.9848415875       17.0180600614       -1.6352616866  W2        3565            0.0000000000
     10694      3565  TIP3      H1             18.7558215875       17.0773100614       -2.5627616866  W2        3565            0.0000000000
     10695      3565  TIP3      H2             18.5421815875       16.2266100614       -1.3288516866  W2        3565            0.0000000000
     10696      3566  TIP3      OH2            17.9151715875       30.9587700614       -5.4746816866  W2        3566            0.0000000000
     10697      3566  TIP3      H1             17.0830315875       31.4310400614       -5.4475416866  W2        3566            0.0000000000
     10698      3566  TIP3      H2             18.4610015875       31.4685300614       -6.0733716866  W2        3566            0.0000000000
     10699      3567  TIP3      OH2            17.2035415875       33.5711400614        5.8551183134  W2        3567            0.0000000000
     10700      3567  TIP3      H1             17.7437615875       33.3545400614        6.6150383134  W2        3567            0.0000000000
     10701      3567  TIP3      H2             16.7223415875       32.7657400614        5.6653683134  W2        3567            0.0000000000
     10702      3568  TIP3      OH2            21.8008815875       32.4905800614        7.4755383134  W2        3568            0.0000000000
     10703      3568  TIP3      H1             22.5686015875       32.0316600614        7.8164583134  W2        3568            0.0000000000
     10704      3568  TIP3      H2             21.7795015875       32.2645600614        6.5456583134  W2        3568            0.0000000000
     10705      3569  TIP3      OH2            25.8928415875       31.9986400614      -11.1492816866  W2        3569            0.0000000000
     10706      3569  TIP3      H1             25.2489415875       31.3675000614      -10.8279116866  W2        3569            0.0000000000
     10707      3569  TIP3      H2             26.6546715875       31.4674400614      -11.3809316866  W2        3569            0.0000000000
     10708      3570  TIP3      OH2            28.3777515875       30.8706900614        6.2046883134  W2        3570            0.0000000000
     10709      3570  TIP3      H1             28.0267015875       30.0139900614        6.4477283134  W2        3570            0.0000000000
     10710      3570  TIP3      H2             29.1040715875       31.0133600614        6.8115883134  W2        3570            0.0000000000
     10711      3571  TIP3      OH2            30.4971315875       31.8156300614      -10.9154816866  W2        3571            0.0000000000
     10712      3571  TIP3      H1             30.7801715875       31.0211500614      -10.4627916866  W2        3571            0.0000000000
     10713      3571  TIP3      H2             31.2369215875       32.0487300614      -11.4763716866  W2        3571            0.0000000000
     10714      3572  TIP3      OH2            17.1104915875       27.3815500614        6.8095483134  W2        3572            0.0000000000
     10715      3572  TIP3      H1             17.2545415875       26.4796200614        6.5232183134  W2        3572            0.0000000000
     10716      3572  TIP3      H2             16.3382315875       27.6677600614        6.3217783134  W2        3572            0.0000000000
     10717      3573  TIP3      OH2            21.4518615875       27.7251200614      -11.0579916866  W2        3573            0.0000000000
     10718      3573  TIP3      H1             21.5162715875       26.9310800614      -10.5273516866  W2        3573            0.0000000000
     10719      3573  TIP3      H2             22.1047815875       27.6064000614      -11.7477916866  W2        3573            0.0000000000
     10720      3574  TIP3      OH2            23.7661015875       27.3513600614        6.2421883134  W2        3574            0.0000000000
     10721      3574  TIP3      H1             23.4374815875       27.6221700614        5.3849283134  W2        3574            0.0000000000
     10722      3574  TIP3      H2             23.9179215875       26.4103400614        6.1546883134  W2        3574            0.0000000000
     10723      3575  TIP3      OH2            26.8042015875       28.7722900614      -11.3221916866  W2        3575            0.0000000000
     10724      3575  TIP3      H1             26.5356115875       28.9525000614      -10.4213016866  W2        3575            0.0000000000
     10725      3575  TIP3      H2             26.5977615875       27.8469100614      -11.4536116866  W2        3575            0.0000000000
     10726      3576  TIP3      OH2            29.5006215875       27.2670900614        3.6254183134  W2        3576            0.0000000000
     10727      3576  TIP3      H1             30.2461015875       27.8554600614        3.5058183134  W2        3576            0.0000000000
     10728      3576  TIP3      H2             28.7433015875       27.8490600614        3.6887283134  W2        3576            0.0000000000
     10729      3577  TIP3      OH2            17.9431415875       24.5818800614        6.2294783134  W2        3577            0.0000000000
     10730      3577  TIP3      H1             18.3512615875       23.7245400614        6.1085383134  W2        3577            0.0000000000
     10731      3577  TIP3      H2             17.6829015875       24.5960100614        7.1505083134  W2        3577            0.0000000000
     10732      3578  TIP3      OH2            22.6012415875       25.6977400614       -8.7521916866  W2        3578            0.0000000000
     10733      3578  TIP3      H1             22.1414415875       25.2135700614       -8.0663416866  W2        3578            0.0000000000
     10734      3578  TIP3      H2             22.8561115875       25.0292800614       -9.3881416866  W2        3578            0.0000000000
     10735      3579  TIP3      OH2            21.8901715875       23.5904500614        3.6037683134  W2        3579            0.0000000000
     10736      3579  TIP3      H1             21.2717815875       24.2651100614        3.8842383134  W2        3579            0.0000000000
     10737      3579  TIP3      H2             22.2342915875       23.9118400614        2.7703883134  W2        3579            0.0000000000
     10738      3580  TIP3      OH2            23.6722815875       23.9409200614      -10.4898716866  W2        3580            0.0000000000
     10739      3580  TIP3      H1             23.4917815875       23.7860400614      -11.4170416866  W2        3580            0.0000000000
     10740      3580  TIP3      H2             24.6223315875       24.0487900614      -10.4450816866  W2        3580            0.0000000000
     10741      3581  TIP3      OH2            26.9099915875       26.0619800614        6.8812483134  W2        3581            0.0000000000
     10742      3581  TIP3      H1             27.8631115875       26.1458900614        6.8538483134  W2        3581            0.0000000000
     10743      3581  TIP3      H2             26.7494515875       25.3501600614        7.5007383134  W2        3581            0.0000000000
     10744      3582  TIP3      OH2            33.0621115875       26.2953400614      -11.0440616866  W2        3582            0.0000000000
     10745      3582  TIP3      H1             32.7885915875       25.8708900614      -11.8572316866  W2        3582            0.0000000000
     10746      3582  TIP3      H2             33.1015215875       27.2267900614      -11.2610216866  W2        3582            0.0000000000
     10747      3583  TIP3      OH2            22.2295415875       20.9455300614        4.6860783134  W2        3583            0.0000000000
     10748      3583  TIP3      H1             22.3796315875       20.2166600614        4.0840483134  W2        3583            0.0000000000
     10749      3583  TIP3      H2             22.2317815875       21.7227000614        4.1272983134  W2        3583            0.0000000000
     10750      3584  TIP3      OH2            22.6421115875       19.3151100614        2.1788183134  W2        3584            0.0000000000
     10751      3584  TIP3      H1             23.1778615875       19.7667800614        1.5267483134  W2        3584            0.0000000000
     10752      3584  TIP3      H2             21.7900715875       19.2070900614        1.7562283134  W2        3584            0.0000000000
     10753      3585  TIP3      OH2            24.2239515875       24.7547300614        2.4183383134  W2        3585            0.0000000000
     10754      3585  TIP3      H1             24.9744315875       24.5984800614        1.8451183134  W2        3585            0.0000000000
     10755      3585  TIP3      H2             23.8847815875       25.6063900614        2.1428883134  W2        3585            0.0000000000
     10756      3586  TIP3      OH2            28.6395715875       22.5699100614        7.4468683134  W2        3586            0.0000000000
     10757      3586  TIP3      H1             28.8317015875       21.6388500614        7.3353183134  W2        3586            0.0000000000
     10758      3586  TIP3      H2             29.4972015875       22.9948600614        7.4364083134  W2        3586            0.0000000000
     10759      3587  TIP3      OH2            29.9562915875       25.3584300614        5.5241383134  W2        3587            0.0000000000
     10760      3587  TIP3      H1             29.6747915875       26.0678900614        4.9465183134  W2        3587            0.0000000000
     10761      3587  TIP3      H2             30.8987215875       25.2857300614        5.3732583134  W2        3587            0.0000000000
     10762      3588  TIP3      OH2            20.7081715875       22.1438800614        6.5976383134  W2        3588            0.0000000000
     10763      3588  TIP3      H1             19.9410715875       21.6113600614        6.3873983134  W2        3588            0.0000000000
     10764      3588  TIP3      H2             21.3870715875       21.8339200614        5.9982683134  W2        3588            0.0000000000
     10765      3589  TIP3      OH2            23.4476615875       16.7716800614        2.6101783134  W2        3589            0.0000000000
     10766      3589  TIP3      H1             23.3496215875       17.7180000614        2.5047983134  W2        3589            0.0000000000
     10767      3589  TIP3      H2             22.7052815875       16.3990600614        2.1345283134  W2        3589            0.0000000000
     10768      3590  TIP3      OH2            24.7117115875       21.0932200614        6.1740183134  W2        3590            0.0000000000
     10769      3590  TIP3      H1             24.4762515875       20.8738900614        7.0755083134  W2        3590            0.0000000000
     10770      3590  TIP3      H2             23.9284015875       20.8863400614        5.6642683134  W2        3590            0.0000000000
     10771      3591  TIP3      OH2            27.4273715875       20.2205700614        5.2493683134  W2        3591            0.0000000000
     10772      3591  TIP3      H1             26.4799115875       20.2525400614        5.3816983134  W2        3591            0.0000000000
     10773      3591  TIP3      H2             27.7400415875       19.5952800614        5.9031883134  W2        3591            0.0000000000
     10774      3592  TIP3      OH2            29.0615215875       18.8546800614        7.2545583134  W2        3592            0.0000000000
     10775      3592  TIP3      H1             28.9647015875       17.9024100614        7.2487483134  W2        3592            0.0000000000
     10776      3592  TIP3      H2             28.7398315875       19.1233600614        8.1151083134  W2        3592            0.0000000000
     10777      3593  TIP3      OH2            18.8884515875       20.0642600614        6.3021083134  W2        3593            0.0000000000
     10778      3593  TIP3      H1             19.1001915875       19.3578700614        5.6918583134  W2        3593            0.0000000000
     10779      3593  TIP3      H2             18.7772015875       19.6268600614        7.1462283134  W2        3593            0.0000000000
     10780      3594  TIP3      OH2            23.6694715875       16.0654200614        5.2814583134  W2        3594            0.0000000000
     10781      3594  TIP3      H1             24.3813115875       15.4256400614        5.2673683134  W2        3594            0.0000000000
     10782      3594  TIP3      H2             23.5685115875       16.3322500614        4.3677683134  W2        3594            0.0000000000
     10783      3595  TIP3      OH2            24.0232215875       17.7482600614        7.3350883134  W2        3595            0.0000000000
     10784      3595  TIP3      H1             23.8914415875       17.2726400614        6.5149383134  W2        3595            0.0000000000
     10785      3595  TIP3      H2             23.4239615875       18.4926200614        7.2797983134  W2        3595            0.0000000000
     10786      3596  TIP3      OH2            23.5694515875       34.6312900614       -9.4885116866  W2        3596            0.0000000000
     10787      3596  TIP3      H1             24.5025215875       34.7891600614       -9.3446716866  W2        3596            0.0000000000
     10788      3596  TIP3      H2             23.3053315875       35.3065900614      -10.1133616866  W2        3596            0.0000000000
     10789      3597  TIP3      OH2            17.1379415875       29.2676700614      -10.0057016866  W2        3597            0.0000000000
     10790      3597  TIP3      H1             18.0518615875       29.3465600614       -9.7323116866  W2        3597            0.0000000000
     10791      3597  TIP3      H2             17.1452515875       28.5806300614      -10.6721416866  W2        3597            0.0000000000
     10792      3598  TIP3      OH2            15.7870015875       34.6605200614       -4.9283116866  W2        3598            0.0000000000
     10793      3598  TIP3      H1             15.1397115875       34.1986900614       -5.4611916866  W2        3598            0.0000000000
     10794      3598  TIP3      H2             16.1414615875       33.9888500614       -4.3456916866  W2        3598            0.0000000000
     10795      3599  TIP3      OH2            16.6569215875       32.7412200614       -3.1236916866  W2        3599            0.0000000000
     10796      3599  TIP3      H1             16.3226015875       31.8609500614       -2.9516716866  W2        3599            0.0000000000
     10797      3599  TIP3      H2             16.8791615875       33.0867200614       -2.2591316866  W2        3599            0.0000000000
     10798      3600  TIP3      OH2            34.2054015875       33.5508600614       -0.1432116866  W2        3600            0.0000000000
     10799      3600  TIP3      H1             34.1840715875       33.7357000614        0.7957283134  W2        3600            0.0000000000
     10800      3600  TIP3      H2             34.8960215875       34.1192600614       -0.4840716866  W2        3600            0.0000000000
     10801      3601  TIP3      OH2            33.7686915875       33.1179700614        2.7786983134  W2        3601            0.0000000000
     10802      3601  TIP3      H1             33.2815615875       32.3823800614        2.4074383134  W2        3601            0.0000000000
     10803      3601  TIP3      H2             34.3179615875       32.7243600614        3.4566383134  W2        3601            0.0000000000
     10804      3602  TIP3      OH2            32.2194215875       28.9077800614        7.4167283134  W2        3602            0.0000000000
     10805      3602  TIP3      H1             31.3535315875       28.8027500614        7.8109583134  W2        3602            0.0000000000
     10806      3602  TIP3      H2             32.5960115875       29.6661100614        7.8631983134  W2        3602            0.0000000000
     10807      3603  TIP3      OH2            33.5203915875       27.1641500614       -7.0690216866  W2        3603            0.0000000000
     10808      3603  TIP3      H1             34.3705315875       27.5852400614       -6.9418616866  W2        3603            0.0000000000
     10809      3603  TIP3      H2             33.5259015875       26.4241600614       -6.4618816866  W2        3603            0.0000000000
     10810      3604  TIP3      OH2            33.9149515875       25.2178900614       -5.2454516866  W2        3604            0.0000000000
     10811      3604  TIP3      H1             33.1884115875       24.7381500614       -4.8476916866  W2        3604            0.0000000000
     10812      3604  TIP3      H2             34.4962815875       25.4233600614       -4.5132916866  W2        3604            0.0000000000
     10813      3605  TIP3      OH2            33.6740715875       28.0026400614       -0.2976916866  W2        3605            0.0000000000
     10814      3605  TIP3      H1             34.5074915875       27.6246400614       -0.5783316866  W2        3605            0.0000000000
     10815      3605  TIP3      H2             33.7861015875       28.9457600614       -0.4167816866  W2        3605            0.0000000000
     10816      3606  TIP3      OH2            32.1603015875       30.8803900614        2.0091483134  W2        3606            0.0000000000
     10817      3606  TIP3      H1             31.5128315875       31.2055400614        2.6346683134  W2        3606            0.0000000000
     10818      3606  TIP3      H2             31.6427015875       30.4401600614        1.3349783134  W2        3606            0.0000000000
     10819      3607  TIP3      OH2            34.1832615875       25.1187400614       -8.8543216866  W2        3607            0.0000000000
     10820      3607  TIP3      H1             33.6613715875       25.4751500614       -9.5732316866  W2        3607            0.0000000000
     10821      3607  TIP3      H2             34.1501815875       25.7935200614       -8.1762316866  W2        3607            0.0000000000
     10822      3608  TIP3      OH2            32.5321615875       22.3583000614      -10.3036116866  W2        3608            0.0000000000
     10823      3608  TIP3      H1             32.6286015875       23.0250000614      -10.9836416866  W2        3608            0.0000000000
     10824      3608  TIP3      H2             32.3921215875       21.5429300614      -10.7850616866  W2        3608            0.0000000000
     10825      3609  TIP3      OH2            31.7016315875       23.7385400614       -4.6825816866  W2        3609            0.0000000000
     10826      3609  TIP3      H1             31.5515115875       22.7934000614       -4.7028016866  W2        3609            0.0000000000
     10827      3609  TIP3      H2             31.3480815875       24.0196800614       -3.8386716866  W2        3609            0.0000000000
     10828      3610  TIP3      OH2            16.7368715875       25.8167600614       -0.6722016866  W2        3610            0.0000000000
     10829      3610  TIP3      H1             16.9211615875       25.7349300614       -1.6079116866  W2        3610            0.0000000000
     10830      3610  TIP3      H2             17.5861615875       25.6924600614       -0.2485616866  W2        3610            0.0000000000
     10831      3611  TIP3      OH2            32.5579215875       25.7088700614        4.9562483134  W2        3611            0.0000000000
     10832      3611  TIP3      H1             33.1406515875       24.9741000614        5.1479683134  W2        3611            0.0000000000
     10833      3611  TIP3      H2             33.1218515875       26.4809000614        5.0028283134  W2        3611            0.0000000000
     10834      3612  TIP3      OH2            34.0546315875       23.6114500614        5.6407883134  W2        3612            0.0000000000
     10835      3612  TIP3      H1             33.1913015875       23.2326600614        5.4752583134  W2        3612            0.0000000000
     10836      3612  TIP3      H2             34.6590015875       22.8729300614        5.5663683134  W2        3612            0.0000000000
     10837      3613  TIP3      OH2            31.7795415875       19.7662800614      -11.1860616866  W2        3613            0.0000000000
     10838      3613  TIP3      H1             32.3901215875       19.3949600614      -10.5492416866  W2        3613            0.0000000000
     10839      3613  TIP3      H2             30.9426915875       19.3449700614      -10.9900616866  W2        3613            0.0000000000
     10840      3614  TIP3      OH2            31.4121115875       21.3211200614       -6.2200716866  W2        3614            0.0000000000
     10841      3614  TIP3      H1             31.6918215875       20.4141600614       -6.0959016866  W2        3614            0.0000000000
     10842      3614  TIP3      H2             32.1712815875       21.7552700614       -6.6091516866  W2        3614            0.0000000000
     10843      3615  TIP3      OH2            32.0239415875       21.9028600614       -0.7841816866  W2        3615            0.0000000000
     10844      3615  TIP3      H1             32.9567415875       22.1148500614       -0.8185816866  W2        3615            0.0000000000
     10845      3615  TIP3      H2             31.7886915875       22.0040700614        0.1381183134  W2        3615            0.0000000000
     10846      3616  TIP3      OH2            32.0531315875       22.6393900614        1.9917583134  W2        3616            0.0000000000
     10847      3616  TIP3      H1             31.2102615875       22.9074300614        2.3577383134  W2        3616            0.0000000000
     10848      3616  TIP3      H2             32.4955615875       23.4615800614        1.7808683134  W2        3616            0.0000000000
     10849      3617  TIP3      OH2            16.3343515875       21.0872600614        5.4686783134  W2        3617            0.0000000000
     10850      3617  TIP3      H1             17.2538415875       20.9650900614        5.7049883134  W2        3617            0.0000000000
     10851      3617  TIP3      H2             15.8848015875       20.3372300614        5.8580283134  W2        3617            0.0000000000
     10852      3618  TIP3      OH2            34.3362915875       16.6194100614        7.3452583134  W2        3618            0.0000000000
     10853      3618  TIP3      H1             34.6859915875       15.9657600614        6.7397283134  W2        3618            0.0000000000
     10854      3618  TIP3      H2             34.4832415875       17.4568200614        6.9055183134  W2        3618            0.0000000000
     10855      3619  TIP3      OH2            32.0255915875       18.5840500614       -6.1718716866  W2        3619            0.0000000000
     10856      3619  TIP3      H1             32.2080915875       18.1352000614       -5.3463716866  W2        3619            0.0000000000
     10857      3619  TIP3      H2             31.4258815875       17.9994900614       -6.6354116866  W2        3619            0.0000000000
     10858      3620  TIP3      OH2            17.5556015875       19.3994200614       -1.6400316866  W2        3620            0.0000000000
     10859      3620  TIP3      H1             18.0007615875       18.6076700614       -1.3380616866  W2        3620            0.0000000000
     10860      3620  TIP3      H2             18.0219015875       20.1159400614       -1.2094716866  W2        3620            0.0000000000
     10861      3621  TIP3      OH2            15.8596315875       22.3987200614       -0.5710116866  W2        3621            0.0000000000
     10862      3621  TIP3      H1             16.3516115875       22.1777700614       -1.3618116866  W2        3621            0.0000000000
     10863      3621  TIP3      H2             16.2217215875       23.2390600614       -0.2900616866  W2        3621            0.0000000000
     10864      3622  TIP3      OH2            33.8560115875       18.7288700614        5.6943883134  W2        3622            0.0000000000
     10865      3622  TIP3      H1             32.9385815875       18.9995800614        5.6587383134  W2        3622            0.0000000000
     10866      3622  TIP3      H2             33.9789515875       18.1937100614        4.9103583134  W2        3622            0.0000000000
     10867      3623  TIP3      OH2            33.8922115875       18.6518600614       -9.6438416866  W2        3623            0.0000000000
     10868      3623  TIP3      H1             34.3044715875       17.9304300614      -10.1190416866  W2        3623            0.0000000000
     10869      3623  TIP3      H2             34.5738615875       19.3213200614       -9.5854116866  W2        3623            0.0000000000
     10870      3624  TIP3      OH2            16.1732815875       18.6566300614       -6.5167716866  W2        3624            0.0000000000
     10871      3624  TIP3      H1             15.2481215875       18.8652900614       -6.6462216866  W2        3624            0.0000000000
     10872      3624  TIP3      H2             16.6272715875       19.1407100614       -7.2065416866  W2        3624            0.0000000000
     10873      3625  TIP3      OH2            30.9440015875       33.6408000614       -4.5710316866  W2        3625            0.0000000000
     10874      3625  TIP3      H1             31.5962915875       33.2930100614       -5.1791216866  W2        3625            0.0000000000
     10875      3625  TIP3      H2             31.4543815875       34.1291200614       -3.9250616866  W2        3625            0.0000000000
     10876      3626  TIP3      OH2            16.1368215875       17.3945300614        1.8274783134  W2        3626            0.0000000000
     10877      3626  TIP3      H1             15.4718715875       17.1485600614        2.4705683134  W2        3626            0.0000000000
     10878      3626  TIP3      H2             15.6939515875       18.0165700614        1.2502783134  W2        3626            0.0000000000
     10879      3627  TIP3      OH2            18.3287515875       30.5699400614        5.9720583134  W2        3627            0.0000000000
     10880      3627  TIP3      H1             17.5080015875       30.7445900614        5.5115283134  W2        3627            0.0000000000
     10881      3627  TIP3      H2             18.0765315875       30.4964100614        6.8924983134  W2        3627            0.0000000000
     10882      3628  TIP3      OH2            21.2830415875       31.5440600614        2.2304583134  W2        3628            0.0000000000
     10883      3628  TIP3      H1             20.8581515875       32.3539100614        1.9479183134  W2        3628            0.0000000000
     10884      3628  TIP3      H2             22.1873215875       31.6294700614        1.9284383134  W2        3628            0.0000000000
     10885      3629  TIP3      OH2            25.5941815875       32.9430600614        5.1898283134  W2        3629            0.0000000000
     10886      3629  TIP3      H1             25.7789315875       32.6096700614        6.0678583134  W2        3629            0.0000000000
     10887      3629  TIP3      H2             26.4406315875       33.2529200614        4.8677483134  W2        3629            0.0000000000
     10888      3630  TIP3      OH2            27.9392215875       34.2289500614        4.4339683134  W2        3630            0.0000000000
     10889      3630  TIP3      H1             28.6161115875       33.5961800614        4.1938883134  W2        3630            0.0000000000
     10890      3630  TIP3      H2             28.2611015875       34.6300000614        5.2412983134  W2        3630            0.0000000000
     10891      3631  TIP3      OH2            32.8566015875       16.8185000614        3.5134683134  W2        3631            0.0000000000
     10892      3631  TIP3      H1             32.0439515875       17.1435300614        3.1259383134  W2        3631            0.0000000000
     10893      3631  TIP3      H2             33.0894515875       16.0583500614        2.9803783134  W2        3631            0.0000000000
     10894      3632  TIP3      OH2            18.6847115875       34.8004500614        2.2779883134  W2        3632            0.0000000000
     10895      3632  TIP3      H1             17.9643515875       35.2405500614        1.8267583134  W2        3632            0.0000000000
     10896      3632  TIP3      H2             18.3191115875       34.5499200614        3.1263883134  W2        3632            0.0000000000
     10897      3633  TIP3      OH2            21.1519715875       34.4008400614        1.3077083134  W2        3633            0.0000000000
     10898      3633  TIP3      H1             20.2871915875       34.4726900614        1.7117183134  W2        3633            0.0000000000
     10899      3633  TIP3      H2             21.0968715875       34.9475700614        0.5239583134  W2        3633            0.0000000000
     10900      3634  TIP3      OH2            25.8625315875       34.2887300614        0.4833083134  W2        3634            0.0000000000
     10901      3634  TIP3      H1             25.4059315875       34.8177000614       -0.1708516866  W2        3634            0.0000000000
     10902      3634  TIP3      H2             26.0253315875       34.8918700614        1.2085383134  W2        3634            0.0000000000
     10903      3635  TIP3      OH2            28.1901615875       33.1666900614        1.4283383134  W2        3635            0.0000000000
     10904      3635  TIP3      H1             27.2855315875       33.3317100614        1.1625483134  W2        3635            0.0000000000
     10905      3635  TIP3      H2             28.6190215875       34.0199100614        1.3626783134  W2        3635            0.0000000000
     10906      3636  TIP3      OH2            30.7943515875       34.7366000614        1.7231183134  W2        3636            0.0000000000
     10907      3636  TIP3      H1             30.6125515875       35.6524900614        1.5126083134  W2        3636            0.0000000000
     10908      3636  TIP3      H2             30.9711315875       34.3263100614        0.8765783134  W2        3636            0.0000000000
     10909      3637  TIP3      OH2            18.0995215875       33.4237000614       -0.8118316866  W2        3637            0.0000000000
     10910      3637  TIP3      H1             18.0811215875       32.9982100614        0.0453983134  W2        3637            0.0000000000
     10911      3637  TIP3      H2             18.9043115875       33.1052000614       -1.2206116866  W2        3637            0.0000000000
     10912      3638  TIP3      OH2            20.2408315875       32.1335700614       -2.1568416866  W2        3638            0.0000000000
     10913      3638  TIP3      H1             20.0219015875       31.2173100614       -1.9872416866  W2        3638            0.0000000000
     10914      3638  TIP3      H2             21.0650515875       32.2736100614       -1.6907016866  W2        3638            0.0000000000
     10915      3639  TIP3      OH2            22.7780815875       32.6035000614       -1.3080416866  W2        3639            0.0000000000
     10916      3639  TIP3      H1             22.9906515875       31.7154000614       -1.5949516866  W2        3639            0.0000000000
     10917      3639  TIP3      H2             22.8425915875       32.5692700614       -0.3536416866  W2        3639            0.0000000000
     10918      3640  TIP3      OH2            26.2864515875       18.2675600614       -2.1637116866  W2        3640            0.0000000000
     10919      3640  TIP3      H1             25.6121315875       17.6381200614       -1.9081316866  W2        3640            0.0000000000
     10920      3640  TIP3      H2             26.8503715875       17.7834500614       -2.7669216866  W2        3640            0.0000000000
     10921      3641  TIP3      OH2            31.4291715875       16.3749600614       -2.0510016866  W2        3641            0.0000000000
     10922      3641  TIP3      H1             32.0329315875       16.9225000614       -2.5529016866  W2        3641            0.0000000000
     10923      3641  TIP3      H2             30.5593715875       16.6940000614       -2.2915916866  W2        3641            0.0000000000
     10924      3642  TIP3      OH2            33.1562115875       17.5138300614       -3.7179116866  W2        3642            0.0000000000
     10925      3642  TIP3      H1             33.7679615875       16.9994000614       -4.2445516866  W2        3642            0.0000000000
     10926      3642  TIP3      H2             33.5385515875       18.3910400614       -3.6944716866  W2        3642            0.0000000000
     10927      3643  TIP3      OH2            18.6132015875       16.9015900614       -4.3417216866  W2        3643            0.0000000000
     10928      3643  TIP3      H1             17.8361815875       16.6670800614       -4.8491316866  W2        3643            0.0000000000
     10929      3643  TIP3      H2             19.1435615875       16.1048000614       -4.3329216866  W2        3643            0.0000000000
     10930      3644  TIP3      OH2            17.4495415875       16.6994000614       -8.5381116866  W2        3644            0.0000000000
     10931      3644  TIP3      H1             17.8886115875       17.3104500614       -9.1297616866  W2        3644            0.0000000000
     10932      3644  TIP3      H2             16.8157815875       17.2378100614       -8.0641116866  W2        3644            0.0000000000
     10933      3645  TIP3      OH2            23.1924615875       16.8283000614       -4.5284116866  W2        3645            0.0000000000
     10934      3645  TIP3      H1             24.0668015875       17.2167300614       -4.5579816866  W2        3645            0.0000000000
     10935      3645  TIP3      H2             23.0565415875       16.6130800614       -3.6056916866  W2        3645            0.0000000000
     10936      3646  TIP3      OH2            28.7493015875       16.8582800614       -2.8792416866  W2        3646            0.0000000000
     10937      3646  TIP3      H1             28.8254615875       16.9534400614       -3.8286416866  W2        3646            0.0000000000
     10938      3646  TIP3      H2             28.4742215875       15.9505700614       -2.7503316866  W2        3646            0.0000000000
     10939      3647  TIP3      OH2            30.1025615875       16.8840600614       -7.1867416866  W2        3647            0.0000000000
     10940      3647  TIP3      H1             29.3996715875       17.4989800614       -7.3966016866  W2        3647            0.0000000000
     10941      3647  TIP3      H2             29.6577015875       16.0467300614       -7.0556516866  W2        3647            0.0000000000
     10942      3648  TIP3      OH2            17.3504915875       32.6476200614       -7.6406016866  W2        3648            0.0000000000
     10943      3648  TIP3      H1             16.6654815875       32.6095100614       -8.3080916866  W2        3648            0.0000000000
     10944      3648  TIP3      H2             17.3542115875       33.5603800614       -7.3523916866  W2        3648            0.0000000000
     10945      3649  TIP3      OH2            19.3104515875       18.6155500614      -10.0957016866  W2        3649            0.0000000000
     10946      3649  TIP3      H1             19.8017915875       17.9857900614      -10.6231516866  W2        3649            0.0000000000
     10947      3649  TIP3      H2             19.9340815875       18.9114900614       -9.4325816866  W2        3649            0.0000000000
     10948      3650  TIP3      OH2            24.3364615875       18.9087000614       -7.6386516866  W2        3650            0.0000000000
     10949      3650  TIP3      H1             24.5145915875       18.2620200614       -6.9557916866  W2        3650            0.0000000000
     10950      3650  TIP3      H2             24.2830815875       19.7424700614       -7.1715416866  W2        3650            0.0000000000
     10951      3651  TIP3      OH2            26.2148415875       33.8571100614       -9.2429816866  W2        3651            0.0000000000
     10952      3651  TIP3      H1             27.0808615875       34.2238500614       -9.4211616866  W2        3651            0.0000000000
     10953      3651  TIP3      H2             25.9681215875       33.4179100614      -10.0569016866  W2        3651            0.0000000000
     10954      3652  TIP3      OH2            32.9238015875       33.4201400614       -6.5638716866  W2        3652            0.0000000000
     10955      3652  TIP3      H1             32.7295115875       32.6723500614       -7.1289116866  W2        3652            0.0000000000
     10956      3652  TIP3      H2             32.8848115875       34.1781500614       -7.1470816866  W2        3652            0.0000000000
     10957      3653  TIP3      OH2            18.5710015875       17.4157800614        5.1758983134  W2        3653            0.0000000000
     10958      3653  TIP3      H1             18.2048215875       16.6500400614        5.6183683134  W2        3653            0.0000000000
     10959      3653  TIP3      H2             19.4838515875       17.4448000614        5.4624083134  W2        3653            0.0000000000
     10960      3654  TIP3      OH2            20.5440815875       16.7662200614        6.7116083134  W2        3654            0.0000000000
     10961      3654  TIP3      H1             21.4424415875       16.4922400614        6.5269483134  W2        3654            0.0000000000
     10962      3654  TIP3      H2             20.1573915875       16.0238200614        7.1758683134  W2        3654            0.0000000000
     10963      3655  TIP3      OH2            19.1686115875       33.5677000614      -10.6153916866  W2        3655            0.0000000000
     10964      3655  TIP3      H1             18.9010715875       33.8539900614       -9.7420816866  W2        3655            0.0000000000
     10965      3655  TIP3      H2             19.9398715875       33.0216200614      -10.4631416866  W2        3655            0.0000000000
     10966      3656  TIP3      OH2            28.9653115875       16.0987500614        6.8938883134  W2        3656            0.0000000000
     10967      3656  TIP3      H1             29.0420315875       15.6728200614        7.7476583134  W2        3656            0.0000000000
     10968      3656  TIP3      H2             29.8589715875       16.1122200614        6.5512383134  W2        3656            0.0000000000
     10969      3657  TIP3      OH2            32.1414215875       32.1713800614        5.5863083134  W2        3657            0.0000000000
     10970      3657  TIP3      H1             31.3596115875       31.9851800614        5.0663683134  W2        3657            0.0000000000
     10971      3657  TIP3      H2             32.0694115875       33.1008100614        5.8035583134  W2        3657            0.0000000000
     10972      3658  TIP3      OH2            37.8490915875       24.9271000614        0.6288383134  W2        3658            0.0000000000
     10973      3658  TIP3      H1             37.8903015875       24.3014300614        1.3520783134  W2        3658            0.0000000000
     10974      3658  TIP3      H2             38.5518615875       25.5509600614        0.8108783134  W2        3658            0.0000000000
     10975      3659  TIP3      OH2            38.7724015875       29.3769900614       -0.8362516866  W2        3659            0.0000000000
     10976      3659  TIP3      H1             38.4029215875       28.5750400614       -1.2058216866  W2        3659            0.0000000000
     10977      3659  TIP3      H2             39.7135115875       29.2084800614       -0.7899116866  W2        3659            0.0000000000
     10978      3660  TIP3      OH2            35.3824515875       23.0372500614       -5.4433716866  W2        3660            0.0000000000
     10979      3660  TIP3      H1             34.9347915875       23.8831200614       -5.4617216866  W2        3660            0.0000000000
     10980      3660  TIP3      H2             34.8215715875       22.4576700614       -5.9588616866  W2        3660            0.0000000000
     10981      3661  TIP3      OH2            36.0930615875       25.1992100614       -3.3175716866  W2        3661            0.0000000000
     10982      3661  TIP3      H1             36.3064115875       24.4293700614       -2.7902716866  W2        3661            0.0000000000
     10983      3661  TIP3      H2             36.8308215875       25.2888800614       -3.9208116866  W2        3661            0.0000000000
     10984      3662  TIP3      OH2            40.1655615875       20.2409100614       -2.9580916866  W2        3662            0.0000000000
     10985      3662  TIP3      H1             40.2086715875       21.1007600614       -3.3764616866  W2        3662            0.0000000000
     10986      3662  TIP3      H2             39.7079715875       19.6883800614       -3.5917716866  W2        3662            0.0000000000
     10987      3663  TIP3      OH2            36.7857115875       22.6374900614       -2.1959516866  W2        3663            0.0000000000
     10988      3663  TIP3      H1             37.4393715875       22.0876600614       -1.7639416866  W2        3663            0.0000000000
     10989      3663  TIP3      H2             36.8096415875       22.3633900614       -3.1127516866  W2        3663            0.0000000000
     10990      3664  TIP3      OH2            38.9757515875       19.1587500614        1.1159883134  W2        3664            0.0000000000
     10991      3664  TIP3      H1             38.7569215875       19.6888100614        0.3495883134  W2        3664            0.0000000000
     10992      3664  TIP3      H2             38.3078415875       19.3853000614        1.7631283134  W2        3664            0.0000000000
     10993      3665  TIP3      OH2            38.5694815875       21.0509300614       -0.9317916866  W2        3665            0.0000000000
     10994      3665  TIP3      H1             39.1831115875       21.6836900614       -0.5585516866  W2        3665            0.0000000000
     10995      3665  TIP3      H2             39.0815515875       20.5784300614       -1.5881016866  W2        3665            0.0000000000
     10996      3666  TIP3      OH2            39.9523215875       28.7986200614        2.1905083134  W2        3666            0.0000000000
     10997      3666  TIP3      H1             39.9470815875       29.6779700614        1.8124383134  W2        3666            0.0000000000
     10998      3666  TIP3      H2             39.0987315875       28.7150300614        2.6154983134  W2        3666            0.0000000000
     10999      3667  TIP3      OH2            36.0734115875       28.4694100614       -7.0275616866  W2        3667            0.0000000000
     11000      3667  TIP3      H1             35.8015015875       28.6985100614       -7.9162716866  W2        3667            0.0000000000
     11001      3667  TIP3      H2             36.1189815875       29.3072900614       -6.5670316866  W2        3667            0.0000000000
     11002      3668  TIP3      OH2            40.3198515875       26.1417700614       -4.0968516866  W2        3668            0.0000000000
     11003      3668  TIP3      H1             39.9893715875       25.7711100614       -4.9151516866  W2        3668            0.0000000000
     11004      3668  TIP3      H2             40.9082615875       25.4711700614       -3.7500216866  W2        3668            0.0000000000
     11005      3669  TIP3      OH2            38.4864615875       25.5077100614        3.4824083134  W2        3669            0.0000000000
     11006      3669  TIP3      H1             38.5567815875       26.1583900614        4.1809083134  W2        3669            0.0000000000
     11007      3669  TIP3      H2             37.5956815875       25.6104600614        3.1474983134  W2        3669            0.0000000000
     11008      3670  TIP3      OH2            39.8060615875       31.3811000614        5.0172183134  W2        3670            0.0000000000
     11009      3670  TIP3      H1             39.8135915875       31.2450700614        4.0697683134  W2        3670            0.0000000000
     11010      3670  TIP3      H2             38.8901015875       31.2639100614        5.2692183134  W2        3670            0.0000000000
     11011      3671  TIP3      OH2            39.3101215875       25.2112000614       -6.5075716866  W2        3671            0.0000000000
     11012      3671  TIP3      H1             39.0182515875       25.9793700614       -6.9984416866  W2        3671            0.0000000000
     11013      3671  TIP3      H2             38.6356415875       24.5518200614       -6.6704316866  W2        3671            0.0000000000
     11014      3672  TIP3      OH2            35.4031315875       27.5741200614        2.3074083134  W2        3672            0.0000000000
     11015      3672  TIP3      H1             34.9019715875       27.5460600614        1.4923783134  W2        3672            0.0000000000
     11016      3672  TIP3      H2             35.4085015875       26.6684400614        2.6171383134  W2        3672            0.0000000000
     11017      3673  TIP3      OH2            35.1534015875       30.3545000614       -0.8085716866  W2        3673            0.0000000000
     11018      3673  TIP3      H1             36.0994615875       30.2102000614       -0.8276216866  W2        3673            0.0000000000
     11019      3673  TIP3      H2             35.0410315875       31.1387800614       -0.2714516866  W2        3673            0.0000000000
     11020      3674  TIP3      OH2            38.3976115875       33.1554600614       -4.6631016866  W2        3674            0.0000000000
     11021      3674  TIP3      H1             38.5496515875       32.8075000614       -3.7844516866  W2        3674            0.0000000000
     11022      3674  TIP3      H2             37.5466515875       32.7991900614       -4.9183816866  W2        3674            0.0000000000
     11023      3675  TIP3      OH2            37.6521815875       28.8976600614        3.3506883134  W2        3675            0.0000000000
     11024      3675  TIP3      H1             37.8683115875       28.5362200614        4.2102683134  W2        3675            0.0000000000
     11025      3675  TIP3      H2             36.7966515875       28.5230400614        3.1410383134  W2        3675            0.0000000000
     11026      3676  TIP3      OH2            40.2709815875       17.3677100614       -0.6538916866  W2        3676            0.0000000000
     11027      3676  TIP3      H1             39.4093515875       17.2805300614       -1.0616016866  W2        3676            0.0000000000
     11028      3676  TIP3      H2             40.2485515875       18.2237200614       -0.2261316866  W2        3676            0.0000000000
     11029      3677  TIP3      OH2            40.3619915875       22.3331600614        0.4411283134  W2        3677            0.0000000000
     11030      3677  TIP3      H1             39.7202015875       22.2928900614        1.1501383134  W2        3677            0.0000000000
     11031      3677  TIP3      H2             40.3991915875       23.2596300614        0.2034283134  W2        3677            0.0000000000
     11032      3678  TIP3      OH2            40.3589015875       22.5541700614       -4.6468716866  W2        3678            0.0000000000
     11033      3678  TIP3      H1             39.4661915875       22.2137800614       -4.7054916866  W2        3678            0.0000000000
     11034      3678  TIP3      H2             40.8095615875       22.1772600614       -5.4025516866  W2        3678            0.0000000000
     11035      3679  TIP3      OH2            38.1120415875       22.6535100614        2.3083283134  W2        3679            0.0000000000
     11036      3679  TIP3      H1             38.0739815875       23.0536700614        3.1770383134  W2        3679            0.0000000000
     11037      3679  TIP3      H2             37.6211515875       21.8367500614        2.3986183134  W2        3679            0.0000000000
     11038      3680  TIP3      OH2            34.7201215875       19.7696900614       -3.8412016866  W2        3680            0.0000000000
     11039      3680  TIP3      H1             35.3508915875       19.7409000614       -3.1218116866  W2        3680            0.0000000000
     11040      3680  TIP3      H2             35.1695515875       19.3445600614       -4.5716116866  W2        3680            0.0000000000
     11041      3681  TIP3      OH2            35.9943315875       20.5158900614       -8.4171616866  W2        3681            0.0000000000
     11042      3681  TIP3      H1             36.4685015875       21.1068800614       -9.0020716866  W2        3681            0.0000000000
     11043      3681  TIP3      H2             35.2769715875       21.0461800614       -8.0701516866  W2        3681            0.0000000000
     11044      3682  TIP3      OH2            37.7687715875       21.6105500614       -4.7337016866  W2        3682            0.0000000000
     11045      3682  TIP3      H1             36.8795715875       21.7101000614       -5.0737416866  W2        3682            0.0000000000
     11046      3682  TIP3      H2             38.0652615875       20.7688500614       -5.0799116866  W2        3682            0.0000000000
     11047      3683  TIP3      OH2            40.0959715875       22.8050300614       -9.5106316866  W2        3683            0.0000000000
     11048      3683  TIP3      H1             39.5534815875       22.4254100614      -10.2018716866  W2        3683            0.0000000000
     11049      3683  TIP3      H2             40.9294615875       22.9995000614       -9.9392216866  W2        3683            0.0000000000
     11050      3684  TIP3      OH2            38.2311115875       27.3622200614        5.5885283134  W2        3684            0.0000000000
     11051      3684  TIP3      H1             38.9633515875       27.6168100614        6.1499783134  W2        3684            0.0000000000
     11052      3684  TIP3      H2             37.4509815875       27.5667600614        6.1040683134  W2        3684            0.0000000000
     11053      3685  TIP3      OH2            39.2623715875       18.9058300614       -5.2550216866  W2        3685            0.0000000000
     11054      3685  TIP3      H1             38.9453215875       18.0033600614       -5.2904816866  W2        3685            0.0000000000
     11055      3685  TIP3      H2             40.0437815875       18.9075700614       -5.8078616866  W2        3685            0.0000000000
     11056      3686  TIP3      OH2            38.5560815875       26.6656000614       -1.8050316866  W2        3686            0.0000000000
     11057      3686  TIP3      H1             39.3008015875       26.6631700614       -2.4063816866  W2        3686            0.0000000000
     11058      3686  TIP3      H2             38.6337415875       25.8419800614       -1.3235216866  W2        3686            0.0000000000
     11059      3687  TIP3      OH2            35.5640515875       25.1262900614        3.5098183134  W2        3687            0.0000000000
     11060      3687  TIP3      H1             35.7869115875       24.7082500614        4.3415683134  W2        3687            0.0000000000
     11061      3687  TIP3      H2             34.9620615875       24.5137900614        3.0870983134  W2        3687            0.0000000000
     11062      3688  TIP3      OH2            36.6857915875       25.0458300614       -9.8136416866  W2        3688            0.0000000000
     11063      3688  TIP3      H1             37.3017815875       25.6725500614       -9.4341616866  W2        3688            0.0000000000
     11064      3688  TIP3      H2             35.8240515875       25.3618100614       -9.5419916866  W2        3688            0.0000000000
     11065      3689  TIP3      OH2            37.1980015875       19.8795600614        3.0679583134  W2        3689            0.0000000000
     11066      3689  TIP3      H1             36.3052315875       20.2181000614        3.0003583134  W2        3689            0.0000000000
     11067      3689  TIP3      H2             37.0992815875       19.0241700614        3.4860383134  W2        3689            0.0000000000
     11068      3690  TIP3      OH2            36.8492015875       31.6840000614        1.5028983134  W2        3690            0.0000000000
     11069      3690  TIP3      H1             37.0662315875       30.7522400614        1.4718683134  W2        3690            0.0000000000
     11070      3690  TIP3      H2             37.0955515875       31.9585000614        2.3861783134  W2        3690            0.0000000000
     11071      3691  TIP3      OH2            38.1008315875       26.9582100614       -8.3210816866  W2        3691            0.0000000000
     11072      3691  TIP3      H1             37.4147615875       27.3104600614       -7.7541116866  W2        3691            0.0000000000
     11073      3691  TIP3      H2             38.6236215875       27.7211700614       -8.5676516866  W2        3691            0.0000000000
     11074      3692  TIP3      OH2            40.4581915875       19.1448800614       -8.4847516866  W2        3692            0.0000000000
     11075      3692  TIP3      H1             40.3746715875       20.0331900614       -8.1381116866  W2        3692            0.0000000000
     11076      3692  TIP3      H2             41.3482215875       18.8795500614       -8.2530716866  W2        3692            0.0000000000
     11077      3693  TIP3      OH2            38.7167215875       29.5721000614       -9.4243016866  W2        3693            0.0000000000
     11078      3693  TIP3      H1             39.3088715875       30.2715800614       -9.1480616866  W2        3693            0.0000000000
     11079      3693  TIP3      H2             39.1760215875       29.1390500614      -10.1438416866  W2        3693            0.0000000000
     11080      3694  TIP3      OH2            37.0326415875       22.2364000614      -10.3083616866  W2        3694            0.0000000000
     11081      3694  TIP3      H1             36.9879015875       23.1757100614      -10.1296616866  W2        3694            0.0000000000
     11082      3694  TIP3      H2             36.1449615875       22.0008900614      -10.5781516866  W2        3694            0.0000000000
     11083      3695  TIP3      OH2            37.8408415875       17.0180600614       -1.6352616866  W2        3695            0.0000000000
     11084      3695  TIP3      H1             37.6118215875       17.0773100614       -2.5627616866  W2        3695            0.0000000000
     11085      3695  TIP3      H2             37.3981815875       16.2266100614       -1.3288516866  W2        3695            0.0000000000
     11086      3696  TIP3      OH2            36.7711715875       30.9587700614       -5.4746816866  W2        3696            0.0000000000
     11087      3696  TIP3      H1             35.9390315875       31.4310400614       -5.4475416866  W2        3696            0.0000000000
     11088      3696  TIP3      H2             37.3170015875       31.4685300614       -6.0733716866  W2        3696            0.0000000000
     11089      3697  TIP3      OH2            36.0595415875       33.5711400614        5.8551183134  W2        3697            0.0000000000
     11090      3697  TIP3      H1             36.5997615875       33.3545400614        6.6150383134  W2        3697            0.0000000000
     11091      3697  TIP3      H2             35.5783415875       32.7657400614        5.6653683134  W2        3697            0.0000000000
     11092      3698  TIP3      OH2            35.9664915875       27.3815500614        6.8095483134  W2        3698            0.0000000000
     11093      3698  TIP3      H1             36.1105415875       26.4796200614        6.5232183134  W2        3698            0.0000000000
     11094      3698  TIP3      H2             35.1942315875       27.6677600614        6.3217783134  W2        3698            0.0000000000
     11095      3699  TIP3      OH2            40.3078615875       27.7251200614      -11.0579916866  W2        3699            0.0000000000
     11096      3699  TIP3      H1             40.3722715875       26.9310800614      -10.5273516866  W2        3699            0.0000000000
     11097      3699  TIP3      H2             40.9607815875       27.6064000614      -11.7477916866  W2        3699            0.0000000000
     11098      3700  TIP3      OH2            36.7991415875       24.5818800614        6.2294783134  W2        3700            0.0000000000
     11099      3700  TIP3      H1             37.2072615875       23.7245400614        6.1085383134  W2        3700            0.0000000000
     11100      3700  TIP3      H2             36.5389015875       24.5960100614        7.1505083134  W2        3700            0.0000000000
     11101      3701  TIP3      OH2            39.5641715875       22.1438800614        6.5976383134  W2        3701            0.0000000000
     11102      3701  TIP3      H1             38.7970715875       21.6113600614        6.3873983134  W2        3701            0.0000000000
     11103      3701  TIP3      H2             40.2430715875       21.8339200614        5.9982683134  W2        3701            0.0000000000
     11104      3702  TIP3      OH2            37.7444515875       20.0642600614        6.3021083134  W2        3702            0.0000000000
     11105      3702  TIP3      H1             37.9561915875       19.3578700614        5.6918583134  W2        3702            0.0000000000
     11106      3702  TIP3      H2             37.6332015875       19.6268600614        7.1462283134  W2        3702            0.0000000000
     11107      3703  TIP3      OH2            35.9939415875       29.2676700614      -10.0057016866  W2        3703            0.0000000000
     11108      3703  TIP3      H1             36.9078615875       29.3465600614       -9.7323116866  W2        3703            0.0000000000
     11109      3703  TIP3      H2             36.0012515875       28.5806300614      -10.6721416866  W2        3703            0.0000000000
     11110      3704  TIP3      OH2            34.6430015875       34.6605200614       -4.9283116866  W2        3704            0.0000000000
     11111      3704  TIP3      H1             33.9957115875       34.1986900614       -5.4611916866  W2        3704            0.0000000000
     11112      3704  TIP3      H2             34.9974615875       33.9888500614       -4.3456916866  W2        3704            0.0000000000
     11113      3705  TIP3      OH2            35.5129215875       32.7412200614       -3.1236916866  W2        3705            0.0000000000
     11114      3705  TIP3      H1             35.1786015875       31.8609500614       -2.9516716866  W2        3705            0.0000000000
     11115      3705  TIP3      H2             35.7351615875       33.0867200614       -2.2591316866  W2        3705            0.0000000000
     11116      3706  TIP3      OH2            35.5928715875       25.8167600614       -0.6722016866  W2        3706            0.0000000000
     11117      3706  TIP3      H1             35.7771615875       25.7349300614       -1.6079116866  W2        3706            0.0000000000
     11118      3706  TIP3      H2             36.4421615875       25.6924600614       -0.2485616866  W2        3706            0.0000000000
     11119      3707  TIP3      OH2            35.1903515875       21.0872600614        5.4686783134  W2        3707            0.0000000000
     11120      3707  TIP3      H1             36.1098415875       20.9650900614        5.7049883134  W2        3707            0.0000000000
     11121      3707  TIP3      H2             34.7408015875       20.3372300614        5.8580283134  W2        3707            0.0000000000
     11122      3708  TIP3      OH2            36.4116015875       19.3994200614       -1.6400316866  W2        3708            0.0000000000
     11123      3708  TIP3      H1             36.8567615875       18.6076700614       -1.3380616866  W2        3708            0.0000000000
     11124      3708  TIP3      H2             36.8779015875       20.1159400614       -1.2094716866  W2        3708            0.0000000000
     11125      3709  TIP3      OH2            34.7156315875       22.3987200614       -0.5710116866  W2        3709            0.0000000000
     11126      3709  TIP3      H1             35.2076115875       22.1777700614       -1.3618116866  W2        3709            0.0000000000
     11127      3709  TIP3      H2             35.0777215875       23.2390600614       -0.2900616866  W2        3709            0.0000000000
     11128      3710  TIP3      OH2            35.0292815875       18.6566300614       -6.5167716866  W2        3710            0.0000000000
     11129      3710  TIP3      H1             34.1041215875       18.8652900614       -6.6462216866  W2        3710            0.0000000000
     11130      3710  TIP3      H2             35.4832715875       19.1407100614       -7.2065416866  W2        3710            0.0000000000
     11131      3711  TIP3      OH2            34.9928215875       17.3945300614        1.8274783134  W2        3711            0.0000000000
     11132      3711  TIP3      H1             34.3278715875       17.1485600614        2.4705683134  W2        3711            0.0000000000
     11133      3711  TIP3      H2             34.5499515875       18.0165700614        1.2502783134  W2        3711            0.0000000000
     11134      3712  TIP3      OH2            37.1847515875       30.5699400614        5.9720583134  W2        3712            0.0000000000
     11135      3712  TIP3      H1             36.3640015875       30.7445900614        5.5115283134  W2        3712            0.0000000000
     11136      3712  TIP3      H2             36.9325315875       30.4964100614        6.8924983134  W2        3712            0.0000000000
     11137      3713  TIP3      OH2            40.1390415875       31.5440600614        2.2304583134  W2        3713            0.0000000000
     11138      3713  TIP3      H1             39.7141515875       32.3539100614        1.9479183134  W2        3713            0.0000000000
     11139      3713  TIP3      H2             41.0433215875       31.6294700614        1.9284383134  W2        3713            0.0000000000
     11140      3714  TIP3      OH2            37.5407115875       34.8004500614        2.2779883134  W2        3714            0.0000000000
     11141      3714  TIP3      H1             36.8203515875       35.2405500614        1.8267583134  W2        3714            0.0000000000
     11142      3714  TIP3      H2             37.1751115875       34.5499200614        3.1263883134  W2        3714            0.0000000000
     11143      3715  TIP3      OH2            40.0079715875       34.4008400614        1.3077083134  W2        3715            0.0000000000
     11144      3715  TIP3      H1             39.1431915875       34.4726900614        1.7117183134  W2        3715            0.0000000000
     11145      3715  TIP3      H2             39.9528715875       34.9475700614        0.5239583134  W2        3715            0.0000000000
     11146      3716  TIP3      OH2            36.9555215875       33.4237000614       -0.8118316866  W2        3716            0.0000000000
     11147      3716  TIP3      H1             36.9371215875       32.9982100614        0.0453983134  W2        3716            0.0000000000
     11148      3716  TIP3      H2             37.7603115875       33.1052000614       -1.2206116866  W2        3716            0.0000000000
     11149      3717  TIP3      OH2            39.0968315875       32.1335700614       -2.1568416866  W2        3717            0.0000000000
     11150      3717  TIP3      H1             38.8779015875       31.2173100614       -1.9872416866  W2        3717            0.0000000000
     11151      3717  TIP3      H2             39.9210515875       32.2736100614       -1.6907016866  W2        3717            0.0000000000
     11152      3718  TIP3      OH2            37.4692015875       16.9015900614       -4.3417216866  W2        3718            0.0000000000
     11153      3718  TIP3      H1             36.6921815875       16.6670800614       -4.8491316866  W2        3718            0.0000000000
     11154      3718  TIP3      H2             37.9995615875       16.1048000614       -4.3329216866  W2        3718            0.0000000000
     11155      3719  TIP3      OH2            36.3055415875       16.6994000614       -8.5381116866  W2        3719            0.0000000000
     11156      3719  TIP3      H1             36.7446115875       17.3104500614       -9.1297616866  W2        3719            0.0000000000
     11157      3719  TIP3      H2             35.6717815875       17.2378100614       -8.0641116866  W2        3719            0.0000000000
     11158      3720  TIP3      OH2            36.2064915875       32.6476200614       -7.6406016866  W2        3720            0.0000000000
     11159      3720  TIP3      H1             35.5214815875       32.6095100614       -8.3080916866  W2        3720            0.0000000000
     11160      3720  TIP3      H2             36.2102115875       33.5603800614       -7.3523916866  W2        3720            0.0000000000
     11161      3721  TIP3      OH2            38.1664515875       18.6155500614      -10.0957016866  W2        3721            0.0000000000
     11162      3721  TIP3      H1             38.6577915875       17.9857900614      -10.6231516866  W2        3721            0.0000000000
     11163      3721  TIP3      H2             38.7900815875       18.9114900614       -9.4325816866  W2        3721            0.0000000000
     11164      3722  TIP3      OH2            37.4270015875       17.4157800614        5.1758983134  W2        3722            0.0000000000
     11165      3722  TIP3      H1             37.0608215875       16.6500400614        5.6183683134  W2        3722            0.0000000000
     11166      3722  TIP3      H2             38.3398515875       17.4448000614        5.4624083134  W2        3722            0.0000000000
     11167      3723  TIP3      OH2            39.4000815875       16.7662200614        6.7116083134  W2        3723            0.0000000000
     11168      3723  TIP3      H1             40.2984415875       16.4922400614        6.5269483134  W2        3723            0.0000000000
     11169      3723  TIP3      H2             39.0133915875       16.0238200614        7.1758683134  W2        3723            0.0000000000
     11170      3724  TIP3      OH2            38.0246115875       33.5677000614      -10.6153916866  W2        3724            0.0000000000
     11171      3724  TIP3      H1             37.7570715875       33.8539900614       -9.7420816866  W2        3724            0.0000000000
     11172      3724  TIP3      H2             38.7958715875       33.0216200614      -10.4631416866  W2        3724            0.0000000000
     11173      3725  TIP3      OH2           -22.8909884125       38.2025600614        0.3025683134  W2        3725            0.0000000000
     11174      3725  TIP3      H1            -22.8417684125       38.8126800614        1.0384783134  W2        3725            0.0000000000
     11175      3725  TIP3      H2            -22.4654784125       38.6636500614       -0.4203216866  W2        3725            0.0000000000
     11176      3726  TIP3      OH2           -35.2584384125       39.0969100614       -2.9580916866  W2        3726            0.0000000000
     11177      3726  TIP3      H1            -35.2153284125       39.9567600614       -3.3764616866  W2        3726            0.0000000000
     11178      3726  TIP3      H2            -35.7160284125       38.5443800614       -3.5917716866  W2        3726            0.0000000000
     11179      3727  TIP3      OH2           -27.5361684125       39.2274700614       -4.5572616866  W2        3727            0.0000000000
     11180      3727  TIP3      H1            -26.8897384125       38.8987900614       -3.9325016866  W2        3727            0.0000000000
     11181      3727  TIP3      H2            -27.0262284125       39.7453700614       -5.1801216866  W2        3727            0.0000000000
     11182      3728  TIP3      OH2           -22.4995284125       39.6804800614        2.5385483134  W2        3728            0.0000000000
     11183      3728  TIP3      H1            -23.1880684125       40.3385500614        2.4432083134  W2        3728            0.0000000000
     11184      3728  TIP3      H2            -22.4840684125       39.4832700614        3.4750883134  W2        3728            0.0000000000
     11185      3729  TIP3      OH2           -36.4482484125       38.0147500614        1.1159883134  W2        3729            0.0000000000
     11186      3729  TIP3      H1            -36.6670784125       38.5448100614        0.3495883134  W2        3729            0.0000000000
     11187      3729  TIP3      H2            -37.1161584125       38.2413000614        1.7631283134  W2        3729            0.0000000000
     11188      3730  TIP3      OH2           -25.7723284125       38.5184000614       -2.5766716866  W2        3730            0.0000000000
     11189      3730  TIP3      H1            -25.9875284125       37.7527400614       -2.0440716866  W2        3730            0.0000000000
     11190      3730  TIP3      H2            -25.1165884125       38.9908600614       -2.0638216866  W2        3730            0.0000000000
     11191      3731  TIP3      OH2           -36.8545184125       39.9069300614       -0.9317916866  W2        3731            0.0000000000
     11192      3731  TIP3      H1            -36.2408884125       40.5396900614       -0.5585516866  W2        3731            0.0000000000
     11193      3731  TIP3      H2            -36.3424484125       39.4344300614       -1.5881016866  W2        3731            0.0000000000
     11194      3732  TIP3      OH2           -25.4249184125       37.2335300614        1.1026783134  W2        3732            0.0000000000
     11195      3732  TIP3      H1            -26.1609984125       37.8442400614        1.0648083134  W2        3732            0.0000000000
     11196      3732  TIP3      H2            -24.7415184125       37.6484300614        0.5763183134  W2        3732            0.0000000000
     11197      3733  TIP3      OH2           -32.4217784125       35.3202600614       -1.4315216866  W2        3733            0.0000000000
     11198      3733  TIP3      H1            -32.5393584125       34.3718600614       -1.4856916866  W2        3733            0.0000000000
     11199      3733  TIP3      H2            -33.2767684125       35.6528700614       -1.1584116866  W2        3733            0.0000000000
     11200      3734  TIP3      OH2           -24.1797284125       35.2794800614       -8.4812616866  W2        3734            0.0000000000
     11201      3734  TIP3      H1            -25.0796584125       35.4183800614       -8.1862016866  W2        3734            0.0000000000
     11202      3734  TIP3      H2            -23.9278884125       36.1109400614       -8.8830916866  W2        3734            0.0000000000
     11203      3735  TIP3      OH2           -35.1530184125       36.2237100614       -0.6538916866  W2        3735            0.0000000000
     11204      3735  TIP3      H1            -36.0146484125       36.1365300614       -1.0616016866  W2        3735            0.0000000000
     11205      3735  TIP3      H2            -35.1754484125       37.0797200614       -0.2261316866  W2        3735            0.0000000000
     11206      3736  TIP3      OH2           -30.4902384125       35.9457500614        2.7208083134  W2        3736            0.0000000000
     11207      3736  TIP3      H1            -30.0699284125       35.5304600614        3.4738683134  W2        3736            0.0000000000
     11208      3736  TIP3      H2            -31.4232784125       35.7670800614        2.8380083134  W2        3736            0.0000000000
     11209      3737  TIP3      OH2           -27.1637484125       39.7012700614        3.5742583134  W2        3737            0.0000000000
     11210      3737  TIP3      H1            -27.6777984125       39.5754900614        4.3718583134  W2        3737            0.0000000000
     11211      3737  TIP3      H2            -27.3192784125       40.6135800614        3.3298783134  W2        3737            0.0000000000
     11212      3738  TIP3      OH2           -30.8285084125       38.4380900614       -9.9941116866  W2        3738            0.0000000000
     11213      3738  TIP3      H1            -31.0820284125       38.4572500614       -9.0713016866  W2        3738            0.0000000000
     11214      3738  TIP3      H2            -31.0852984125       37.5666300614      -10.2954916866  W2        3738            0.0000000000
     11215      3739  TIP3      OH2           -33.9462184125       38.8837400614      -10.8930716866  W2        3739            0.0000000000
     11216      3739  TIP3      H1            -34.3771484125       38.4387500614      -10.1633316866  W2        3739            0.0000000000
     11217      3739  TIP3      H2            -34.6643484125       39.2553700614      -11.4053216866  W2        3739            0.0000000000
     11218      3740  TIP3      OH2           -40.7038784125       38.6256900614       -3.8412016866  W2        3740            0.0000000000
     11219      3740  TIP3      H1            -40.0731084125       38.5969000614       -3.1218116866  W2        3740            0.0000000000
     11220      3740  TIP3      H2            -40.2544484125       38.2005600614       -4.5716116866  W2        3740            0.0000000000
     11221      3741  TIP3      OH2           -39.4296684125       39.3718900614       -8.4171616866  W2        3741            0.0000000000
     11222      3741  TIP3      H1            -38.9554984125       39.9628800614       -9.0020716866  W2        3741            0.0000000000
     11223      3741  TIP3      H2            -40.1470284125       39.9021800614       -8.0701516866  W2        3741            0.0000000000
     11224      3742  TIP3      OH2           -32.4835684125       38.8379200614       -3.5604616866  W2        3742            0.0000000000
     11225      3742  TIP3      H1            -33.3944584125       38.8946000614       -3.2718616866  W2        3742            0.0000000000
     11226      3742  TIP3      H2            -31.9782784125       38.7774700614       -2.7497416866  W2        3742            0.0000000000
     11227      3743  TIP3      OH2           -37.6552284125       40.4665500614       -4.7337016866  W2        3743            0.0000000000
     11228      3743  TIP3      H1            -38.5444284125       40.5661000614       -5.0737416866  W2        3743            0.0000000000
     11229      3743  TIP3      H2            -37.3587384125       39.6248500614       -5.0799116866  W2        3743            0.0000000000
     11230      3744  TIP3      OH2           -34.0020484125       40.4668100614       -7.0772416866  W2        3744            0.0000000000
     11231      3744  TIP3      H1            -33.0704984125       40.5958100614       -6.8989316866  W2        3744            0.0000000000
     11232      3744  TIP3      H2            -34.2170184125       41.1362400614       -7.7267716866  W2        3744            0.0000000000
     11233      3745  TIP3      OH2           -28.0783784125       38.0725500614       -0.2962816866  W2        3745            0.0000000000
     11234      3745  TIP3      H1            -28.7552184125       38.2038600614        0.3676883134  W2        3745            0.0000000000
     11235      3745  TIP3      H2            -28.5638884125       37.9175000614       -1.1065116866  W2        3745            0.0000000000
     11236      3746  TIP3      OH2           -36.1616284125       37.7618300614       -5.2550216866  W2        3746            0.0000000000
     11237      3746  TIP3      H1            -36.4786784125       36.8593600614       -5.2904816866  W2        3746            0.0000000000
     11238      3746  TIP3      H2            -35.3802184125       37.7635700614       -5.8078616866  W2        3746            0.0000000000
     11239      3747  TIP3      OH2           -32.5370084125       40.0138300614        0.7405383134  W2        3747            0.0000000000
     11240      3747  TIP3      H1            -33.3724784125       40.4677800614        0.8507783134  W2        3747            0.0000000000
     11241      3747  TIP3      H2            -32.0129484125       40.2896800614        1.4925283134  W2        3747            0.0000000000
     11242      3748  TIP3      OH2           -28.0950684125       39.0405900614       -9.3755616866  W2        3748            0.0000000000
     11243      3748  TIP3      H1            -29.0336484125       39.1521500614       -9.5266816866  W2        3748            0.0000000000
     11244      3748  TIP3      H2            -27.7978584125       39.8972800614       -9.0689916866  W2        3748            0.0000000000
     11245      3749  TIP3      OH2           -38.2259984125       38.7355600614        3.0679583134  W2        3749            0.0000000000
     11246      3749  TIP3      H1            -39.1187684125       39.0741000614        3.0003583134  W2        3749            0.0000000000
     11247      3749  TIP3      H2            -38.3247184125       37.8801700614        3.4860383134  W2        3749            0.0000000000
     11248      3750  TIP3      OH2           -29.4916584125       38.4765900614        1.9578183134  W2        3750            0.0000000000
     11249      3750  TIP3      H1            -28.7928684125       38.5504600614        2.6077883134  W2        3750            0.0000000000
     11250      3750  TIP3      H2            -29.8725184125       37.6120900614        2.1121083134  W2        3750            0.0000000000
     11251      3751  TIP3      OH2           -28.7071684125       38.1287600614       -6.9449516866  W2        3751            0.0000000000
     11252      3751  TIP3      H1            -28.4873384125       38.6003000614       -7.7484116866  W2        3751            0.0000000000
     11253      3751  TIP3      H2            -28.1487684125       38.5230200614       -6.2748916866  W2        3751            0.0000000000
     11254      3752  TIP3      OH2           -31.5071784125       39.8566400614       -6.1101116866  W2        3752            0.0000000000
     11255      3752  TIP3      H1            -30.6949184125       40.3609600614       -6.0639416866  W2        3752            0.0000000000
     11256      3752  TIP3      H2            -31.7518784125       39.7116100614       -5.1961516866  W2        3752            0.0000000000
     11257      3753  TIP3      OH2           -30.9715384125       40.8429100614        3.0745483134  W2        3753            0.0000000000
     11258      3753  TIP3      H1            -30.8525084125       41.4164500614        3.8315883134  W2        3753            0.0000000000
     11259      3753  TIP3      H2            -30.3160784125       40.1548500614        3.1893283134  W2        3753            0.0000000000
     11260      3754  TIP3      OH2           -30.6235084125       36.9379400614       -5.1720016866  W2        3754            0.0000000000
     11261      3754  TIP3      H1            -30.9701584125       37.5550000614       -4.5275716866  W2        3754            0.0000000000
     11262      3754  TIP3      H2            -29.9648184125       37.4385100614       -5.6534516866  W2        3754            0.0000000000
     11263      3755  TIP3      OH2           -34.9658084125       38.0008800614       -8.4847516866  W2        3755            0.0000000000
     11264      3755  TIP3      H1            -35.0493284125       38.8891900614       -8.1381116866  W2        3755            0.0000000000
     11265      3755  TIP3      H2            -34.0757784125       37.7355500614       -8.2530716866  W2        3755            0.0000000000
     11266      3756  TIP3      OH2           -24.7669584125       38.7499400614        3.9095183134  W2        3756            0.0000000000
     11267      3756  TIP3      H1            -25.6833784125       39.0121100614        3.8218883134  W2        3756            0.0000000000
     11268      3756  TIP3      H2            -24.4314584125       38.7468400614        3.0130483134  W2        3756            0.0000000000
     11269      3757  TIP3      OH2           -37.5831584125       35.8740600614       -1.6352616866  W2        3757            0.0000000000
     11270      3757  TIP3      H1            -37.8121784125       35.9333100614       -2.5627616866  W2        3757            0.0000000000
     11271      3757  TIP3      H2            -38.0258184125       35.0826100614       -1.3288516866  W2        3757            0.0000000000
     11272      3758  TIP3      OH2           -34.3384584125       39.8015300614        4.6860783134  W2        3758            0.0000000000
     11273      3758  TIP3      H1            -34.1883684125       39.0726600614        4.0840483134  W2        3758            0.0000000000
     11274      3758  TIP3      H2            -34.3362184125       40.5787000614        4.1272983134  W2        3758            0.0000000000
     11275      3759  TIP3      OH2           -33.9258884125       38.1711100614        2.1788183134  W2        3759            0.0000000000
     11276      3759  TIP3      H1            -33.3901384125       38.6227800614        1.5267483134  W2        3759            0.0000000000
     11277      3759  TIP3      H2            -34.7779284125       38.0630900614        1.7562283134  W2        3759            0.0000000000
     11278      3760  TIP3      OH2           -33.1203384125       35.6276800614        2.6101783134  W2        3760            0.0000000000
     11279      3760  TIP3      H1            -33.2183784125       36.5740000614        2.5047983134  W2        3760            0.0000000000
     11280      3760  TIP3      H2            -33.8627184125       35.2550600614        2.1345283134  W2        3760            0.0000000000
     11281      3761  TIP3      OH2           -31.8562884125       39.9492200614        6.1740183134  W2        3761            0.0000000000
     11282      3761  TIP3      H1            -32.0917484125       39.7298900614        7.0755083134  W2        3761            0.0000000000
     11283      3761  TIP3      H2            -32.6395984125       39.7423400614        5.6642683134  W2        3761            0.0000000000
     11284      3762  TIP3      OH2           -29.1406284125       39.0765700614        5.2493683134  W2        3762            0.0000000000
     11285      3762  TIP3      H1            -30.0880884125       39.1085400614        5.3816983134  W2        3762            0.0000000000
     11286      3762  TIP3      H2            -28.8279584125       38.4512800614        5.9031883134  W2        3762            0.0000000000
     11287      3763  TIP3      OH2           -27.5064784125       37.7106800614        7.2545583134  W2        3763            0.0000000000
     11288      3763  TIP3      H1            -27.6032984125       36.7584100614        7.2487483134  W2        3763            0.0000000000
     11289      3763  TIP3      H2            -27.8281684125       37.9793600614        8.1151083134  W2        3763            0.0000000000
     11290      3764  TIP3      OH2           -37.6795484125       38.9202600614        6.3021083134  W2        3764            0.0000000000
     11291      3764  TIP3      H1            -37.4678084125       38.2138700614        5.6918583134  W2        3764            0.0000000000
     11292      3764  TIP3      H2            -37.7907984125       38.4828600614        7.1462283134  W2        3764            0.0000000000
     11293      3765  TIP3      OH2           -32.8985284125       34.9214200614        5.2814583134  W2        3765            0.0000000000
     11294      3765  TIP3      H1            -32.1866884125       34.2816400614        5.2673683134  W2        3765            0.0000000000
     11295      3765  TIP3      H2            -32.9994884125       35.1882500614        4.3677683134  W2        3765            0.0000000000
     11296      3766  TIP3      OH2           -32.5447784125       36.6042600614        7.3350883134  W2        3766            0.0000000000
     11297      3766  TIP3      H1            -32.6765584125       36.1286400614        6.5149383134  W2        3766            0.0000000000
     11298      3766  TIP3      H2            -33.1440384125       37.3486200614        7.2797983134  W2        3766            0.0000000000
     11299      3767  TIP3      OH2           -24.7884584125       38.6222800614      -11.1860616866  W2        3767            0.0000000000
     11300      3767  TIP3      H1            -24.1778784125       38.2509600614      -10.5492416866  W2        3767            0.0000000000
     11301      3767  TIP3      H2            -25.6253084125       38.2009700614      -10.9900616866  W2        3767            0.0000000000
     11302      3768  TIP3      OH2           -25.1558884125       40.1771200614       -6.2200716866  W2        3768            0.0000000000
     11303      3768  TIP3      H1            -24.8761784125       39.2701600614       -6.0959016866  W2        3768            0.0000000000
     11304      3768  TIP3      H2            -24.3967184125       40.6112700614       -6.6091516866  W2        3768            0.0000000000
     11305      3769  TIP3      OH2           -24.5440584125       40.7588600614       -0.7841816866  W2        3769            0.0000000000
     11306      3769  TIP3      H1            -23.6112584125       40.9708500614       -0.8185816866  W2        3769            0.0000000000
     11307      3769  TIP3      H2            -24.7793084125       40.8600700614        0.1381183134  W2        3769            0.0000000000
     11308      3770  TIP3      OH2           -40.2336484125       39.9432600614        5.4686783134  W2        3770            0.0000000000
     11309      3770  TIP3      H1            -39.3141584125       39.8210900614        5.7049883134  W2        3770            0.0000000000
     11310      3770  TIP3      H2            -40.6831984125       39.1932300614        5.8580283134  W2        3770            0.0000000000
     11311      3771  TIP3      OH2           -22.2317084125       35.4754100614        7.3452583134  W2        3771            0.0000000000
     11312      3771  TIP3      H1            -21.8820084125       34.8217600614        6.7397283134  W2        3771            0.0000000000
     11313      3771  TIP3      H2            -22.0847584125       36.3128200614        6.9055183134  W2        3771            0.0000000000
     11314      3772  TIP3      OH2           -24.5424084125       37.4400500614       -6.1718716866  W2        3772            0.0000000000
     11315      3772  TIP3      H1            -24.3599084125       36.9912000614       -5.3463716866  W2        3772            0.0000000000
     11316      3772  TIP3      H2            -25.1421184125       36.8554900614       -6.6354116866  W2        3772            0.0000000000
     11317      3773  TIP3      OH2           -39.0123984125       38.2554200614       -1.6400316866  W2        3773            0.0000000000
     11318      3773  TIP3      H1            -38.5672384125       37.4636700614       -1.3380616866  W2        3773            0.0000000000
     11319      3773  TIP3      H2            -38.5460984125       38.9719400614       -1.2094716866  W2        3773            0.0000000000
     11320      3774  TIP3      OH2           -22.7119884125       37.5848700614        5.6943883134  W2        3774            0.0000000000
     11321      3774  TIP3      H1            -23.6294184125       37.8555800614        5.6587383134  W2        3774            0.0000000000
     11322      3774  TIP3      H2            -22.5890484125       37.0497100614        4.9103583134  W2        3774            0.0000000000
     11323      3775  TIP3      OH2           -22.6757884125       37.5078600614       -9.6438416866  W2        3775            0.0000000000
     11324      3775  TIP3      H1            -22.2635284125       36.7864300614      -10.1190416866  W2        3775            0.0000000000
     11325      3775  TIP3      H2            -21.9941384125       38.1773200614       -9.5854116866  W2        3775            0.0000000000
     11326      3776  TIP3      OH2           -40.3947184125       37.5126300614       -6.5167716866  W2        3776            0.0000000000
     11327      3776  TIP3      H1            -41.3198784125       37.7212900614       -6.6462216866  W2        3776            0.0000000000
     11328      3776  TIP3      H2            -39.9407284125       37.9967100614       -7.2065416866  W2        3776            0.0000000000
     11329      3777  TIP3      OH2           -40.4311784125       36.2505300614        1.8274783134  W2        3777            0.0000000000
     11330      3777  TIP3      H1            -41.0961284125       36.0045600614        2.4705683134  W2        3777            0.0000000000
     11331      3777  TIP3      H2            -40.8740484125       36.8725700614        1.2502783134  W2        3777            0.0000000000
     11332      3778  TIP3      OH2           -23.7113984125       35.6745000614        3.5134683134  W2        3778            0.0000000000
     11333      3778  TIP3      H1            -24.5240484125       35.9995300614        3.1259383134  W2        3778            0.0000000000
     11334      3778  TIP3      H2            -23.4785484125       34.9143500614        2.9803783134  W2        3778            0.0000000000
     11335      3779  TIP3      OH2           -30.2815484125       37.1235600614       -2.1637116866  W2        3779            0.0000000000
     11336      3779  TIP3      H1            -30.9558684125       36.4941200614       -1.9081316866  W2        3779            0.0000000000
     11337      3779  TIP3      H2            -29.7176284125       36.6394500614       -2.7669216866  W2        3779            0.0000000000
     11338      3780  TIP3      OH2           -25.1388284125       35.2309600614       -2.0510016866  W2        3780            0.0000000000
     11339      3780  TIP3      H1            -24.5350684125       35.7785000614       -2.5529016866  W2        3780            0.0000000000
     11340      3780  TIP3      H2            -26.0086284125       35.5500000614       -2.2915916866  W2        3780            0.0000000000
     11341      3781  TIP3      OH2           -23.4117884125       36.3698300614       -3.7179116866  W2        3781            0.0000000000
     11342      3781  TIP3      H1            -22.8000384125       35.8554000614       -4.2445516866  W2        3781            0.0000000000
     11343      3781  TIP3      H2            -23.0294484125       37.2470400614       -3.6944716866  W2        3781            0.0000000000
     11344      3782  TIP3      OH2           -37.9547984125       35.7575900614       -4.3417216866  W2        3782            0.0000000000
     11345      3782  TIP3      H1            -38.7318184125       35.5230800614       -4.8491316866  W2        3782            0.0000000000
     11346      3782  TIP3      H2            -37.4244384125       34.9608000614       -4.3329216866  W2        3782            0.0000000000
     11347      3783  TIP3      OH2           -39.1184584125       35.5554000614       -8.5381116866  W2        3783            0.0000000000
     11348      3783  TIP3      H1            -38.6793884125       36.1664500614       -9.1297616866  W2        3783            0.0000000000
     11349      3783  TIP3      H2            -39.7522184125       36.0938100614       -8.0641116866  W2        3783            0.0000000000
     11350      3784  TIP3      OH2           -33.3755384125       35.6843000614       -4.5284116866  W2        3784            0.0000000000
     11351      3784  TIP3      H1            -32.5011984125       36.0727300614       -4.5579816866  W2        3784            0.0000000000
     11352      3784  TIP3      H2            -33.5114584125       35.4690800614       -3.6056916866  W2        3784            0.0000000000
     11353      3785  TIP3      OH2           -27.8186984125       35.7142800614       -2.8792416866  W2        3785            0.0000000000
     11354      3785  TIP3      H1            -27.7425384125       35.8094400614       -3.8286416866  W2        3785            0.0000000000
     11355      3785  TIP3      H2            -28.0937784125       34.8065700614       -2.7503316866  W2        3785            0.0000000000
     11356      3786  TIP3      OH2           -26.4654384125       35.7400600614       -7.1867416866  W2        3786            0.0000000000
     11357      3786  TIP3      H1            -27.1683284125       36.3549800614       -7.3966016866  W2        3786            0.0000000000
     11358      3786  TIP3      H2            -26.9102984125       34.9027300614       -7.0556516866  W2        3786            0.0000000000
     11359      3787  TIP3      OH2           -37.2575484125       37.4715500614      -10.0957016866  W2        3787            0.0000000000
     11360      3787  TIP3      H1            -36.7662084125       36.8417900614      -10.6231516866  W2        3787            0.0000000000
     11361      3787  TIP3      H2            -36.6339184125       37.7674900614       -9.4325816866  W2        3787            0.0000000000
     11362      3788  TIP3      OH2           -32.2315384125       37.7647000614       -7.6386516866  W2        3788            0.0000000000
     11363      3788  TIP3      H1            -32.0534084125       37.1180200614       -6.9557916866  W2        3788            0.0000000000
     11364      3788  TIP3      H2            -32.2849184125       38.5984700614       -7.1715416866  W2        3788            0.0000000000
     11365      3789  TIP3      OH2           -37.9969984125       36.2717800614        5.1758983134  W2        3789            0.0000000000
     11366      3789  TIP3      H1            -38.3631784125       35.5060400614        5.6183683134  W2        3789            0.0000000000
     11367      3789  TIP3      H2            -37.0841484125       36.3008000614        5.4624083134  W2        3789            0.0000000000
     11368      3790  TIP3      OH2           -36.0239184125       35.6222200614        6.7116083134  W2        3790            0.0000000000
     11369      3790  TIP3      H1            -35.1255584125       35.3482400614        6.5269483134  W2        3790            0.0000000000
     11370      3790  TIP3      H2            -36.4106084125       34.8798200614        7.1758683134  W2        3790            0.0000000000
     11371      3791  TIP3      OH2           -27.6026884125       34.9547500614        6.8938883134  W2        3791            0.0000000000
     11372      3791  TIP3      H1            -27.5259684125       34.5288200614        7.7476583134  W2        3791            0.0000000000
     11373      3791  TIP3      H2            -26.7090284125       34.9682200614        6.5512383134  W2        3791            0.0000000000
     11374      3792  TIP3      OH2            -4.0349884125       38.2025600614        0.3025683134  W2        3792            0.0000000000
     11375      3792  TIP3      H1             -3.9857684125       38.8126800614        1.0384783134  W2        3792            0.0000000000
     11376      3792  TIP3      H2             -3.6094784125       38.6636500614       -0.4203216866  W2        3792            0.0000000000
     11377      3793  TIP3      OH2           -16.4024384125       39.0969100614       -2.9580916866  W2        3793            0.0000000000
     11378      3793  TIP3      H1            -16.3593284125       39.9567600614       -3.3764616866  W2        3793            0.0000000000
     11379      3793  TIP3      H2            -16.8600284125       38.5443800614       -3.5917716866  W2        3793            0.0000000000
     11380      3794  TIP3      OH2            -8.6801684125       39.2274700614       -4.5572616866  W2        3794            0.0000000000
     11381      3794  TIP3      H1             -8.0337384125       38.8987900614       -3.9325016866  W2        3794            0.0000000000
     11382      3794  TIP3      H2             -8.1702284125       39.7453700614       -5.1801216866  W2        3794            0.0000000000
     11383      3795  TIP3      OH2            -3.6435284125       39.6804800614        2.5385483134  W2        3795            0.0000000000
     11384      3795  TIP3      H1             -4.3320684125       40.3385500614        2.4432083134  W2        3795            0.0000000000
     11385      3795  TIP3      H2             -3.6280684125       39.4832700614        3.4750883134  W2        3795            0.0000000000
     11386      3796  TIP3      OH2           -17.5922484125       38.0147500614        1.1159883134  W2        3796            0.0000000000
     11387      3796  TIP3      H1            -17.8110784125       38.5448100614        0.3495883134  W2        3796            0.0000000000
     11388      3796  TIP3      H2            -18.2601584125       38.2413000614        1.7631283134  W2        3796            0.0000000000
     11389      3797  TIP3      OH2            -6.9163284125       38.5184000614       -2.5766716866  W2        3797            0.0000000000
     11390      3797  TIP3      H1             -7.1315284125       37.7527400614       -2.0440716866  W2        3797            0.0000000000
     11391      3797  TIP3      H2             -6.2605884125       38.9908600614       -2.0638216866  W2        3797            0.0000000000
     11392      3798  TIP3      OH2           -17.9985184125       39.9069300614       -0.9317916866  W2        3798            0.0000000000
     11393      3798  TIP3      H1            -17.3848884125       40.5396900614       -0.5585516866  W2        3798            0.0000000000
     11394      3798  TIP3      H2            -17.4864484125       39.4344300614       -1.5881016866  W2        3798            0.0000000000
     11395      3799  TIP3      OH2            -6.5689184125       37.2335300614        1.1026783134  W2        3799            0.0000000000
     11396      3799  TIP3      H1             -7.3049984125       37.8442400614        1.0648083134  W2        3799            0.0000000000
     11397      3799  TIP3      H2             -5.8855184125       37.6484300614        0.5763183134  W2        3799            0.0000000000
     11398      3800  TIP3      OH2           -13.5657784125       35.3202600614       -1.4315216866  W2        3800            0.0000000000
     11399      3800  TIP3      H1            -13.6833584125       34.3718600614       -1.4856916866  W2        3800            0.0000000000
     11400      3800  TIP3      H2            -14.4207684125       35.6528700614       -1.1584116866  W2        3800            0.0000000000
     11401      3801  TIP3      OH2            -5.3237284125       35.2794800614       -8.4812616866  W2        3801            0.0000000000
     11402      3801  TIP3      H1             -6.2236584125       35.4183800614       -8.1862016866  W2        3801            0.0000000000
     11403      3801  TIP3      H2             -5.0718884125       36.1109400614       -8.8830916866  W2        3801            0.0000000000
     11404      3802  TIP3      OH2           -16.2970184125       36.2237100614       -0.6538916866  W2        3802            0.0000000000
     11405      3802  TIP3      H1            -17.1586484125       36.1365300614       -1.0616016866  W2        3802            0.0000000000
     11406      3802  TIP3      H2            -16.3194484125       37.0797200614       -0.2261316866  W2        3802            0.0000000000
     11407      3803  TIP3      OH2           -11.6342384125       35.9457500614        2.7208083134  W2        3803            0.0000000000
     11408      3803  TIP3      H1            -11.2139284125       35.5304600614        3.4738683134  W2        3803            0.0000000000
     11409      3803  TIP3      H2            -12.5672784125       35.7670800614        2.8380083134  W2        3803            0.0000000000
     11410      3804  TIP3      OH2            -8.3077484125       39.7012700614        3.5742583134  W2        3804            0.0000000000
     11411      3804  TIP3      H1             -8.8217984125       39.5754900614        4.3718583134  W2        3804            0.0000000000
     11412      3804  TIP3      H2             -8.4632784125       40.6135800614        3.3298783134  W2        3804            0.0000000000
     11413      3805  TIP3      OH2           -11.9725084125       38.4380900614       -9.9941116866  W2        3805            0.0000000000
     11414      3805  TIP3      H1            -12.2260284125       38.4572500614       -9.0713016866  W2        3805            0.0000000000
     11415      3805  TIP3      H2            -12.2292984125       37.5666300614      -10.2954916866  W2        3805            0.0000000000
     11416      3806  TIP3      OH2           -15.0902184125       38.8837400614      -10.8930716866  W2        3806            0.0000000000
     11417      3806  TIP3      H1            -15.5211484125       38.4387500614      -10.1633316866  W2        3806            0.0000000000
     11418      3806  TIP3      H2            -15.8083484125       39.2553700614      -11.4053216866  W2        3806            0.0000000000
     11419      3807  TIP3      OH2           -21.8478784125       38.6256900614       -3.8412016866  W2        3807            0.0000000000
     11420      3807  TIP3      H1            -21.2171084125       38.5969000614       -3.1218116866  W2        3807            0.0000000000
     11421      3807  TIP3      H2            -21.3984484125       38.2005600614       -4.5716116866  W2        3807            0.0000000000
     11422      3808  TIP3      OH2           -20.5736684125       39.3718900614       -8.4171616866  W2        3808            0.0000000000
     11423      3808  TIP3      H1            -20.0994984125       39.9628800614       -9.0020716866  W2        3808            0.0000000000
     11424      3808  TIP3      H2            -21.2910284125       39.9021800614       -8.0701516866  W2        3808            0.0000000000
     11425      3809  TIP3      OH2           -13.6275684125       38.8379200614       -3.5604616866  W2        3809            0.0000000000
     11426      3809  TIP3      H1            -14.5384584125       38.8946000614       -3.2718616866  W2        3809            0.0000000000
     11427      3809  TIP3      H2            -13.1222784125       38.7774700614       -2.7497416866  W2        3809            0.0000000000
     11428      3810  TIP3      OH2           -18.7992284125       40.4665500614       -4.7337016866  W2        3810            0.0000000000
     11429      3810  TIP3      H1            -19.6884284125       40.5661000614       -5.0737416866  W2        3810            0.0000000000
     11430      3810  TIP3      H2            -18.5027384125       39.6248500614       -5.0799116866  W2        3810            0.0000000000
     11431      3811  TIP3      OH2           -15.1460484125       40.4668100614       -7.0772416866  W2        3811            0.0000000000
     11432      3811  TIP3      H1            -14.2144984125       40.5958100614       -6.8989316866  W2        3811            0.0000000000
     11433      3811  TIP3      H2            -15.3610184125       41.1362400614       -7.7267716866  W2        3811            0.0000000000
     11434      3812  TIP3      OH2            -9.2223784125       38.0725500614       -0.2962816866  W2        3812            0.0000000000
     11435      3812  TIP3      H1             -9.8992184125       38.2038600614        0.3676883134  W2        3812            0.0000000000
     11436      3812  TIP3      H2             -9.7078884125       37.9175000614       -1.1065116866  W2        3812            0.0000000000
     11437      3813  TIP3      OH2           -17.3056284125       37.7618300614       -5.2550216866  W2        3813            0.0000000000
     11438      3813  TIP3      H1            -17.6226784125       36.8593600614       -5.2904816866  W2        3813            0.0000000000
     11439      3813  TIP3      H2            -16.5242184125       37.7635700614       -5.8078616866  W2        3813            0.0000000000
     11440      3814  TIP3      OH2           -13.6810084125       40.0138300614        0.7405383134  W2        3814            0.0000000000
     11441      3814  TIP3      H1            -14.5164784125       40.4677800614        0.8507783134  W2        3814            0.0000000000
     11442      3814  TIP3      H2            -13.1569484125       40.2896800614        1.4925283134  W2        3814            0.0000000000
     11443      3815  TIP3      OH2            -9.2390684125       39.0405900614       -9.3755616866  W2        3815            0.0000000000
     11444      3815  TIP3      H1            -10.1776484125       39.1521500614       -9.5266816866  W2        3815            0.0000000000
     11445      3815  TIP3      H2             -8.9418584125       39.8972800614       -9.0689916866  W2        3815            0.0000000000
     11446      3816  TIP3      OH2           -19.3699984125       38.7355600614        3.0679583134  W2        3816            0.0000000000
     11447      3816  TIP3      H1            -20.2627684125       39.0741000614        3.0003583134  W2        3816            0.0000000000
     11448      3816  TIP3      H2            -19.4687184125       37.8801700614        3.4860383134  W2        3816            0.0000000000
     11449      3817  TIP3      OH2           -10.6356584125       38.4765900614        1.9578183134  W2        3817            0.0000000000
     11450      3817  TIP3      H1             -9.9368684125       38.5504600614        2.6077883134  W2        3817            0.0000000000
     11451      3817  TIP3      H2            -11.0165184125       37.6120900614        2.1121083134  W2        3817            0.0000000000
     11452      3818  TIP3      OH2            -9.8511684125       38.1287600614       -6.9449516866  W2        3818            0.0000000000
     11453      3818  TIP3      H1             -9.6313384125       38.6003000614       -7.7484116866  W2        3818            0.0000000000
     11454      3818  TIP3      H2             -9.2927684125       38.5230200614       -6.2748916866  W2        3818            0.0000000000
     11455      3819  TIP3      OH2           -12.6511784125       39.8566400614       -6.1101116866  W2        3819            0.0000000000
     11456      3819  TIP3      H1            -11.8389184125       40.3609600614       -6.0639416866  W2        3819            0.0000000000
     11457      3819  TIP3      H2            -12.8958784125       39.7116100614       -5.1961516866  W2        3819            0.0000000000
     11458      3820  TIP3      OH2           -12.1155384125       40.8429100614        3.0745483134  W2        3820            0.0000000000
     11459      3820  TIP3      H1            -11.9965084125       41.4164500614        3.8315883134  W2        3820            0.0000000000
     11460      3820  TIP3      H2            -11.4600784125       40.1548500614        3.1893283134  W2        3820            0.0000000000
     11461      3821  TIP3      OH2           -11.7675084125       36.9379400614       -5.1720016866  W2        3821            0.0000000000
     11462      3821  TIP3      H1            -12.1141584125       37.5550000614       -4.5275716866  W2        3821            0.0000000000
     11463      3821  TIP3      H2            -11.1088184125       37.4385100614       -5.6534516866  W2        3821            0.0000000000
     11464      3822  TIP3      OH2           -16.1098084125       38.0008800614       -8.4847516866  W2        3822            0.0000000000
     11465      3822  TIP3      H1            -16.1933284125       38.8891900614       -8.1381116866  W2        3822            0.0000000000
     11466      3822  TIP3      H2            -15.2197784125       37.7355500614       -8.2530716866  W2        3822            0.0000000000
     11467      3823  TIP3      OH2            -5.9109584125       38.7499400614        3.9095183134  W2        3823            0.0000000000
     11468      3823  TIP3      H1             -6.8273784125       39.0121100614        3.8218883134  W2        3823            0.0000000000
     11469      3823  TIP3      H2             -5.5754584125       38.7468400614        3.0130483134  W2        3823            0.0000000000
     11470      3824  TIP3      OH2           -18.7271584125       35.8740600614       -1.6352616866  W2        3824            0.0000000000
     11471      3824  TIP3      H1            -18.9561784125       35.9333100614       -2.5627616866  W2        3824            0.0000000000
     11472      3824  TIP3      H2            -19.1698184125       35.0826100614       -1.3288516866  W2        3824            0.0000000000
     11473      3825  TIP3      OH2           -15.4824584125       39.8015300614        4.6860783134  W2        3825            0.0000000000
     11474      3825  TIP3      H1            -15.3323684125       39.0726600614        4.0840483134  W2        3825            0.0000000000
     11475      3825  TIP3      H2            -15.4802184125       40.5787000614        4.1272983134  W2        3825            0.0000000000
     11476      3826  TIP3      OH2           -15.0698884125       38.1711100614        2.1788183134  W2        3826            0.0000000000
     11477      3826  TIP3      H1            -14.5341384125       38.6227800614        1.5267483134  W2        3826            0.0000000000
     11478      3826  TIP3      H2            -15.9219284125       38.0630900614        1.7562283134  W2        3826            0.0000000000
     11479      3827  TIP3      OH2           -14.2643384125       35.6276800614        2.6101783134  W2        3827            0.0000000000
     11480      3827  TIP3      H1            -14.3623784125       36.5740000614        2.5047983134  W2        3827            0.0000000000
     11481      3827  TIP3      H2            -15.0067184125       35.2550600614        2.1345283134  W2        3827            0.0000000000
     11482      3828  TIP3      OH2           -13.0002884125       39.9492200614        6.1740183134  W2        3828            0.0000000000
     11483      3828  TIP3      H1            -13.2357484125       39.7298900614        7.0755083134  W2        3828            0.0000000000
     11484      3828  TIP3      H2            -13.7835984125       39.7423400614        5.6642683134  W2        3828            0.0000000000
     11485      3829  TIP3      OH2           -10.2846284125       39.0765700614        5.2493683134  W2        3829            0.0000000000
     11486      3829  TIP3      H1            -11.2320884125       39.1085400614        5.3816983134  W2        3829            0.0000000000
     11487      3829  TIP3      H2             -9.9719584125       38.4512800614        5.9031883134  W2        3829            0.0000000000
     11488      3830  TIP3      OH2            -8.6504784125       37.7106800614        7.2545583134  W2        3830            0.0000000000
     11489      3830  TIP3      H1             -8.7472984125       36.7584100614        7.2487483134  W2        3830            0.0000000000
     11490      3830  TIP3      H2             -8.9721684125       37.9793600614        8.1151083134  W2        3830            0.0000000000
     11491      3831  TIP3      OH2           -18.8235484125       38.9202600614        6.3021083134  W2        3831            0.0000000000
     11492      3831  TIP3      H1            -18.6118084125       38.2138700614        5.6918583134  W2        3831            0.0000000000
     11493      3831  TIP3      H2            -18.9347984125       38.4828600614        7.1462283134  W2        3831            0.0000000000
     11494      3832  TIP3      OH2           -14.0425284125       34.9214200614        5.2814583134  W2        3832            0.0000000000
     11495      3832  TIP3      H1            -13.3306884125       34.2816400614        5.2673683134  W2        3832            0.0000000000
     11496      3832  TIP3      H2            -14.1434884125       35.1882500614        4.3677683134  W2        3832            0.0000000000
     11497      3833  TIP3      OH2           -13.6887784125       36.6042600614        7.3350883134  W2        3833            0.0000000000
     11498      3833  TIP3      H1            -13.8205584125       36.1286400614        6.5149383134  W2        3833            0.0000000000
     11499      3833  TIP3      H2            -14.2880384125       37.3486200614        7.2797983134  W2        3833            0.0000000000
     11500      3834  TIP3      OH2            -5.9324584125       38.6222800614      -11.1860616866  W2        3834            0.0000000000
     11501      3834  TIP3      H1             -5.3218784125       38.2509600614      -10.5492416866  W2        3834            0.0000000000
     11502      3834  TIP3      H2             -6.7693084125       38.2009700614      -10.9900616866  W2        3834            0.0000000000
     11503      3835  TIP3      OH2            -6.2998884125       40.1771200614       -6.2200716866  W2        3835            0.0000000000
     11504      3835  TIP3      H1             -6.0201784125       39.2701600614       -6.0959016866  W2        3835            0.0000000000
     11505      3835  TIP3      H2             -5.5407184125       40.6112700614       -6.6091516866  W2        3835            0.0000000000
     11506      3836  TIP3      OH2            -5.6880584125       40.7588600614       -0.7841816866  W2        3836            0.0000000000
     11507      3836  TIP3      H1             -4.7552584125       40.9708500614       -0.8185816866  W2        3836            0.0000000000
     11508      3836  TIP3      H2             -5.9233084125       40.8600700614        0.1381183134  W2        3836            0.0000000000
     11509      3837  TIP3      OH2           -21.3776484125       39.9432600614        5.4686783134  W2        3837            0.0000000000
     11510      3837  TIP3      H1            -20.4581584125       39.8210900614        5.7049883134  W2        3837            0.0000000000
     11511      3837  TIP3      H2            -21.8271984125       39.1932300614        5.8580283134  W2        3837            0.0000000000
     11512      3838  TIP3      OH2            -3.3757084125       35.4754100614        7.3452583134  W2        3838            0.0000000000
     11513      3838  TIP3      H1             -3.0260084125       34.8217600614        6.7397283134  W2        3838            0.0000000000
     11514      3838  TIP3      H2             -3.2287584125       36.3128200614        6.9055183134  W2        3838            0.0000000000
     11515      3839  TIP3      OH2            -5.6864084125       37.4400500614       -6.1718716866  W2        3839            0.0000000000
     11516      3839  TIP3      H1             -5.5039084125       36.9912000614       -5.3463716866  W2        3839            0.0000000000
     11517      3839  TIP3      H2             -6.2861184125       36.8554900614       -6.6354116866  W2        3839            0.0000000000
     11518      3840  TIP3      OH2           -20.1563984125       38.2554200614       -1.6400316866  W2        3840            0.0000000000
     11519      3840  TIP3      H1            -19.7112384125       37.4636700614       -1.3380616866  W2        3840            0.0000000000
     11520      3840  TIP3      H2            -19.6900984125       38.9719400614       -1.2094716866  W2        3840            0.0000000000
     11521      3841  TIP3      OH2            -3.8559884125       37.5848700614        5.6943883134  W2        3841            0.0000000000
     11522      3841  TIP3      H1             -4.7734184125       37.8555800614        5.6587383134  W2        3841            0.0000000000
     11523      3841  TIP3      H2             -3.7330484125       37.0497100614        4.9103583134  W2        3841            0.0000000000
     11524      3842  TIP3      OH2            -3.8197884125       37.5078600614       -9.6438416866  W2        3842            0.0000000000
     11525      3842  TIP3      H1             -3.4075284125       36.7864300614      -10.1190416866  W2        3842            0.0000000000
     11526      3842  TIP3      H2             -3.1381384125       38.1773200614       -9.5854116866  W2        3842            0.0000000000
     11527      3843  TIP3      OH2           -21.5387184125       37.5126300614       -6.5167716866  W2        3843            0.0000000000
     11528      3843  TIP3      H1            -22.4638784125       37.7212900614       -6.6462216866  W2        3843            0.0000000000
     11529      3843  TIP3      H2            -21.0847284125       37.9967100614       -7.2065416866  W2        3843            0.0000000000
     11530      3844  TIP3      OH2           -21.5751784125       36.2505300614        1.8274783134  W2        3844            0.0000000000
     11531      3844  TIP3      H1            -22.2401284125       36.0045600614        2.4705683134  W2        3844            0.0000000000
     11532      3844  TIP3      H2            -22.0180484125       36.8725700614        1.2502783134  W2        3844            0.0000000000
     11533      3845  TIP3      OH2            -4.8553984125       35.6745000614        3.5134683134  W2        3845            0.0000000000
     11534      3845  TIP3      H1             -5.6680484125       35.9995300614        3.1259383134  W2        3845            0.0000000000
     11535      3845  TIP3      H2             -4.6225484125       34.9143500614        2.9803783134  W2        3845            0.0000000000
     11536      3846  TIP3      OH2           -11.4255484125       37.1235600614       -2.1637116866  W2        3846            0.0000000000
     11537      3846  TIP3      H1            -12.0998684125       36.4941200614       -1.9081316866  W2        3846            0.0000000000
     11538      3846  TIP3      H2            -10.8616284125       36.6394500614       -2.7669216866  W2        3846            0.0000000000
     11539      3847  TIP3      OH2            -6.2828284125       35.2309600614       -2.0510016866  W2        3847            0.0000000000
     11540      3847  TIP3      H1             -5.6790684125       35.7785000614       -2.5529016866  W2        3847            0.0000000000
     11541      3847  TIP3      H2             -7.1526284125       35.5500000614       -2.2915916866  W2        3847            0.0000000000
     11542      3848  TIP3      OH2            -4.5557884125       36.3698300614       -3.7179116866  W2        3848            0.0000000000
     11543      3848  TIP3      H1             -3.9440384125       35.8554000614       -4.2445516866  W2        3848            0.0000000000
     11544      3848  TIP3      H2             -4.1734484125       37.2470400614       -3.6944716866  W2        3848            0.0000000000
     11545      3849  TIP3      OH2           -19.0987984125       35.7575900614       -4.3417216866  W2        3849            0.0000000000
     11546      3849  TIP3      H1            -19.8758184125       35.5230800614       -4.8491316866  W2        3849            0.0000000000
     11547      3849  TIP3      H2            -18.5684384125       34.9608000614       -4.3329216866  W2        3849            0.0000000000
     11548      3850  TIP3      OH2           -20.2624584125       35.5554000614       -8.5381116866  W2        3850            0.0000000000
     11549      3850  TIP3      H1            -19.8233884125       36.1664500614       -9.1297616866  W2        3850            0.0000000000
     11550      3850  TIP3      H2            -20.8962184125       36.0938100614       -8.0641116866  W2        3850            0.0000000000
     11551      3851  TIP3      OH2           -14.5195384125       35.6843000614       -4.5284116866  W2        3851            0.0000000000
     11552      3851  TIP3      H1            -13.6451984125       36.0727300614       -4.5579816866  W2        3851            0.0000000000
     11553      3851  TIP3      H2            -14.6554584125       35.4690800614       -3.6056916866  W2        3851            0.0000000000
     11554      3852  TIP3      OH2            -8.9626984125       35.7142800614       -2.8792416866  W2        3852            0.0000000000
     11555      3852  TIP3      H1             -8.8865384125       35.8094400614       -3.8286416866  W2        3852            0.0000000000
     11556      3852  TIP3      H2             -9.2377784125       34.8065700614       -2.7503316866  W2        3852            0.0000000000
     11557      3853  TIP3      OH2            -7.6094384125       35.7400600614       -7.1867416866  W2        3853            0.0000000000
     11558      3853  TIP3      H1             -8.3123284125       36.3549800614       -7.3966016866  W2        3853            0.0000000000
     11559      3853  TIP3      H2             -8.0542984125       34.9027300614       -7.0556516866  W2        3853            0.0000000000
     11560      3854  TIP3      OH2           -18.4015484125       37.4715500614      -10.0957016866  W2        3854            0.0000000000
     11561      3854  TIP3      H1            -17.9102084125       36.8417900614      -10.6231516866  W2        3854            0.0000000000
     11562      3854  TIP3      H2            -17.7779184125       37.7674900614       -9.4325816866  W2        3854            0.0000000000
     11563      3855  TIP3      OH2           -13.3755384125       37.7647000614       -7.6386516866  W2        3855            0.0000000000
     11564      3855  TIP3      H1            -13.1974084125       37.1180200614       -6.9557916866  W2        3855            0.0000000000
     11565      3855  TIP3      H2            -13.4289184125       38.5984700614       -7.1715416866  W2        3855            0.0000000000
     11566      3856  TIP3      OH2           -19.1409984125       36.2717800614        5.1758983134  W2        3856            0.0000000000
     11567      3856  TIP3      H1            -19.5071784125       35.5060400614        5.6183683134  W2        3856            0.0000000000
     11568      3856  TIP3      H2            -18.2281484125       36.3008000614        5.4624083134  W2        3856            0.0000000000
     11569      3857  TIP3      OH2           -17.1679184125       35.6222200614        6.7116083134  W2        3857            0.0000000000
     11570      3857  TIP3      H1            -16.2695584125       35.3482400614        6.5269483134  W2        3857            0.0000000000
     11571      3857  TIP3      H2            -17.5546084125       34.8798200614        7.1758683134  W2        3857            0.0000000000
     11572      3858  TIP3      OH2            -8.7466884125       34.9547500614        6.8938883134  W2        3858            0.0000000000
     11573      3858  TIP3      H1             -8.6699684125       34.5288200614        7.7476583134  W2        3858            0.0000000000
     11574      3858  TIP3      H2             -7.8530284125       34.9682200614        6.5512383134  W2        3858            0.0000000000
     11575      3859  TIP3      OH2            14.8210115875       38.2025600614        0.3025683134  W2        3859            0.0000000000
     11576      3859  TIP3      H1             14.8702315875       38.8126800614        1.0384783134  W2        3859            0.0000000000
     11577      3859  TIP3      H2             15.2465215875       38.6636500614       -0.4203216866  W2        3859            0.0000000000
     11578      3860  TIP3      OH2             2.4535615875       39.0969100614       -2.9580916866  W2        3860            0.0000000000
     11579      3860  TIP3      H1              2.4966715875       39.9567600614       -3.3764616866  W2        3860            0.0000000000
     11580      3860  TIP3      H2              1.9959715875       38.5443800614       -3.5917716866  W2        3860            0.0000000000
     11581      3861  TIP3      OH2            10.1758315875       39.2274700614       -4.5572616866  W2        3861            0.0000000000
     11582      3861  TIP3      H1             10.8222615875       38.8987900614       -3.9325016866  W2        3861            0.0000000000
     11583      3861  TIP3      H2             10.6857715875       39.7453700614       -5.1801216866  W2        3861            0.0000000000
     11584      3862  TIP3      OH2            15.2124715875       39.6804800614        2.5385483134  W2        3862            0.0000000000
     11585      3862  TIP3      H1             14.5239315875       40.3385500614        2.4432083134  W2        3862            0.0000000000
     11586      3862  TIP3      H2             15.2279315875       39.4832700614        3.4750883134  W2        3862            0.0000000000
     11587      3863  TIP3      OH2             1.2637515875       38.0147500614        1.1159883134  W2        3863            0.0000000000
     11588      3863  TIP3      H1              1.0449215875       38.5448100614        0.3495883134  W2        3863            0.0000000000
     11589      3863  TIP3      H2              0.5958415875       38.2413000614        1.7631283134  W2        3863            0.0000000000
     11590      3864  TIP3      OH2            11.9396715875       38.5184000614       -2.5766716866  W2        3864            0.0000000000
     11591      3864  TIP3      H1             11.7244715875       37.7527400614       -2.0440716866  W2        3864            0.0000000000
     11592      3864  TIP3      H2             12.5954115875       38.9908600614       -2.0638216866  W2        3864            0.0000000000
     11593      3865  TIP3      OH2             0.8574815875       39.9069300614       -0.9317916866  W2        3865            0.0000000000
     11594      3865  TIP3      H1              1.4711115875       40.5396900614       -0.5585516866  W2        3865            0.0000000000
     11595      3865  TIP3      H2              1.3695515875       39.4344300614       -1.5881016866  W2        3865            0.0000000000
     11596      3866  TIP3      OH2            12.2870815875       37.2335300614        1.1026783134  W2        3866            0.0000000000
     11597      3866  TIP3      H1             11.5510015875       37.8442400614        1.0648083134  W2        3866            0.0000000000
     11598      3866  TIP3      H2             12.9704815875       37.6484300614        0.5763183134  W2        3866            0.0000000000
     11599      3867  TIP3      OH2             5.2902215875       35.3202600614       -1.4315216866  W2        3867            0.0000000000
     11600      3867  TIP3      H1              5.1726415875       34.3718600614       -1.4856916866  W2        3867            0.0000000000
     11601      3867  TIP3      H2              4.4352315875       35.6528700614       -1.1584116866  W2        3867            0.0000000000
     11602      3868  TIP3      OH2            13.5322715875       35.2794800614       -8.4812616866  W2        3868            0.0000000000
     11603      3868  TIP3      H1             12.6323415875       35.4183800614       -8.1862016866  W2        3868            0.0000000000
     11604      3868  TIP3      H2             13.7841115875       36.1109400614       -8.8830916866  W2        3868            0.0000000000
     11605      3869  TIP3      OH2             2.5589815875       36.2237100614       -0.6538916866  W2        3869            0.0000000000
     11606      3869  TIP3      H1              1.6973515875       36.1365300614       -1.0616016866  W2        3869            0.0000000000
     11607      3869  TIP3      H2              2.5365515875       37.0797200614       -0.2261316866  W2        3869            0.0000000000
     11608      3870  TIP3      OH2             7.2217615875       35.9457500614        2.7208083134  W2        3870            0.0000000000
     11609      3870  TIP3      H1              7.6420715875       35.5304600614        3.4738683134  W2        3870            0.0000000000
     11610      3870  TIP3      H2              6.2887215875       35.7670800614        2.8380083134  W2        3870            0.0000000000
     11611      3871  TIP3      OH2            10.5482515875       39.7012700614        3.5742583134  W2        3871            0.0000000000
     11612      3871  TIP3      H1             10.0342015875       39.5754900614        4.3718583134  W2        3871            0.0000000000
     11613      3871  TIP3      H2             10.3927215875       40.6135800614        3.3298783134  W2        3871            0.0000000000
     11614      3872  TIP3      OH2             6.8834915875       38.4380900614       -9.9941116866  W2        3872            0.0000000000
     11615      3872  TIP3      H1              6.6299715875       38.4572500614       -9.0713016866  W2        3872            0.0000000000
     11616      3872  TIP3      H2              6.6267015875       37.5666300614      -10.2954916866  W2        3872            0.0000000000
     11617      3873  TIP3      OH2             3.7657815875       38.8837400614      -10.8930716866  W2        3873            0.0000000000
     11618      3873  TIP3      H1              3.3348515875       38.4387500614      -10.1633316866  W2        3873            0.0000000000
     11619      3873  TIP3      H2              3.0476515875       39.2553700614      -11.4053216866  W2        3873            0.0000000000
     11620      3874  TIP3      OH2            -2.9918784125       38.6256900614       -3.8412016866  W2        3874            0.0000000000
     11621      3874  TIP3      H1             -2.3611084125       38.5969000614       -3.1218116866  W2        3874            0.0000000000
     11622      3874  TIP3      H2             -2.5424484125       38.2005600614       -4.5716116866  W2        3874            0.0000000000
     11623      3875  TIP3      OH2            -1.7176684125       39.3718900614       -8.4171616866  W2        3875            0.0000000000
     11624      3875  TIP3      H1             -1.2434984125       39.9628800614       -9.0020716866  W2        3875            0.0000000000
     11625      3875  TIP3      H2             -2.4350284125       39.9021800614       -8.0701516866  W2        3875            0.0000000000
     11626      3876  TIP3      OH2             5.2284315875       38.8379200614       -3.5604616866  W2        3876            0.0000000000
     11627      3876  TIP3      H1              4.3175415875       38.8946000614       -3.2718616866  W2        3876            0.0000000000
     11628      3876  TIP3      H2              5.7337215875       38.7774700614       -2.7497416866  W2        3876            0.0000000000
     11629      3877  TIP3      OH2             0.0567715875       40.4665500614       -4.7337016866  W2        3877            0.0000000000
     11630      3877  TIP3      H1             -0.8324284125       40.5661000614       -5.0737416866  W2        3877            0.0000000000
     11631      3877  TIP3      H2              0.3532615875       39.6248500614       -5.0799116866  W2        3877            0.0000000000
     11632      3878  TIP3      OH2             3.7099515875       40.4668100614       -7.0772416866  W2        3878            0.0000000000
     11633      3878  TIP3      H1              4.6415015875       40.5958100614       -6.8989316866  W2        3878            0.0000000000
     11634      3878  TIP3      H2              3.4949815875       41.1362400614       -7.7267716866  W2        3878            0.0000000000
     11635      3879  TIP3      OH2             9.6336215875       38.0725500614       -0.2962816866  W2        3879            0.0000000000
     11636      3879  TIP3      H1              8.9567815875       38.2038600614        0.3676883134  W2        3879            0.0000000000
     11637      3879  TIP3      H2              9.1481115875       37.9175000614       -1.1065116866  W2        3879            0.0000000000
     11638      3880  TIP3      OH2             1.5503715875       37.7618300614       -5.2550216866  W2        3880            0.0000000000
     11639      3880  TIP3      H1              1.2333215875       36.8593600614       -5.2904816866  W2        3880            0.0000000000
     11640      3880  TIP3      H2              2.3317815875       37.7635700614       -5.8078616866  W2        3880            0.0000000000
     11641      3881  TIP3      OH2             5.1749915875       40.0138300614        0.7405383134  W2        3881            0.0000000000
     11642      3881  TIP3      H1              4.3395215875       40.4677800614        0.8507783134  W2        3881            0.0000000000
     11643      3881  TIP3      H2              5.6990515875       40.2896800614        1.4925283134  W2        3881            0.0000000000
     11644      3882  TIP3      OH2             9.6169315875       39.0405900614       -9.3755616866  W2        3882            0.0000000000
     11645      3882  TIP3      H1              8.6783515875       39.1521500614       -9.5266816866  W2        3882            0.0000000000
     11646      3882  TIP3      H2              9.9141415875       39.8972800614       -9.0689916866  W2        3882            0.0000000000
     11647      3883  TIP3      OH2            -0.5139984125       38.7355600614        3.0679583134  W2        3883            0.0000000000
     11648      3883  TIP3      H1             -1.4067684125       39.0741000614        3.0003583134  W2        3883            0.0000000000
     11649      3883  TIP3      H2             -0.6127184125       37.8801700614        3.4860383134  W2        3883            0.0000000000
     11650      3884  TIP3      OH2             8.2203415875       38.4765900614        1.9578183134  W2        3884            0.0000000000
     11651      3884  TIP3      H1              8.9191315875       38.5504600614        2.6077883134  W2        3884            0.0000000000
     11652      3884  TIP3      H2              7.8394815875       37.6120900614        2.1121083134  W2        3884            0.0000000000
     11653      3885  TIP3      OH2             9.0048315875       38.1287600614       -6.9449516866  W2        3885            0.0000000000
     11654      3885  TIP3      H1              9.2246615875       38.6003000614       -7.7484116866  W2        3885            0.0000000000
     11655      3885  TIP3      H2              9.5632315875       38.5230200614       -6.2748916866  W2        3885            0.0000000000
     11656      3886  TIP3      OH2             6.2048215875       39.8566400614       -6.1101116866  W2        3886            0.0000000000
     11657      3886  TIP3      H1              7.0170815875       40.3609600614       -6.0639416866  W2        3886            0.0000000000
     11658      3886  TIP3      H2              5.9601215875       39.7116100614       -5.1961516866  W2        3886            0.0000000000
     11659      3887  TIP3      OH2             6.7404615875       40.8429100614        3.0745483134  W2        3887            0.0000000000
     11660      3887  TIP3      H1              6.8594915875       41.4164500614        3.8315883134  W2        3887            0.0000000000
     11661      3887  TIP3      H2              7.3959215875       40.1548500614        3.1893283134  W2        3887            0.0000000000
     11662      3888  TIP3      OH2             7.0884915875       36.9379400614       -5.1720016866  W2        3888            0.0000000000
     11663      3888  TIP3      H1              6.7418415875       37.5550000614       -4.5275716866  W2        3888            0.0000000000
     11664      3888  TIP3      H2              7.7471815875       37.4385100614       -5.6534516866  W2        3888            0.0000000000
     11665      3889  TIP3      OH2             2.7461915875       38.0008800614       -8.4847516866  W2        3889            0.0000000000
     11666      3889  TIP3      H1              2.6626715875       38.8891900614       -8.1381116866  W2        3889            0.0000000000
     11667      3889  TIP3      H2              3.6362215875       37.7355500614       -8.2530716866  W2        3889            0.0000000000
     11668      3890  TIP3      OH2            12.9450415875       38.7499400614        3.9095183134  W2        3890            0.0000000000
     11669      3890  TIP3      H1             12.0286215875       39.0121100614        3.8218883134  W2        3890            0.0000000000
     11670      3890  TIP3      H2             13.2805415875       38.7468400614        3.0130483134  W2        3890            0.0000000000
     11671      3891  TIP3      OH2             0.1288415875       35.8740600614       -1.6352616866  W2        3891            0.0000000000
     11672      3891  TIP3      H1             -0.1001784125       35.9333100614       -2.5627616866  W2        3891            0.0000000000
     11673      3891  TIP3      H2             -0.3138184125       35.0826100614       -1.3288516866  W2        3891            0.0000000000
     11674      3892  TIP3      OH2             3.3735415875       39.8015300614        4.6860783134  W2        3892            0.0000000000
     11675      3892  TIP3      H1              3.5236315875       39.0726600614        4.0840483134  W2        3892            0.0000000000
     11676      3892  TIP3      H2              3.3757815875       40.5787000614        4.1272983134  W2        3892            0.0000000000
     11677      3893  TIP3      OH2             3.7861115875       38.1711100614        2.1788183134  W2        3893            0.0000000000
     11678      3893  TIP3      H1              4.3218615875       38.6227800614        1.5267483134  W2        3893            0.0000000000
     11679      3893  TIP3      H2              2.9340715875       38.0630900614        1.7562283134  W2        3893            0.0000000000
     11680      3894  TIP3      OH2             4.5916615875       35.6276800614        2.6101783134  W2        3894            0.0000000000
     11681      3894  TIP3      H1              4.4936215875       36.5740000614        2.5047983134  W2        3894            0.0000000000
     11682      3894  TIP3      H2              3.8492815875       35.2550600614        2.1345283134  W2        3894            0.0000000000
     11683      3895  TIP3      OH2             5.8557115875       39.9492200614        6.1740183134  W2        3895            0.0000000000
     11684      3895  TIP3      H1              5.6202515875       39.7298900614        7.0755083134  W2        3895            0.0000000000
     11685      3895  TIP3      H2              5.0724015875       39.7423400614        5.6642683134  W2        3895            0.0000000000
     11686      3896  TIP3      OH2             8.5713715875       39.0765700614        5.2493683134  W2        3896            0.0000000000
     11687      3896  TIP3      H1              7.6239115875       39.1085400614        5.3816983134  W2        3896            0.0000000000
     11688      3896  TIP3      H2              8.8840415875       38.4512800614        5.9031883134  W2        3896            0.0000000000
     11689      3897  TIP3      OH2            10.2055215875       37.7106800614        7.2545583134  W2        3897            0.0000000000
     11690      3897  TIP3      H1             10.1087015875       36.7584100614        7.2487483134  W2        3897            0.0000000000
     11691      3897  TIP3      H2              9.8838315875       37.9793600614        8.1151083134  W2        3897            0.0000000000
     11692      3898  TIP3      OH2             0.0324515875       38.9202600614        6.3021083134  W2        3898            0.0000000000
     11693      3898  TIP3      H1              0.2441915875       38.2138700614        5.6918583134  W2        3898            0.0000000000
     11694      3898  TIP3      H2             -0.0787984125       38.4828600614        7.1462283134  W2        3898            0.0000000000
     11695      3899  TIP3      OH2             4.8134715875       34.9214200614        5.2814583134  W2        3899            0.0000000000
     11696      3899  TIP3      H1              5.5253115875       34.2816400614        5.2673683134  W2        3899            0.0000000000
     11697      3899  TIP3      H2              4.7125115875       35.1882500614        4.3677683134  W2        3899            0.0000000000
     11698      3900  TIP3      OH2             5.1672215875       36.6042600614        7.3350883134  W2        3900            0.0000000000
     11699      3900  TIP3      H1              5.0354415875       36.1286400614        6.5149383134  W2        3900            0.0000000000
     11700      3900  TIP3      H2              4.5679615875       37.3486200614        7.2797983134  W2        3900            0.0000000000
     11701      3901  TIP3      OH2            12.9235415875       38.6222800614      -11.1860616866  W2        3901            0.0000000000
     11702      3901  TIP3      H1             13.5341215875       38.2509600614      -10.5492416866  W2        3901            0.0000000000
     11703      3901  TIP3      H2             12.0866915875       38.2009700614      -10.9900616866  W2        3901            0.0000000000
     11704      3902  TIP3      OH2            12.5561115875       40.1771200614       -6.2200716866  W2        3902            0.0000000000
     11705      3902  TIP3      H1             12.8358215875       39.2701600614       -6.0959016866  W2        3902            0.0000000000
     11706      3902  TIP3      H2             13.3152815875       40.6112700614       -6.6091516866  W2        3902            0.0000000000
     11707      3903  TIP3      OH2            13.1679415875       40.7588600614       -0.7841816866  W2        3903            0.0000000000
     11708      3903  TIP3      H1             14.1007415875       40.9708500614       -0.8185816866  W2        3903            0.0000000000
     11709      3903  TIP3      H2             12.9326915875       40.8600700614        0.1381183134  W2        3903            0.0000000000
     11710      3904  TIP3      OH2            -2.5216484125       39.9432600614        5.4686783134  W2        3904            0.0000000000
     11711      3904  TIP3      H1             -1.6021584125       39.8210900614        5.7049883134  W2        3904            0.0000000000
     11712      3904  TIP3      H2             -2.9711984125       39.1932300614        5.8580283134  W2        3904            0.0000000000
     11713      3905  TIP3      OH2            15.4802915875       35.4754100614        7.3452583134  W2        3905            0.0000000000
     11714      3905  TIP3      H1             15.8299915875       34.8217600614        6.7397283134  W2        3905            0.0000000000
     11715      3905  TIP3      H2             15.6272415875       36.3128200614        6.9055183134  W2        3905            0.0000000000
     11716      3906  TIP3      OH2            13.1695915875       37.4400500614       -6.1718716866  W2        3906            0.0000000000
     11717      3906  TIP3      H1             13.3520915875       36.9912000614       -5.3463716866  W2        3906            0.0000000000
     11718      3906  TIP3      H2             12.5698815875       36.8554900614       -6.6354116866  W2        3906            0.0000000000
     11719      3907  TIP3      OH2            -1.3003984125       38.2554200614       -1.6400316866  W2        3907            0.0000000000
     11720      3907  TIP3      H1             -0.8552384125       37.4636700614       -1.3380616866  W2        3907            0.0000000000
     11721      3907  TIP3      H2             -0.8340984125       38.9719400614       -1.2094716866  W2        3907            0.0000000000
     11722      3908  TIP3      OH2            15.0000115875       37.5848700614        5.6943883134  W2        3908            0.0000000000
     11723      3908  TIP3      H1             14.0825815875       37.8555800614        5.6587383134  W2        3908            0.0000000000
     11724      3908  TIP3      H2             15.1229515875       37.0497100614        4.9103583134  W2        3908            0.0000000000
     11725      3909  TIP3      OH2            15.0362115875       37.5078600614       -9.6438416866  W2        3909            0.0000000000
     11726      3909  TIP3      H1             15.4484715875       36.7864300614      -10.1190416866  W2        3909            0.0000000000
     11727      3909  TIP3      H2             15.7178615875       38.1773200614       -9.5854116866  W2        3909            0.0000000000
     11728      3910  TIP3      OH2            -2.6827184125       37.5126300614       -6.5167716866  W2        3910            0.0000000000
     11729      3910  TIP3      H1             -3.6078784125       37.7212900614       -6.6462216866  W2        3910            0.0000000000
     11730      3910  TIP3      H2             -2.2287284125       37.9967100614       -7.2065416866  W2        3910            0.0000000000
     11731      3911  TIP3      OH2            -2.7191784125       36.2505300614        1.8274783134  W2        3911            0.0000000000
     11732      3911  TIP3      H1             -3.3841284125       36.0045600614        2.4705683134  W2        3911            0.0000000000
     11733      3911  TIP3      H2             -3.1620484125       36.8725700614        1.2502783134  W2        3911            0.0000000000
     11734      3912  TIP3      OH2            14.0006015875       35.6745000614        3.5134683134  W2        3912            0.0000000000
     11735      3912  TIP3      H1             13.1879515875       35.9995300614        3.1259383134  W2        3912            0.0000000000
     11736      3912  TIP3      H2             14.2334515875       34.9143500614        2.9803783134  W2        3912            0.0000000000
     11737      3913  TIP3      OH2             7.4304515875       37.1235600614       -2.1637116866  W2        3913            0.0000000000
     11738      3913  TIP3      H1              6.7561315875       36.4941200614       -1.9081316866  W2        3913            0.0000000000
     11739      3913  TIP3      H2              7.9943715875       36.6394500614       -2.7669216866  W2        3913            0.0000000000
     11740      3914  TIP3      OH2            12.5731715875       35.2309600614       -2.0510016866  W2        3914            0.0000000000
     11741      3914  TIP3      H1             13.1769315875       35.7785000614       -2.5529016866  W2        3914            0.0000000000
     11742      3914  TIP3      H2             11.7033715875       35.5500000614       -2.2915916866  W2        3914            0.0000000000
     11743      3915  TIP3      OH2            14.3002115875       36.3698300614       -3.7179116866  W2        3915            0.0000000000
     11744      3915  TIP3      H1             14.9119615875       35.8554000614       -4.2445516866  W2        3915            0.0000000000
     11745      3915  TIP3      H2             14.6825515875       37.2470400614       -3.6944716866  W2        3915            0.0000000000
     11746      3916  TIP3      OH2            -0.2427984125       35.7575900614       -4.3417216866  W2        3916            0.0000000000
     11747      3916  TIP3      H1             -1.0198184125       35.5230800614       -4.8491316866  W2        3916            0.0000000000
     11748      3916  TIP3      H2              0.2875615875       34.9608000614       -4.3329216866  W2        3916            0.0000000000
     11749      3917  TIP3      OH2            -1.4064584125       35.5554000614       -8.5381116866  W2        3917            0.0000000000
     11750      3917  TIP3      H1             -0.9673884125       36.1664500614       -9.1297616866  W2        3917            0.0000000000
     11751      3917  TIP3      H2             -2.0402184125       36.0938100614       -8.0641116866  W2        3917            0.0000000000
     11752      3918  TIP3      OH2             4.3364615875       35.6843000614       -4.5284116866  W2        3918            0.0000000000
     11753      3918  TIP3      H1              5.2108015875       36.0727300614       -4.5579816866  W2        3918            0.0000000000
     11754      3918  TIP3      H2              4.2005415875       35.4690800614       -3.6056916866  W2        3918            0.0000000000
     11755      3919  TIP3      OH2             9.8933015875       35.7142800614       -2.8792416866  W2        3919            0.0000000000
     11756      3919  TIP3      H1              9.9694615875       35.8094400614       -3.8286416866  W2        3919            0.0000000000
     11757      3919  TIP3      H2              9.6182215875       34.8065700614       -2.7503316866  W2        3919            0.0000000000
     11758      3920  TIP3      OH2            11.2465615875       35.7400600614       -7.1867416866  W2        3920            0.0000000000
     11759      3920  TIP3      H1             10.5436715875       36.3549800614       -7.3966016866  W2        3920            0.0000000000
     11760      3920  TIP3      H2             10.8017015875       34.9027300614       -7.0556516866  W2        3920            0.0000000000
     11761      3921  TIP3      OH2             0.4544515875       37.4715500614      -10.0957016866  W2        3921            0.0000000000
     11762      3921  TIP3      H1              0.9457915875       36.8417900614      -10.6231516866  W2        3921            0.0000000000
     11763      3921  TIP3      H2              1.0780815875       37.7674900614       -9.4325816866  W2        3921            0.0000000000
     11764      3922  TIP3      OH2             5.4804615875       37.7647000614       -7.6386516866  W2        3922            0.0000000000
     11765      3922  TIP3      H1              5.6585915875       37.1180200614       -6.9557916866  W2        3922            0.0000000000
     11766      3922  TIP3      H2              5.4270815875       38.5984700614       -7.1715416866  W2        3922            0.0000000000
     11767      3923  TIP3      OH2            -0.2849984125       36.2717800614        5.1758983134  W2        3923            0.0000000000
     11768      3923  TIP3      H1             -0.6511784125       35.5060400614        5.6183683134  W2        3923            0.0000000000
     11769      3923  TIP3      H2              0.6278515875       36.3008000614        5.4624083134  W2        3923            0.0000000000
     11770      3924  TIP3      OH2             1.6880815875       35.6222200614        6.7116083134  W2        3924            0.0000000000
     11771      3924  TIP3      H1              2.5864415875       35.3482400614        6.5269483134  W2        3924            0.0000000000
     11772      3924  TIP3      H2              1.3013915875       34.8798200614        7.1758683134  W2        3924            0.0000000000
     11773      3925  TIP3      OH2            10.1093115875       34.9547500614        6.8938883134  W2        3925            0.0000000000
     11774      3925  TIP3      H1             10.1860315875       34.5288200614        7.7476583134  W2        3925            0.0000000000
     11775      3925  TIP3      H2             11.0029715875       34.9682200614        6.5512383134  W2        3925            0.0000000000
     11776      3926  TIP3      OH2            33.6770115875       38.2025600614        0.3025683134  W2        3926            0.0000000000
     11777      3926  TIP3      H1             33.7262315875       38.8126800614        1.0384783134  W2        3926            0.0000000000
     11778      3926  TIP3      H2             34.1025215875       38.6636500614       -0.4203216866  W2        3926            0.0000000000
     11779      3927  TIP3      OH2            21.3095615875       39.0969100614       -2.9580916866  W2        3927            0.0000000000
     11780      3927  TIP3      H1             21.3526715875       39.9567600614       -3.3764616866  W2        3927            0.0000000000
     11781      3927  TIP3      H2             20.8519715875       38.5443800614       -3.5917716866  W2        3927            0.0000000000
     11782      3928  TIP3      OH2            29.0318315875       39.2274700614       -4.5572616866  W2        3928            0.0000000000
     11783      3928  TIP3      H1             29.6782615875       38.8987900614       -3.9325016866  W2        3928            0.0000000000
     11784      3928  TIP3      H2             29.5417715875       39.7453700614       -5.1801216866  W2        3928            0.0000000000
     11785      3929  TIP3      OH2            34.0684715875       39.6804800614        2.5385483134  W2        3929            0.0000000000
     11786      3929  TIP3      H1             33.3799315875       40.3385500614        2.4432083134  W2        3929            0.0000000000
     11787      3929  TIP3      H2             34.0839315875       39.4832700614        3.4750883134  W2        3929            0.0000000000
     11788      3930  TIP3      OH2            20.1197515875       38.0147500614        1.1159883134  W2        3930            0.0000000000
     11789      3930  TIP3      H1             19.9009215875       38.5448100614        0.3495883134  W2        3930            0.0000000000
     11790      3930  TIP3      H2             19.4518415875       38.2413000614        1.7631283134  W2        3930            0.0000000000
     11791      3931  TIP3      OH2            30.7956715875       38.5184000614       -2.5766716866  W2        3931            0.0000000000
     11792      3931  TIP3      H1             30.5804715875       37.7527400614       -2.0440716866  W2        3931            0.0000000000
     11793      3931  TIP3      H2             31.4514115875       38.9908600614       -2.0638216866  W2        3931            0.0000000000
     11794      3932  TIP3      OH2            19.7134815875       39.9069300614       -0.9317916866  W2        3932            0.0000000000
     11795      3932  TIP3      H1             20.3271115875       40.5396900614       -0.5585516866  W2        3932            0.0000000000
     11796      3932  TIP3      H2             20.2255515875       39.4344300614       -1.5881016866  W2        3932            0.0000000000
     11797      3933  TIP3      OH2            31.1430815875       37.2335300614        1.1026783134  W2        3933            0.0000000000
     11798      3933  TIP3      H1             30.4070015875       37.8442400614        1.0648083134  W2        3933            0.0000000000
     11799      3933  TIP3      H2             31.8264815875       37.6484300614        0.5763183134  W2        3933            0.0000000000
     11800      3934  TIP3      OH2            24.1462215875       35.3202600614       -1.4315216866  W2        3934            0.0000000000
     11801      3934  TIP3      H1             24.0286415875       34.3718600614       -1.4856916866  W2        3934            0.0000000000
     11802      3934  TIP3      H2             23.2912315875       35.6528700614       -1.1584116866  W2        3934            0.0000000000
     11803      3935  TIP3      OH2            32.3882715875       35.2794800614       -8.4812616866  W2        3935            0.0000000000
     11804      3935  TIP3      H1             31.4883415875       35.4183800614       -8.1862016866  W2        3935            0.0000000000
     11805      3935  TIP3      H2             32.6401115875       36.1109400614       -8.8830916866  W2        3935            0.0000000000
     11806      3936  TIP3      OH2            21.4149815875       36.2237100614       -0.6538916866  W2        3936            0.0000000000
     11807      3936  TIP3      H1             20.5533515875       36.1365300614       -1.0616016866  W2        3936            0.0000000000
     11808      3936  TIP3      H2             21.3925515875       37.0797200614       -0.2261316866  W2        3936            0.0000000000
     11809      3937  TIP3      OH2            26.0777615875       35.9457500614        2.7208083134  W2        3937            0.0000000000
     11810      3937  TIP3      H1             26.4980715875       35.5304600614        3.4738683134  W2        3937            0.0000000000
     11811      3937  TIP3      H2             25.1447215875       35.7670800614        2.8380083134  W2        3937            0.0000000000
     11812      3938  TIP3      OH2            29.4042515875       39.7012700614        3.5742583134  W2        3938            0.0000000000
     11813      3938  TIP3      H1             28.8902015875       39.5754900614        4.3718583134  W2        3938            0.0000000000
     11814      3938  TIP3      H2             29.2487215875       40.6135800614        3.3298783134  W2        3938            0.0000000000
     11815      3939  TIP3      OH2            25.7394915875       38.4380900614       -9.9941116866  W2        3939            0.0000000000
     11816      3939  TIP3      H1             25.4859715875       38.4572500614       -9.0713016866  W2        3939            0.0000000000
     11817      3939  TIP3      H2             25.4827015875       37.5666300614      -10.2954916866  W2        3939            0.0000000000
     11818      3940  TIP3      OH2            22.6217815875       38.8837400614      -10.8930716866  W2        3940            0.0000000000
     11819      3940  TIP3      H1             22.1908515875       38.4387500614      -10.1633316866  W2        3940            0.0000000000
     11820      3940  TIP3      H2             21.9036515875       39.2553700614      -11.4053216866  W2        3940            0.0000000000
     11821      3941  TIP3      OH2            15.8641215875       38.6256900614       -3.8412016866  W2        3941            0.0000000000
     11822      3941  TIP3      H1             16.4948915875       38.5969000614       -3.1218116866  W2        3941            0.0000000000
     11823      3941  TIP3      H2             16.3135515875       38.2005600614       -4.5716116866  W2        3941            0.0000000000
     11824      3942  TIP3      OH2            17.1383315875       39.3718900614       -8.4171616866  W2        3942            0.0000000000
     11825      3942  TIP3      H1             17.6125015875       39.9628800614       -9.0020716866  W2        3942            0.0000000000
     11826      3942  TIP3      H2             16.4209715875       39.9021800614       -8.0701516866  W2        3942            0.0000000000
     11827      3943  TIP3      OH2            24.0844315875       38.8379200614       -3.5604616866  W2        3943            0.0000000000
     11828      3943  TIP3      H1             23.1735415875       38.8946000614       -3.2718616866  W2        3943            0.0000000000
     11829      3943  TIP3      H2             24.5897215875       38.7774700614       -2.7497416866  W2        3943            0.0000000000
     11830      3944  TIP3      OH2            18.9127715875       40.4665500614       -4.7337016866  W2        3944            0.0000000000
     11831      3944  TIP3      H1             18.0235715875       40.5661000614       -5.0737416866  W2        3944            0.0000000000
     11832      3944  TIP3      H2             19.2092615875       39.6248500614       -5.0799116866  W2        3944            0.0000000000
     11833      3945  TIP3      OH2            22.5659515875       40.4668100614       -7.0772416866  W2        3945            0.0000000000
     11834      3945  TIP3      H1             23.4975015875       40.5958100614       -6.8989316866  W2        3945            0.0000000000
     11835      3945  TIP3      H2             22.3509815875       41.1362400614       -7.7267716866  W2        3945            0.0000000000
     11836      3946  TIP3      OH2            28.4896215875       38.0725500614       -0.2962816866  W2        3946            0.0000000000
     11837      3946  TIP3      H1             27.8127815875       38.2038600614        0.3676883134  W2        3946            0.0000000000
     11838      3946  TIP3      H2             28.0041115875       37.9175000614       -1.1065116866  W2        3946            0.0000000000
     11839      3947  TIP3      OH2            20.4063715875       37.7618300614       -5.2550216866  W2        3947            0.0000000000
     11840      3947  TIP3      H1             20.0893215875       36.8593600614       -5.2904816866  W2        3947            0.0000000000
     11841      3947  TIP3      H2             21.1877815875       37.7635700614       -5.8078616866  W2        3947            0.0000000000
     11842      3948  TIP3      OH2            24.0309915875       40.0138300614        0.7405383134  W2        3948            0.0000000000
     11843      3948  TIP3      H1             23.1955215875       40.4677800614        0.8507783134  W2        3948            0.0000000000
     11844      3948  TIP3      H2             24.5550515875       40.2896800614        1.4925283134  W2        3948            0.0000000000
     11845      3949  TIP3      OH2            28.4729315875       39.0405900614       -9.3755616866  W2        3949            0.0000000000
     11846      3949  TIP3      H1             27.5343515875       39.1521500614       -9.5266816866  W2        3949            0.0000000000
     11847      3949  TIP3      H2             28.7701415875       39.8972800614       -9.0689916866  W2        3949            0.0000000000
     11848      3950  TIP3      OH2            18.3420015875       38.7355600614        3.0679583134  W2        3950            0.0000000000
     11849      3950  TIP3      H1             17.4492315875       39.0741000614        3.0003583134  W2        3950            0.0000000000
     11850      3950  TIP3      H2             18.2432815875       37.8801700614        3.4860383134  W2        3950            0.0000000000
     11851      3951  TIP3      OH2            27.0763415875       38.4765900614        1.9578183134  W2        3951            0.0000000000
     11852      3951  TIP3      H1             27.7751315875       38.5504600614        2.6077883134  W2        3951            0.0000000000
     11853      3951  TIP3      H2             26.6954815875       37.6120900614        2.1121083134  W2        3951            0.0000000000
     11854      3952  TIP3      OH2            27.8608315875       38.1287600614       -6.9449516866  W2        3952            0.0000000000
     11855      3952  TIP3      H1             28.0806615875       38.6003000614       -7.7484116866  W2        3952            0.0000000000
     11856      3952  TIP3      H2             28.4192315875       38.5230200614       -6.2748916866  W2        3952            0.0000000000
     11857      3953  TIP3      OH2            25.0608215875       39.8566400614       -6.1101116866  W2        3953            0.0000000000
     11858      3953  TIP3      H1             25.8730815875       40.3609600614       -6.0639416866  W2        3953            0.0000000000
     11859      3953  TIP3      H2             24.8161215875       39.7116100614       -5.1961516866  W2        3953            0.0000000000
     11860      3954  TIP3      OH2            25.5964615875       40.8429100614        3.0745483134  W2        3954            0.0000000000
     11861      3954  TIP3      H1             25.7154915875       41.4164500614        3.8315883134  W2        3954            0.0000000000
     11862      3954  TIP3      H2             26.2519215875       40.1548500614        3.1893283134  W2        3954            0.0000000000
     11863      3955  TIP3      OH2            25.9444915875       36.9379400614       -5.1720016866  W2        3955            0.0000000000
     11864      3955  TIP3      H1             25.5978415875       37.5550000614       -4.5275716866  W2        3955            0.0000000000
     11865      3955  TIP3      H2             26.6031815875       37.4385100614       -5.6534516866  W2        3955            0.0000000000
     11866      3956  TIP3      OH2            21.6021915875       38.0008800614       -8.4847516866  W2        3956            0.0000000000
     11867      3956  TIP3      H1             21.5186715875       38.8891900614       -8.1381116866  W2        3956            0.0000000000
     11868      3956  TIP3      H2             22.4922215875       37.7355500614       -8.2530716866  W2        3956            0.0000000000
     11869      3957  TIP3      OH2            31.8010415875       38.7499400614        3.9095183134  W2        3957            0.0000000000
     11870      3957  TIP3      H1             30.8846215875       39.0121100614        3.8218883134  W2        3957            0.0000000000
     11871      3957  TIP3      H2             32.1365415875       38.7468400614        3.0130483134  W2        3957            0.0000000000
     11872      3958  TIP3      OH2            18.9848415875       35.8740600614       -1.6352616866  W2        3958            0.0000000000
     11873      3958  TIP3      H1             18.7558215875       35.9333100614       -2.5627616866  W2        3958            0.0000000000
     11874      3958  TIP3      H2             18.5421815875       35.0826100614       -1.3288516866  W2        3958            0.0000000000
     11875      3959  TIP3      OH2            22.2295415875       39.8015300614        4.6860783134  W2        3959            0.0000000000
     11876      3959  TIP3      H1             22.3796315875       39.0726600614        4.0840483134  W2        3959            0.0000000000
     11877      3959  TIP3      H2             22.2317815875       40.5787000614        4.1272983134  W2        3959            0.0000000000
     11878      3960  TIP3      OH2            22.6421115875       38.1711100614        2.1788183134  W2        3960            0.0000000000
     11879      3960  TIP3      H1             23.1778615875       38.6227800614        1.5267483134  W2        3960            0.0000000000
     11880      3960  TIP3      H2             21.7900715875       38.0630900614        1.7562283134  W2        3960            0.0000000000
     11881      3961  TIP3      OH2            23.4476615875       35.6276800614        2.6101783134  W2        3961            0.0000000000
     11882      3961  TIP3      H1             23.3496215875       36.5740000614        2.5047983134  W2        3961            0.0000000000
     11883      3961  TIP3      H2             22.7052815875       35.2550600614        2.1345283134  W2        3961            0.0000000000
     11884      3962  TIP3      OH2            24.7117115875       39.9492200614        6.1740183134  W2        3962            0.0000000000
     11885      3962  TIP3      H1             24.4762515875       39.7298900614        7.0755083134  W2        3962            0.0000000000
     11886      3962  TIP3      H2             23.9284015875       39.7423400614        5.6642683134  W2        3962            0.0000000000
     11887      3963  TIP3      OH2            27.4273715875       39.0765700614        5.2493683134  W2        3963            0.0000000000
     11888      3963  TIP3      H1             26.4799115875       39.1085400614        5.3816983134  W2        3963            0.0000000000
     11889      3963  TIP3      H2             27.7400415875       38.4512800614        5.9031883134  W2        3963            0.0000000000
     11890      3964  TIP3      OH2            29.0615215875       37.7106800614        7.2545583134  W2        3964            0.0000000000
     11891      3964  TIP3      H1             28.9647015875       36.7584100614        7.2487483134  W2        3964            0.0000000000
     11892      3964  TIP3      H2             28.7398315875       37.9793600614        8.1151083134  W2        3964            0.0000000000
     11893      3965  TIP3      OH2            18.8884515875       38.9202600614        6.3021083134  W2        3965            0.0000000000
     11894      3965  TIP3      H1             19.1001915875       38.2138700614        5.6918583134  W2        3965            0.0000000000
     11895      3965  TIP3      H2             18.7772015875       38.4828600614        7.1462283134  W2        3965            0.0000000000
     11896      3966  TIP3      OH2            23.6694715875       34.9214200614        5.2814583134  W2        3966            0.0000000000
     11897      3966  TIP3      H1             24.3813115875       34.2816400614        5.2673683134  W2        3966            0.0000000000
     11898      3966  TIP3      H2             23.5685115875       35.1882500614        4.3677683134  W2        3966            0.0000000000
     11899      3967  TIP3      OH2            24.0232215875       36.6042600614        7.3350883134  W2        3967            0.0000000000
     11900      3967  TIP3      H1             23.8914415875       36.1286400614        6.5149383134  W2        3967            0.0000000000
     11901      3967  TIP3      H2             23.4239615875       37.3486200614        7.2797983134  W2        3967            0.0000000000
     11902      3968  TIP3      OH2            31.7795415875       38.6222800614      -11.1860616866  W2        3968            0.0000000000
     11903      3968  TIP3      H1             32.3901215875       38.2509600614      -10.5492416866  W2        3968            0.0000000000
     11904      3968  TIP3      H2             30.9426915875       38.2009700614      -10.9900616866  W2        3968            0.0000000000
     11905      3969  TIP3      OH2            31.4121115875       40.1771200614       -6.2200716866  W2        3969            0.0000000000
     11906      3969  TIP3      H1             31.6918215875       39.2701600614       -6.0959016866  W2        3969            0.0000000000
     11907      3969  TIP3      H2             32.1712815875       40.6112700614       -6.6091516866  W2        3969            0.0000000000
     11908      3970  TIP3      OH2            32.0239415875       40.7588600614       -0.7841816866  W2        3970            0.0000000000
     11909      3970  TIP3      H1             32.9567415875       40.9708500614       -0.8185816866  W2        3970            0.0000000000
     11910      3970  TIP3      H2             31.7886915875       40.8600700614        0.1381183134  W2        3970            0.0000000000
     11911      3971  TIP3      OH2            16.3343515875       39.9432600614        5.4686783134  W2        3971            0.0000000000
     11912      3971  TIP3      H1             17.2538415875       39.8210900614        5.7049883134  W2        3971            0.0000000000
     11913      3971  TIP3      H2             15.8848015875       39.1932300614        5.8580283134  W2        3971            0.0000000000
     11914      3972  TIP3      OH2            34.3362915875       35.4754100614        7.3452583134  W2        3972            0.0000000000
     11915      3972  TIP3      H1             34.6859915875       34.8217600614        6.7397283134  W2        3972            0.0000000000
     11916      3972  TIP3      H2             34.4832415875       36.3128200614        6.9055183134  W2        3972            0.0000000000
     11917      3973  TIP3      OH2            32.0255915875       37.4400500614       -6.1718716866  W2        3973            0.0000000000
     11918      3973  TIP3      H1             32.2080915875       36.9912000614       -5.3463716866  W2        3973            0.0000000000
     11919      3973  TIP3      H2             31.4258815875       36.8554900614       -6.6354116866  W2        3973            0.0000000000
     11920      3974  TIP3      OH2            17.5556015875       38.2554200614       -1.6400316866  W2        3974            0.0000000000
     11921      3974  TIP3      H1             18.0007615875       37.4636700614       -1.3380616866  W2        3974            0.0000000000
     11922      3974  TIP3      H2             18.0219015875       38.9719400614       -1.2094716866  W2        3974            0.0000000000
     11923      3975  TIP3      OH2            33.8560115875       37.5848700614        5.6943883134  W2        3975            0.0000000000
     11924      3975  TIP3      H1             32.9385815875       37.8555800614        5.6587383134  W2        3975            0.0000000000
     11925      3975  TIP3      H2             33.9789515875       37.0497100614        4.9103583134  W2        3975            0.0000000000
     11926      3976  TIP3      OH2            33.8922115875       37.5078600614       -9.6438416866  W2        3976            0.0000000000
     11927      3976  TIP3      H1             34.3044715875       36.7864300614      -10.1190416866  W2        3976            0.0000000000
     11928      3976  TIP3      H2             34.5738615875       38.1773200614       -9.5854116866  W2        3976            0.0000000000
     11929      3977  TIP3      OH2            16.1732815875       37.5126300614       -6.5167716866  W2        3977            0.0000000000
     11930      3977  TIP3      H1             15.2481215875       37.7212900614       -6.6462216866  W2        3977            0.0000000000
     11931      3977  TIP3      H2             16.6272715875       37.9967100614       -7.2065416866  W2        3977            0.0000000000
     11932      3978  TIP3      OH2            16.1368215875       36.2505300614        1.8274783134  W2        3978            0.0000000000
     11933      3978  TIP3      H1             15.4718715875       36.0045600614        2.4705683134  W2        3978            0.0000000000
     11934      3978  TIP3      H2             15.6939515875       36.8725700614        1.2502783134  W2        3978            0.0000000000
     11935      3979  TIP3      OH2            32.8566015875       35.6745000614        3.5134683134  W2        3979            0.0000000000
     11936      3979  TIP3      H1             32.0439515875       35.9995300614        3.1259383134  W2        3979            0.0000000000
     11937      3979  TIP3      H2             33.0894515875       34.9143500614        2.9803783134  W2        3979            0.0000000000
     11938      3980  TIP3      OH2            26.2864515875       37.1235600614       -2.1637116866  W2        3980            0.0000000000
     11939      3980  TIP3      H1             25.6121315875       36.4941200614       -1.9081316866  W2        3980            0.0000000000
     11940      3980  TIP3      H2             26.8503715875       36.6394500614       -2.7669216866  W2        3980            0.0000000000
     11941      3981  TIP3      OH2            31.4291715875       35.2309600614       -2.0510016866  W2        3981            0.0000000000
     11942      3981  TIP3      H1             32.0329315875       35.7785000614       -2.5529016866  W2        3981            0.0000000000
     11943      3981  TIP3      H2             30.5593715875       35.5500000614       -2.2915916866  W2        3981            0.0000000000
     11944      3982  TIP3      OH2            33.1562115875       36.3698300614       -3.7179116866  W2        3982            0.0000000000
     11945      3982  TIP3      H1             33.7679615875       35.8554000614       -4.2445516866  W2        3982            0.0000000000
     11946      3982  TIP3      H2             33.5385515875       37.2470400614       -3.6944716866  W2        3982            0.0000000000
     11947      3983  TIP3      OH2            18.6132015875       35.7575900614       -4.3417216866  W2        3983            0.0000000000
     11948      3983  TIP3      H1             17.8361815875       35.5230800614       -4.8491316866  W2        3983            0.0000000000
     11949      3983  TIP3      H2             19.1435615875       34.9608000614       -4.3329216866  W2        3983            0.0000000000
     11950      3984  TIP3      OH2            17.4495415875       35.5554000614       -8.5381116866  W2        3984            0.0000000000
     11951      3984  TIP3      H1             17.8886115875       36.1664500614       -9.1297616866  W2        3984            0.0000000000
     11952      3984  TIP3      H2             16.8157815875       36.0938100614       -8.0641116866  W2        3984            0.0000000000
     11953      3985  TIP3      OH2            23.1924615875       35.6843000614       -4.5284116866  W2        3985            0.0000000000
     11954      3985  TIP3      H1             24.0668015875       36.0727300614       -4.5579816866  W2        3985            0.0000000000
     11955      3985  TIP3      H2             23.0565415875       35.4690800614       -3.6056916866  W2        3985            0.0000000000
     11956      3986  TIP3      OH2            28.7493015875       35.7142800614       -2.8792416866  W2        3986            0.0000000000
     11957      3986  TIP3      H1             28.8254615875       35.8094400614       -3.8286416866  W2        3986            0.0000000000
     11958      3986  TIP3      H2             28.4742215875       34.8065700614       -2.7503316866  W2        3986            0.0000000000
     11959      3987  TIP3      OH2            30.1025615875       35.7400600614       -7.1867416866  W2        3987            0.0000000000
     11960      3987  TIP3      H1             29.3996715875       36.3549800614       -7.3966016866  W2        3987            0.0000000000
     11961      3987  TIP3      H2             29.6577015875       34.9027300614       -7.0556516866  W2        3987            0.0000000000
     11962      3988  TIP3      OH2            19.3104515875       37.4715500614      -10.0957016866  W2        3988            0.0000000000
     11963      3988  TIP3      H1             19.8017915875       36.8417900614      -10.6231516866  W2        3988            0.0000000000
     11964      3988  TIP3      H2             19.9340815875       37.7674900614       -9.4325816866  W2        3988            0.0000000000
     11965      3989  TIP3      OH2            24.3364615875       37.7647000614       -7.6386516866  W2        3989            0.0000000000
     11966      3989  TIP3      H1             24.5145915875       37.1180200614       -6.9557916866  W2        3989            0.0000000000
     11967      3989  TIP3      H2             24.2830815875       38.5984700614       -7.1715416866  W2        3989            0.0000000000
     11968      3990  TIP3      OH2            18.5710015875       36.2717800614        5.1758983134  W2        3990            0.0000000000
     11969      3990  TIP3      H1             18.2048215875       35.5060400614        5.6183683134  W2        3990            0.0000000000
     11970      3990  TIP3      H2             19.4838515875       36.3008000614        5.4624083134  W2        3990            0.0000000000
     11971      3991  TIP3      OH2            20.5440815875       35.6222200614        6.7116083134  W2        3991            0.0000000000
     11972      3991  TIP3      H1             21.4424415875       35.3482400614        6.5269483134  W2        3991            0.0000000000
     11973      3991  TIP3      H2             20.1573915875       34.8798200614        7.1758683134  W2        3991            0.0000000000
     11974      3992  TIP3      OH2            28.9653115875       34.9547500614        6.8938883134  W2        3992            0.0000000000
     11975      3992  TIP3      H1             29.0420315875       34.5288200614        7.7476583134  W2        3992            0.0000000000
     11976      3992  TIP3      H2             29.8589715875       34.9682200614        6.5512383134  W2        3992            0.0000000000
     11977      3993  TIP3      OH2            40.1655615875       39.0969100614       -2.9580916866  W2        3993            0.0000000000
     11978      3993  TIP3      H1             40.2086715875       39.9567600614       -3.3764616866  W2        3993            0.0000000000
     11979      3993  TIP3      H2             39.7079715875       38.5443800614       -3.5917716866  W2        3993            0.0000000000
     11980      3994  TIP3      OH2            38.9757515875       38.0147500614        1.1159883134  W2        3994            0.0000000000
     11981      3994  TIP3      H1             38.7569215875       38.5448100614        0.3495883134  W2        3994            0.0000000000
     11982      3994  TIP3      H2             38.3078415875       38.2413000614        1.7631283134  W2        3994            0.0000000000
     11983      3995  TIP3      OH2            38.5694815875       39.9069300614       -0.9317916866  W2        3995            0.0000000000
     11984      3995  TIP3      H1             39.1831115875       40.5396900614       -0.5585516866  W2        3995            0.0000000000
     11985      3995  TIP3      H2             39.0815515875       39.4344300614       -1.5881016866  W2        3995            0.0000000000
     11986      3996  TIP3      OH2            40.2709815875       36.2237100614       -0.6538916866  W2        3996            0.0000000000
     11987      3996  TIP3      H1             39.4093515875       36.1365300614       -1.0616016866  W2        3996            0.0000000000
     11988      3996  TIP3      H2             40.2485515875       37.0797200614       -0.2261316866  W2        3996            0.0000000000
     11989      3997  TIP3      OH2            34.7201215875       38.6256900614       -3.8412016866  W2        3997            0.0000000000
     11990      3997  TIP3      H1             35.3508915875       38.5969000614       -3.1218116866  W2        3997            0.0000000000
     11991      3997  TIP3      H2             35.1695515875       38.2005600614       -4.5716116866  W2        3997            0.0000000000
     11992      3998  TIP3      OH2            35.9943315875       39.3718900614       -8.4171616866  W2        3998            0.0000000000
     11993      3998  TIP3      H1             36.4685015875       39.9628800614       -9.0020716866  W2        3998            0.0000000000
     11994      3998  TIP3      H2             35.2769715875       39.9021800614       -8.0701516866  W2        3998            0.0000000000
     11995      3999  TIP3      OH2            37.7687715875       40.4665500614       -4.7337016866  W2        3999            0.0000000000
     11996      3999  TIP3      H1             36.8795715875       40.5661000614       -5.0737416866  W2        3999            0.0000000000
     11997      3999  TIP3      H2             38.0652615875       39.6248500614       -5.0799116866  W2        3999            0.0000000000
     11998      4000  TIP3      OH2            39.2623715875       37.7618300614       -5.2550216866  W2        4000            0.0000000000
     11999      4000  TIP3      H1             38.9453215875       36.8593600614       -5.2904816866  W2        4000            0.0000000000
     12000      4000  TIP3      H2             40.0437815875       37.7635700614       -5.8078616866  W2        4000            0.0000000000
     12001      4001  TIP3      OH2            37.1980015875       38.7355600614        3.0679583134  W2        4001            0.0000000000
     12002      4001  TIP3      H1             36.3052315875       39.0741000614        3.0003583134  W2        4001            0.0000000000
     12003      4001  TIP3      H2             37.0992815875       37.8801700614        3.4860383134  W2        4001            0.0000000000
     12004      4002  TIP3      OH2            40.4581915875       38.0008800614       -8.4847516866  W2        4002            0.0000000000
     12005      4002  TIP3      H1             40.3746715875       38.8891900614       -8.1381116866  W2        4002            0.0000000000
     12006      4002  TIP3      H2             41.3482215875       37.7355500614       -8.2530716866  W2        4002            0.0000000000
     12007      4003  TIP3      OH2            37.8408415875       35.8740600614       -1.6352616866  W2        4003            0.0000000000
     12008      4003  TIP3      H1             37.6118215875       35.9333100614       -2.5627616866  W2        4003            0.0000000000
     12009      4003  TIP3      H2             37.3981815875       35.0826100614       -1.3288516866  W2        4003            0.0000000000
     12010      4004  TIP3      OH2            37.7444515875       38.9202600614        6.3021083134  W2        4004            0.0000000000
     12011      4004  TIP3      H1             37.9561915875       38.2138700614        5.6918583134  W2        4004            0.0000000000
     12012      4004  TIP3      H2             37.6332015875       38.4828600614        7.1462283134  W2        4004            0.0000000000
     12013      4005  TIP3      OH2            35.1903515875       39.9432600614        5.4686783134  W2        4005            0.0000000000
     12014      4005  TIP3      H1             36.1098415875       39.8210900614        5.7049883134  W2        4005            0.0000000000
     12015      4005  TIP3      H2             34.7408015875       39.1932300614        5.8580283134  W2        4005            0.0000000000
     12016      4006  TIP3      OH2            36.4116015875       38.2554200614       -1.6400316866  W2        4006            0.0000000000
     12017      4006  TIP3      H1             36.8567615875       37.4636700614       -1.3380616866  W2        4006            0.0000000000
     12018      4006  TIP3      H2             36.8779015875       38.9719400614       -1.2094716866  W2        4006            0.0000000000
     12019      4007  TIP3      OH2            35.0292815875       37.5126300614       -6.5167716866  W2        4007            0.0000000000
     12020      4007  TIP3      H1             34.1041215875       37.7212900614       -6.6462216866  W2        4007            0.0000000000
     12021      4007  TIP3      H2             35.4832715875       37.9967100614       -7.2065416866  W2        4007            0.0000000000
     12022      4008  TIP3      OH2            34.9928215875       36.2505300614        1.8274783134  W2        4008            0.0000000000
     12023      4008  TIP3      H1             34.3278715875       36.0045600614        2.4705683134  W2        4008            0.0000000000
     12024      4008  TIP3      H2             34.5499515875       36.8725700614        1.2502783134  W2        4008            0.0000000000
     12025      4009  TIP3      OH2            37.4692015875       35.7575900614       -4.3417216866  W2        4009            0.0000000000
     12026      4009  TIP3      H1             36.6921815875       35.5230800614       -4.8491316866  W2        4009            0.0000000000
     12027      4009  TIP3      H2             37.9995615875       34.9608000614       -4.3329216866  W2        4009            0.0000000000
     12028      4010  TIP3      OH2            36.3055415875       35.5554000614       -8.5381116866  W2        4010            0.0000000000
     12029      4010  TIP3      H1             36.7446115875       36.1664500614       -9.1297616866  W2        4010            0.0000000000
     12030      4010  TIP3      H2             35.6717815875       36.0938100614       -8.0641116866  W2        4010            0.0000000000
     12031      4011  TIP3      OH2            38.1664515875       37.4715500614      -10.0957016866  W2        4011            0.0000000000
     12032      4011  TIP3      H1             38.6577915875       36.8417900614      -10.6231516866  W2        4011            0.0000000000
     12033      4011  TIP3      H2             38.7900815875       37.7674900614       -9.4325816866  W2        4011            0.0000000000
     12034      4012  TIP3      OH2            37.4270015875       36.2717800614        5.1758983134  W2        4012            0.0000000000
     12035      4012  TIP3      H1             37.0608215875       35.5060400614        5.6183683134  W2        4012            0.0000000000
     12036      4012  TIP3      H2             38.3398515875       36.3008000614        5.4624083134  W2        4012            0.0000000000
     12037      4013  TIP3      OH2            39.4000815875       35.6222200614        6.7116083134  W2        4013            0.0000000000
     12038      4013  TIP3      H1             40.2984415875       35.3482400614        6.5269483134  W2        4013            0.0000000000
     12039      4013  TIP3      H2             39.0133915875       34.8798200614        7.1758683134  W2        4013            0.0000000000
     12040      4014  TIP3      OH2           -30.1013684125      -32.8087499386        8.9635583134  W2        4044            0.0000000000
     12041      4014  TIP3      H1            -29.4003784125      -32.7860599386        9.6149583134  W2        4044            0.0000000000
     12042      4014  TIP3      H2            -29.7990784125      -33.4367799386        8.3074883134  W2        4044            0.0000000000
     12043      4015  TIP3      OH2           -27.8785684125      -31.8945599386       10.5617683134  W2        4053            0.0000000000
     12044      4015  TIP3      H1            -27.2990184125      -31.7445299386       11.3086583134  W2        4053            0.0000000000
     12045      4015  TIP3      H2            -27.4645684125      -31.4238199386        9.8384083134  W2        4053            0.0000000000
     12046      4016  TIP3      OH2           -24.1797284125      -40.1445199386       10.3747383134  W2        4057            0.0000000000
     12047      4016  TIP3      H1            -25.0796584125      -40.0056199386       10.6697983134  W2        4057            0.0000000000
     12048      4016  TIP3      H2            -23.9278884125      -39.3130599386        9.9729083134  W2        4057            0.0000000000
     12049      4017  TIP3      OH2           -22.9905884125      -25.7782799386        8.7511283134  W2        4059            0.0000000000
     12050      4017  TIP3      H1            -22.9172384125      -24.8392599386        8.9216583134  W2        4059            0.0000000000
     12051      4017  TIP3      H2            -22.0850784125      -26.0834199386        8.6948583134  W2        4059            0.0000000000
     12052      4018  TIP3      OH2           -27.5781684125      -23.0472199386        9.4142383134  W2        4066            0.0000000000
     12053      4018  TIP3      H1            -27.2033284125      -23.7916099386        8.9434983134  W2        4066            0.0000000000
     12054      4018  TIP3      H2            -27.5737984125      -23.3171599386       10.3325683134  W2        4066            0.0000000000
     12055      4019  TIP3      OH2           -26.4012584125      -30.8617299386        8.1915583134  W2        4073            0.0000000000
     12056      4019  TIP3      H1            -26.3591784125      -31.0843399386        7.2615583134  W2        4073            0.0000000000
     12057      4019  TIP3      H2            -25.5520484125      -30.4630199386        8.3815483134  W2        4073            0.0000000000
     12058      4020  TIP3      OH2           -30.8285084125      -36.9859099386        8.8618883134  W2        4074            0.0000000000
     12059      4020  TIP3      H1            -31.0820284125      -36.9667499386        9.7846983134  W2        4074            0.0000000000
     12060      4020  TIP3      H2            -31.0852984125      -37.8573699386        8.5605083134  W2        4074            0.0000000000
     12061      4021  TIP3      OH2           -33.9462184125      -36.5402599386        7.9629283134  W2        4081            0.0000000000
     12062      4021  TIP3      H1            -34.3771484125      -36.9852499386        8.6926683134  W2        4081            0.0000000000
     12063      4021  TIP3      H2            -34.6643484125      -36.1686299386        7.4506783134  W2        4081            0.0000000000
     12064      4022  TIP3      OH2           -39.4296684125      -36.0521099386       10.4388383134  W2        4083            0.0000000000
     12065      4022  TIP3      H1            -38.9554984125      -35.4611199386        9.8539283134  W2        4083            0.0000000000
     12066      4022  TIP3      H2            -40.1470284125      -35.5218199386       10.7858483134  W2        4083            0.0000000000
     12067      4023  TIP3      OH2           -35.3280284125      -33.7629699386        9.3453683134  W2        4089            0.0000000000
     12068      4023  TIP3      H1            -35.8705184125      -34.1425899386        8.6541283134  W2        4089            0.0000000000
     12069      4023  TIP3      H2            -34.4945384125      -33.5684999386        8.9167783134  W2        4089            0.0000000000
     12070      4024  TIP3      OH2           -28.0950684125      -36.3834099386        9.4804383134  W2        4097            0.0000000000
     12071      4024  TIP3      H1            -29.0336484125      -36.2718499386        9.3293183134  W2        4097            0.0000000000
     12072      4024  TIP3      H2            -27.7978584125      -35.5267199386        9.7870083134  W2        4097            0.0000000000
     12073      4025  TIP3      OH2           -27.3767184125      -34.5161399386       11.1411783134  W2        4099            0.0000000000
     12074      4025  TIP3      H1            -26.4848184125      -34.6536399386       11.4602983134  W2        4099            0.0000000000
     12075      4025  TIP3      H2            -27.3203584125      -33.7255299386       10.6045283134  W2        4099            0.0000000000
     12076      4026  TIP3      OH2           -29.8673384125      -27.7389699386       10.3066383134  W2        4101            0.0000000000
     12077      4026  TIP3      H1            -30.1624984125      -26.9121799386       10.6881183134  W2        4101            0.0000000000
     12078      4026  TIP3      H2            -30.5703384125      -28.3582799386       10.5027783134  W2        4101            0.0000000000
     12079      4027  TIP3      OH2           -22.4918484125      -34.3067299386       10.8358483134  W2        4105            0.0000000000
     12080      4027  TIP3      H1            -23.0462184125      -34.7029299386       10.1635983134  W2        4105            0.0000000000
     12081      4027  TIP3      H2            -22.3914884125      -33.3962099386       10.5581783134  W2        4105            0.0000000000
     12082      4028  TIP3      OH2           -38.7382084125      -31.5221699386        9.0423583134  W2        4110            0.0000000000
     12083      4028  TIP3      H1            -38.1222184125      -30.8954499386        9.4218383134  W2        4110            0.0000000000
     12084      4028  TIP3      H2            -39.5999484125      -31.2061899386        9.3140083134  W2        4110            0.0000000000
     12085      4029  TIP3      OH2           -26.8041184125      -27.5441099386        9.1211183134  W2        4115            0.0000000000
     12086      4029  TIP3      H1            -26.4508084125      -27.9241299386        9.9254683134  W2        4115            0.0000000000
     12087      4029  TIP3      H2            -27.7527684125      -27.6376299386        9.2080483134  W2        4115            0.0000000000
     12088      4030  TIP3      OH2           -22.3006784125      -23.0648599386        9.3221383134  W2        4117            0.0000000000
     12089      4030  TIP3      H1            -21.5568884125      -22.4788099386        9.1822983134  W2        4117            0.0000000000
     12090      4030  TIP3      H2            -22.9948684125      -22.4962799386        9.6553783134  W2        4117            0.0000000000
     12091      4031  TIP3      OH2           -32.7133384125      -26.4324999386        7.5681183134  W2        4121            0.0000000000
     12092      4031  TIP3      H1            -32.4743584125      -27.1806899386        7.0210083134  W2        4121            0.0000000000
     12093      4031  TIP3      H2            -32.9822084125      -26.8203299386        8.4008983134  W2        4121            0.0000000000
     12094      4032  TIP3      OH2           -33.7762784125      -26.8621199386       10.0243783134  W2        4122            0.0000000000
     12095      4032  TIP3      H1            -33.6294784125      -27.3821399386       10.8144683134  W2        4122            0.0000000000
     12096      4032  TIP3      H2            -33.7791084125      -25.9553599386       10.3309683134  W2        4122            0.0000000000
     12097      4033  TIP3      OH2           -37.3231684125      -29.6097899386       10.5349183134  W2        4123            0.0000000000
     12098      4033  TIP3      H1            -38.0092384125      -29.2575399386       11.1018883134  W2        4123            0.0000000000
     12099      4033  TIP3      H2            -36.8003784125      -28.8468299386       10.2883483134  W2        4123            0.0000000000
     12100      4034  TIP3      OH2           -31.0385584125      -25.1647599386       10.7737983134  W2        4126            0.0000000000
     12101      4034  TIP3      H1            -31.8549484125      -24.6677899386       10.8262283134  W2        4126            0.0000000000
     12102      4034  TIP3      H2            -30.5089284125      -24.6894099386       10.1336783134  W2        4126            0.0000000000
     12103      4035  TIP3      OH2           -33.7002484125      -24.1210399386       10.7554883134  W2        4130            0.0000000000
     12104      4035  TIP3      H1            -33.5393784125      -23.3212899386       10.2547483134  W2        4130            0.0000000000
     12105      4035  TIP3      H2            -33.8974684125      -23.8144399386       11.6405483134  W2        4130            0.0000000000
     12106      4036  TIP3      OH2           -34.9658084125      -37.4231199386       10.3712483134  W2        4131            0.0000000000
     12107      4036  TIP3      H1            -35.0493284125      -36.5348099386       10.7178883134  W2        4131            0.0000000000
     12108      4036  TIP3      H2            -34.0757784125      -37.6884499386       10.6029283134  W2        4131            0.0000000000
     12109      4037  TIP3      OH2           -36.7072784125      -26.9958999386        9.4316983134  W2        4134            0.0000000000
     12110      4037  TIP3      H1            -36.1151284125      -26.2964199386        9.7079383134  W2        4134            0.0000000000
     12111      4037  TIP3      H2            -36.2479784125      -27.4289499386        8.7121583134  W2        4134            0.0000000000
     12112      4038  TIP3      OH2           -38.3913584125      -34.3315999386        8.5476383134  W2        4135            0.0000000000
     12113      4038  TIP3      H1            -38.4360984125      -33.3922899386        8.7263383134  W2        4135            0.0000000000
     12114      4038  TIP3      H2            -39.2790384125      -34.5671099386        8.2778483134  W2        4135            0.0000000000
     12115      4039  TIP3      OH2           -30.6751584125      -24.5693599386        7.7067183134  W2        4141            0.0000000000
     12116      4039  TIP3      H1            -31.3190584125      -25.2004999386        8.0280883134  W2        4141            0.0000000000
     12117      4039  TIP3      H2            -29.9133284125      -25.1005599386        7.4750683134  W2        4141            0.0000000000
     12118      4040  TIP3      OH2           -26.0708684125      -24.7523699386        7.9405183134  W2        4143            0.0000000000
     12119      4040  TIP3      H1            -25.7878284125      -25.5468499386        8.3932083134  W2        4143            0.0000000000
     12120      4040  TIP3      H2            -25.3310784125      -24.5192699386        7.3796283134  W2        4143            0.0000000000
     12121      4041  TIP3      OH2           -35.1161384125      -28.8428799386        7.7980083134  W2        4145            0.0000000000
     12122      4041  TIP3      H1            -35.0517284125      -29.6369199386        8.3286483134  W2        4145            0.0000000000
     12123      4041  TIP3      H2            -34.4632184125      -28.9615999386        7.1082083134  W2        4145            0.0000000000
     12124      4042  TIP3      OH2           -29.7637984125      -27.7957099386        7.5338083134  W2        4147            0.0000000000
     12125      4042  TIP3      H1            -30.0323884125      -27.6154999386        8.4346983134  W2        4147            0.0000000000
     12126      4042  TIP3      H2            -29.9702384125      -28.7210899386        7.4023883134  W2        4147            0.0000000000
     12127      4043  TIP3      OH2           -33.9667584125      -30.8702599386       10.1038083134  W2        4150            0.0000000000
     12128      4043  TIP3      H1            -34.4265584125      -31.3544299386       10.7896583134  W2        4150            0.0000000000
     12129      4043  TIP3      H2            -33.7118884125      -31.5387199386        9.4678583134  W2        4150            0.0000000000
     12130      4044  TIP3      OH2           -32.8957184125      -32.6270799386        8.3661283134  W2        4152            0.0000000000
     12131      4044  TIP3      H1            -33.0762184125      -32.7819599386        7.4389583134  W2        4152            0.0000000000
     12132      4044  TIP3      H2            -31.9456684125      -32.5192099386        8.4109183134  W2        4152            0.0000000000
     12133      4045  TIP3      OH2           -23.5058884125      -30.2726599386        7.8119383134  W2        4154            0.0000000000
     12134      4045  TIP3      H1            -23.7794084125      -30.6971099386        6.9987683134  W2        4154            0.0000000000
     12135      4045  TIP3      H2            -23.4664784125      -29.3412099386        7.5949783134  W2        4154            0.0000000000
     12136      4046  TIP3      OH2           -32.9985484125      -21.9367099386        9.3674883134  W2        4168            0.0000000000
     12137      4046  TIP3      H1            -32.0654784125      -21.7788399386        9.5113283134  W2        4168            0.0000000000
     12138      4046  TIP3      H2            -33.2626684125      -21.2614099386        8.7426383134  W2        4168            0.0000000000
     12139      4047  TIP3      OH2           -39.4300584125      -27.3003299386        8.8502983134  W2        4169            0.0000000000
     12140      4047  TIP3      H1            -38.5161384125      -27.2214399386        9.1236883134  W2        4169            0.0000000000
     12141      4047  TIP3      H2            -39.4227484125      -27.9873699386        8.1838583134  W2        4169            0.0000000000
     12142      4048  TIP3      OH2           -22.3847384125      -31.4492599386       10.0016783134  W2        4179            0.0000000000
     12143      4048  TIP3      H1            -22.9066284125      -31.0928499386        9.2827683134  W2        4179            0.0000000000
     12144      4048  TIP3      H2            -22.4178184125      -30.7744799386       10.6797683134  W2        4179            0.0000000000
     12145      4049  TIP3      OH2           -24.0358384125      -34.2096999386        8.5523883134  W2        4180            0.0000000000
     12146      4049  TIP3      H1            -23.9393984125      -33.5429999386        7.8723583134  W2        4180            0.0000000000
     12147      4049  TIP3      H2            -24.1758784125      -35.0250699386        8.0709383134  W2        4180            0.0000000000
     12148      4050  TIP3      OH2           -24.7884584125      -36.8017199386        7.6699383134  W2        4185            0.0000000000
     12149      4050  TIP3      H1            -24.1778784125      -37.1730399386        8.3067583134  W2        4185            0.0000000000
     12150      4050  TIP3      H2            -25.6253084125      -37.2230299386        7.8659383134  W2        4185            0.0000000000
     12151      4051  TIP3      OH2           -22.6757884125      -37.9161399386        9.2121583134  W2        4195            0.0000000000
     12152      4051  TIP3      H1            -22.2635284125      -38.6375699386        8.7369583134  W2        4195            0.0000000000
     12153      4051  TIP3      H2            -21.9941384125      -37.2466799386        9.2705883134  W2        4195            0.0000000000
     12154      4052  TIP3      OH2           -39.1184584125      -39.8685999386       10.3178883134  W2        4216            0.0000000000
     12155      4052  TIP3      H1            -38.6793884125      -39.2575499386        9.7262383134  W2        4216            0.0000000000
     12156      4052  TIP3      H2            -39.7522184125      -39.3301899386       10.7918883134  W2        4216            0.0000000000
     12157      4053  TIP3      OH2           -37.2575484125      -37.9524499386        8.7602983134  W2        4221            0.0000000000
     12158      4053  TIP3      H1            -36.7662084125      -38.5822099386        8.2328483134  W2        4221            0.0000000000
     12159      4053  TIP3      H2            -36.6339184125      -37.6565099386        9.4234183134  W2        4221            0.0000000000
     12160      4054  TIP3      OH2           -30.3531584125      -22.7108899386        9.6130183134  W2        4223            0.0000000000
     12161      4054  TIP3      H1            -29.4871384125      -22.3441499386        9.4348383134  W2        4223            0.0000000000
     12162      4054  TIP3      H2            -30.5998784125      -23.1500899386        8.7990983134  W2        4223            0.0000000000
     12163      4055  TIP3      OH2           -37.3993884125      -23.0002999386        8.2406083134  W2        4227            0.0000000000
     12164      4055  TIP3      H1            -37.6669284125      -22.7140099386        9.1139183134  W2        4227            0.0000000000
     12165      4055  TIP3      H2            -36.6281284125      -23.5463799386        8.3928583134  W2        4227            0.0000000000
     12166      4056  TIP3      OH2           -11.2453684125      -32.8087499386        8.9635583134  W2        4260            0.0000000000
     12167      4056  TIP3      H1            -10.5443784125      -32.7860599386        9.6149583134  W2        4260            0.0000000000
     12168      4056  TIP3      H2            -10.9430784125      -33.4367799386        8.3074883134  W2        4260            0.0000000000
     12169      4057  TIP3      OH2            -9.0225684125      -31.8945599386       10.5617683134  W2        4269            0.0000000000
     12170      4057  TIP3      H1             -8.4430184125      -31.7445299386       11.3086583134  W2        4269            0.0000000000
     12171      4057  TIP3      H2             -8.6085684125      -31.4238199386        9.8384083134  W2        4269            0.0000000000
     12172      4058  TIP3      OH2            -5.3237284125      -40.1445199386       10.3747383134  W2        4273            0.0000000000
     12173      4058  TIP3      H1             -6.2236584125      -40.0056199386       10.6697983134  W2        4273            0.0000000000
     12174      4058  TIP3      H2             -5.0718884125      -39.3130599386        9.9729083134  W2        4273            0.0000000000
     12175      4059  TIP3      OH2            -4.1345884125      -25.7782799386        8.7511283134  W2        4275            0.0000000000
     12176      4059  TIP3      H1             -4.0612384125      -24.8392599386        8.9216583134  W2        4275            0.0000000000
     12177      4059  TIP3      H2             -3.2290784125      -26.0834199386        8.6948583134  W2        4275            0.0000000000
     12178      4060  TIP3      OH2            -8.7221684125      -23.0472199386        9.4142383134  W2        4282            0.0000000000
     12179      4060  TIP3      H1             -8.3473284125      -23.7916099386        8.9434983134  W2        4282            0.0000000000
     12180      4060  TIP3      H2             -8.7177984125      -23.3171599386       10.3325683134  W2        4282            0.0000000000
     12181      4061  TIP3      OH2            -7.5452584125      -30.8617299386        8.1915583134  W2        4289            0.0000000000
     12182      4061  TIP3      H1             -7.5031784125      -31.0843399386        7.2615583134  W2        4289            0.0000000000
     12183      4061  TIP3      H2             -6.6960484125      -30.4630199386        8.3815483134  W2        4289            0.0000000000
     12184      4062  TIP3      OH2           -11.9725084125      -36.9859099386        8.8618883134  W2        4290            0.0000000000
     12185      4062  TIP3      H1            -12.2260284125      -36.9667499386        9.7846983134  W2        4290            0.0000000000
     12186      4062  TIP3      H2            -12.2292984125      -37.8573699386        8.5605083134  W2        4290            0.0000000000
     12187      4063  TIP3      OH2           -15.0902184125      -36.5402599386        7.9629283134  W2        4297            0.0000000000
     12188      4063  TIP3      H1            -15.5211484125      -36.9852499386        8.6926683134  W2        4297            0.0000000000
     12189      4063  TIP3      H2            -15.8083484125      -36.1686299386        7.4506783134  W2        4297            0.0000000000
     12190      4064  TIP3      OH2           -20.5736684125      -36.0521099386       10.4388383134  W2        4299            0.0000000000
     12191      4064  TIP3      H1            -20.0994984125      -35.4611199386        9.8539283134  W2        4299            0.0000000000
     12192      4064  TIP3      H2            -21.2910284125      -35.5218199386       10.7858483134  W2        4299            0.0000000000
     12193      4065  TIP3      OH2           -16.4720284125      -33.7629699386        9.3453683134  W2        4305            0.0000000000
     12194      4065  TIP3      H1            -17.0145184125      -34.1425899386        8.6541283134  W2        4305            0.0000000000
     12195      4065  TIP3      H2            -15.6385384125      -33.5684999386        8.9167783134  W2        4305            0.0000000000
     12196      4066  TIP3      OH2            -9.2390684125      -36.3834099386        9.4804383134  W2        4313            0.0000000000
     12197      4066  TIP3      H1            -10.1776484125      -36.2718499386        9.3293183134  W2        4313            0.0000000000
     12198      4066  TIP3      H2             -8.9418584125      -35.5267199386        9.7870083134  W2        4313            0.0000000000
     12199      4067  TIP3      OH2            -8.5207184125      -34.5161399386       11.1411783134  W2        4315            0.0000000000
     12200      4067  TIP3      H1             -7.6288184125      -34.6536399386       11.4602983134  W2        4315            0.0000000000
     12201      4067  TIP3      H2             -8.4643584125      -33.7255299386       10.6045283134  W2        4315            0.0000000000
     12202      4068  TIP3      OH2           -11.0113384125      -27.7389699386       10.3066383134  W2        4317            0.0000000000
     12203      4068  TIP3      H1            -11.3064984125      -26.9121799386       10.6881183134  W2        4317            0.0000000000
     12204      4068  TIP3      H2            -11.7143384125      -28.3582799386       10.5027783134  W2        4317            0.0000000000
     12205      4069  TIP3      OH2            -3.6358484125      -34.3067299386       10.8358483134  W2        4321            0.0000000000
     12206      4069  TIP3      H1             -4.1902184125      -34.7029299386       10.1635983134  W2        4321            0.0000000000
     12207      4069  TIP3      H2             -3.5354884125      -33.3962099386       10.5581783134  W2        4321            0.0000000000
     12208      4070  TIP3      OH2           -19.8822084125      -31.5221699386        9.0423583134  W2        4326            0.0000000000
     12209      4070  TIP3      H1            -19.2662184125      -30.8954499386        9.4218383134  W2        4326            0.0000000000
     12210      4070  TIP3      H2            -20.7439484125      -31.2061899386        9.3140083134  W2        4326            0.0000000000
     12211      4071  TIP3      OH2            -7.9481184125      -27.5441099386        9.1211183134  W2        4331            0.0000000000
     12212      4071  TIP3      H1             -7.5948084125      -27.9241299386        9.9254683134  W2        4331            0.0000000000
     12213      4071  TIP3      H2             -8.8967684125      -27.6376299386        9.2080483134  W2        4331            0.0000000000
     12214      4072  TIP3      OH2            -3.4446784125      -23.0648599386        9.3221383134  W2        4333            0.0000000000
     12215      4072  TIP3      H1             -2.7008884125      -22.4788099386        9.1822983134  W2        4333            0.0000000000
     12216      4072  TIP3      H2             -4.1388684125      -22.4962799386        9.6553783134  W2        4333            0.0000000000
     12217      4073  TIP3      OH2           -13.8573384125      -26.4324999386        7.5681183134  W2        4337            0.0000000000
     12218      4073  TIP3      H1            -13.6183584125      -27.1806899386        7.0210083134  W2        4337            0.0000000000
     12219      4073  TIP3      H2            -14.1262084125      -26.8203299386        8.4008983134  W2        4337            0.0000000000
     12220      4074  TIP3      OH2           -14.9202784125      -26.8621199386       10.0243783134  W2        4338            0.0000000000
     12221      4074  TIP3      H1            -14.7734784125      -27.3821399386       10.8144683134  W2        4338            0.0000000000
     12222      4074  TIP3      H2            -14.9231084125      -25.9553599386       10.3309683134  W2        4338            0.0000000000
     12223      4075  TIP3      OH2           -18.4671684125      -29.6097899386       10.5349183134  W2        4339            0.0000000000
     12224      4075  TIP3      H1            -19.1532384125      -29.2575399386       11.1018883134  W2        4339            0.0000000000
     12225      4075  TIP3      H2            -17.9443784125      -28.8468299386       10.2883483134  W2        4339            0.0000000000
     12226      4076  TIP3      OH2           -12.1825584125      -25.1647599386       10.7737983134  W2        4342            0.0000000000
     12227      4076  TIP3      H1            -12.9989484125      -24.6677899386       10.8262283134  W2        4342            0.0000000000
     12228      4076  TIP3      H2            -11.6529284125      -24.6894099386       10.1336783134  W2        4342            0.0000000000
     12229      4077  TIP3      OH2           -14.8442484125      -24.1210399386       10.7554883134  W2        4346            0.0000000000
     12230      4077  TIP3      H1            -14.6833784125      -23.3212899386       10.2547483134  W2        4346            0.0000000000
     12231      4077  TIP3      H2            -15.0414684125      -23.8144399386       11.6405483134  W2        4346            0.0000000000
     12232      4078  TIP3      OH2           -16.1098084125      -37.4231199386       10.3712483134  W2        4347            0.0000000000
     12233      4078  TIP3      H1            -16.1933284125      -36.5348099386       10.7178883134  W2        4347            0.0000000000
     12234      4078  TIP3      H2            -15.2197784125      -37.6884499386       10.6029283134  W2        4347            0.0000000000
     12235      4079  TIP3      OH2           -17.8512784125      -26.9958999386        9.4316983134  W2        4350            0.0000000000
     12236      4079  TIP3      H1            -17.2591284125      -26.2964199386        9.7079383134  W2        4350            0.0000000000
     12237      4079  TIP3      H2            -17.3919784125      -27.4289499386        8.7121583134  W2        4350            0.0000000000
     12238      4080  TIP3      OH2           -19.5353584125      -34.3315999386        8.5476383134  W2        4351            0.0000000000
     12239      4080  TIP3      H1            -19.5800984125      -33.3922899386        8.7263383134  W2        4351            0.0000000000
     12240      4080  TIP3      H2            -20.4230384125      -34.5671099386        8.2778483134  W2        4351            0.0000000000
     12241      4081  TIP3      OH2           -11.8191584125      -24.5693599386        7.7067183134  W2        4357            0.0000000000
     12242      4081  TIP3      H1            -12.4630584125      -25.2004999386        8.0280883134  W2        4357            0.0000000000
     12243      4081  TIP3      H2            -11.0573284125      -25.1005599386        7.4750683134  W2        4357            0.0000000000
     12244      4082  TIP3      OH2            -7.2148684125      -24.7523699386        7.9405183134  W2        4359            0.0000000000
     12245      4082  TIP3      H1             -6.9318284125      -25.5468499386        8.3932083134  W2        4359            0.0000000000
     12246      4082  TIP3      H2             -6.4750784125      -24.5192699386        7.3796283134  W2        4359            0.0000000000
     12247      4083  TIP3      OH2           -16.2601384125      -28.8428799386        7.7980083134  W2        4361            0.0000000000
     12248      4083  TIP3      H1            -16.1957284125      -29.6369199386        8.3286483134  W2        4361            0.0000000000
     12249      4083  TIP3      H2            -15.6072184125      -28.9615999386        7.1082083134  W2        4361            0.0000000000
     12250      4084  TIP3      OH2           -10.9077984125      -27.7957099386        7.5338083134  W2        4363            0.0000000000
     12251      4084  TIP3      H1            -11.1763884125      -27.6154999386        8.4346983134  W2        4363            0.0000000000
     12252      4084  TIP3      H2            -11.1142384125      -28.7210899386        7.4023883134  W2        4363            0.0000000000
     12253      4085  TIP3      OH2           -15.1107584125      -30.8702599386       10.1038083134  W2        4366            0.0000000000
     12254      4085  TIP3      H1            -15.5705584125      -31.3544299386       10.7896583134  W2        4366            0.0000000000
     12255      4085  TIP3      H2            -14.8558884125      -31.5387199386        9.4678583134  W2        4366            0.0000000000
     12256      4086  TIP3      OH2           -14.0397184125      -32.6270799386        8.3661283134  W2        4368            0.0000000000
     12257      4086  TIP3      H1            -14.2202184125      -32.7819599386        7.4389583134  W2        4368            0.0000000000
     12258      4086  TIP3      H2            -13.0896684125      -32.5192099386        8.4109183134  W2        4368            0.0000000000
     12259      4087  TIP3      OH2            -4.6498884125      -30.2726599386        7.8119383134  W2        4370            0.0000000000
     12260      4087  TIP3      H1             -4.9234084125      -30.6971099386        6.9987683134  W2        4370            0.0000000000
     12261      4087  TIP3      H2             -4.6104784125      -29.3412099386        7.5949783134  W2        4370            0.0000000000
     12262      4088  TIP3      OH2           -14.1425484125      -21.9367099386        9.3674883134  W2        4384            0.0000000000
     12263      4088  TIP3      H1            -13.2094784125      -21.7788399386        9.5113283134  W2        4384            0.0000000000
     12264      4088  TIP3      H2            -14.4066684125      -21.2614099386        8.7426383134  W2        4384            0.0000000000
     12265      4089  TIP3      OH2           -20.5740584125      -27.3003299386        8.8502983134  W2        4385            0.0000000000
     12266      4089  TIP3      H1            -19.6601384125      -27.2214399386        9.1236883134  W2        4385            0.0000000000
     12267      4089  TIP3      H2            -20.5667484125      -27.9873699386        8.1838583134  W2        4385            0.0000000000
     12268      4090  TIP3      OH2            -3.5287384125      -31.4492599386       10.0016783134  W2        4395            0.0000000000
     12269      4090  TIP3      H1             -4.0506284125      -31.0928499386        9.2827683134  W2        4395            0.0000000000
     12270      4090  TIP3      H2             -3.5618184125      -30.7744799386       10.6797683134  W2        4395            0.0000000000
     12271      4091  TIP3      OH2            -5.1798384125      -34.2096999386        8.5523883134  W2        4396            0.0000000000
     12272      4091  TIP3      H1             -5.0833984125      -33.5429999386        7.8723583134  W2        4396            0.0000000000
     12273      4091  TIP3      H2             -5.3198784125      -35.0250699386        8.0709383134  W2        4396            0.0000000000
     12274      4092  TIP3      OH2            -5.9324584125      -36.8017199386        7.6699383134  W2        4401            0.0000000000
     12275      4092  TIP3      H1             -5.3218784125      -37.1730399386        8.3067583134  W2        4401            0.0000000000
     12276      4092  TIP3      H2             -6.7693084125      -37.2230299386        7.8659383134  W2        4401            0.0000000000
     12277      4093  TIP3      OH2            -3.8197884125      -37.9161399386        9.2121583134  W2        4411            0.0000000000
     12278      4093  TIP3      H1             -3.4075284125      -38.6375699386        8.7369583134  W2        4411            0.0000000000
     12279      4093  TIP3      H2             -3.1381384125      -37.2466799386        9.2705883134  W2        4411            0.0000000000
     12280      4094  TIP3      OH2           -20.2624584125      -39.8685999386       10.3178883134  W2        4432            0.0000000000
     12281      4094  TIP3      H1            -19.8233884125      -39.2575499386        9.7262383134  W2        4432            0.0000000000
     12282      4094  TIP3      H2            -20.8962184125      -39.3301899386       10.7918883134  W2        4432            0.0000000000
     12283      4095  TIP3      OH2           -18.4015484125      -37.9524499386        8.7602983134  W2        4437            0.0000000000
     12284      4095  TIP3      H1            -17.9102084125      -38.5822099386        8.2328483134  W2        4437            0.0000000000
     12285      4095  TIP3      H2            -17.7779184125      -37.6565099386        9.4234183134  W2        4437            0.0000000000
     12286      4096  TIP3      OH2           -11.4971584125      -22.7108899386        9.6130183134  W2        4439            0.0000000000
     12287      4096  TIP3      H1            -10.6311384125      -22.3441499386        9.4348383134  W2        4439            0.0000000000
     12288      4096  TIP3      H2            -11.7438784125      -23.1500899386        8.7990983134  W2        4439            0.0000000000
     12289      4097  TIP3      OH2           -18.5433884125      -23.0002999386        8.2406083134  W2        4443            0.0000000000
     12290      4097  TIP3      H1            -18.8109284125      -22.7140099386        9.1139183134  W2        4443            0.0000000000
     12291      4097  TIP3      H2            -17.7721284125      -23.5463799386        8.3928583134  W2        4443            0.0000000000
     12292      4098  TIP3      OH2             7.6106315875      -32.8087499386        8.9635583134  W2        4476            0.0000000000
     12293      4098  TIP3      H1              8.3116215875      -32.7860599386        9.6149583134  W2        4476            0.0000000000
     12294      4098  TIP3      H2              7.9129215875      -33.4367799386        8.3074883134  W2        4476            0.0000000000
     12295      4099  TIP3      OH2             9.8334315875      -31.8945599386       10.5617683134  W2        4485            0.0000000000
     12296      4099  TIP3      H1             10.4129815875      -31.7445299386       11.3086583134  W2        4485            0.0000000000
     12297      4099  TIP3      H2             10.2474315875      -31.4238199386        9.8384083134  W2        4485            0.0000000000
     12298      4100  TIP3      OH2            13.5322715875      -40.1445199386       10.3747383134  W2        4489            0.0000000000
     12299      4100  TIP3      H1             12.6323415875      -40.0056199386       10.6697983134  W2        4489            0.0000000000
     12300      4100  TIP3      H2             13.7841115875      -39.3130599386        9.9729083134  W2        4489            0.0000000000
     12301      4101  TIP3      OH2            14.7214115875      -25.7782799386        8.7511283134  W2        4491            0.0000000000
     12302      4101  TIP3      H1             14.7947615875      -24.8392599386        8.9216583134  W2        4491            0.0000000000
     12303      4101  TIP3      H2             15.6269215875      -26.0834199386        8.6948583134  W2        4491            0.0000000000
     12304      4102  TIP3      OH2            10.1338315875      -23.0472199386        9.4142383134  W2        4498            0.0000000000
     12305      4102  TIP3      H1             10.5086715875      -23.7916099386        8.9434983134  W2        4498            0.0000000000
     12306      4102  TIP3      H2             10.1382015875      -23.3171599386       10.3325683134  W2        4498            0.0000000000
     12307      4103  TIP3      OH2            11.3107415875      -30.8617299386        8.1915583134  W2        4505            0.0000000000
     12308      4103  TIP3      H1             11.3528215875      -31.0843399386        7.2615583134  W2        4505            0.0000000000
     12309      4103  TIP3      H2             12.1599515875      -30.4630199386        8.3815483134  W2        4505            0.0000000000
     12310      4104  TIP3      OH2             6.8834915875      -36.9859099386        8.8618883134  W2        4506            0.0000000000
     12311      4104  TIP3      H1              6.6299715875      -36.9667499386        9.7846983134  W2        4506            0.0000000000
     12312      4104  TIP3      H2              6.6267015875      -37.8573699386        8.5605083134  W2        4506            0.0000000000
     12313      4105  TIP3      OH2             3.7657815875      -36.5402599386        7.9629283134  W2        4513            0.0000000000
     12314      4105  TIP3      H1              3.3348515875      -36.9852499386        8.6926683134  W2        4513            0.0000000000
     12315      4105  TIP3      H2              3.0476515875      -36.1686299386        7.4506783134  W2        4513            0.0000000000
     12316      4106  TIP3      OH2            -1.7176684125      -36.0521099386       10.4388383134  W2        4515            0.0000000000
     12317      4106  TIP3      H1             -1.2434984125      -35.4611199386        9.8539283134  W2        4515            0.0000000000
     12318      4106  TIP3      H2             -2.4350284125      -35.5218199386       10.7858483134  W2        4515            0.0000000000
     12319      4107  TIP3      OH2             2.3839715875      -33.7629699386        9.3453683134  W2        4521            0.0000000000
     12320      4107  TIP3      H1              1.8414815875      -34.1425899386        8.6541283134  W2        4521            0.0000000000
     12321      4107  TIP3      H2              3.2174615875      -33.5684999386        8.9167783134  W2        4521            0.0000000000
     12322      4108  TIP3      OH2             9.6169315875      -36.3834099386        9.4804383134  W2        4529            0.0000000000
     12323      4108  TIP3      H1              8.6783515875      -36.2718499386        9.3293183134  W2        4529            0.0000000000
     12324      4108  TIP3      H2              9.9141415875      -35.5267199386        9.7870083134  W2        4529            0.0000000000
     12325      4109  TIP3      OH2            10.3352815875      -34.5161399386       11.1411783134  W2        4531            0.0000000000
     12326      4109  TIP3      H1             11.2271815875      -34.6536399386       11.4602983134  W2        4531            0.0000000000
     12327      4109  TIP3      H2             10.3916415875      -33.7255299386       10.6045283134  W2        4531            0.0000000000
     12328      4110  TIP3      OH2             7.8446615875      -27.7389699386       10.3066383134  W2        4533            0.0000000000
     12329      4110  TIP3      H1              7.5495015875      -26.9121799386       10.6881183134  W2        4533            0.0000000000
     12330      4110  TIP3      H2              7.1416615875      -28.3582799386       10.5027783134  W2        4533            0.0000000000
     12331      4111  TIP3      OH2            15.2201515875      -34.3067299386       10.8358483134  W2        4537            0.0000000000
     12332      4111  TIP3      H1             14.6657815875      -34.7029299386       10.1635983134  W2        4537            0.0000000000
     12333      4111  TIP3      H2             15.3205115875      -33.3962099386       10.5581783134  W2        4537            0.0000000000
     12334      4112  TIP3      OH2            -1.0262084125      -31.5221699386        9.0423583134  W2        4542            0.0000000000
     12335      4112  TIP3      H1             -0.4102184125      -30.8954499386        9.4218383134  W2        4542            0.0000000000
     12336      4112  TIP3      H2             -1.8879484125      -31.2061899386        9.3140083134  W2        4542            0.0000000000
     12337      4113  TIP3      OH2            10.9078815875      -27.5441099386        9.1211183134  W2        4547            0.0000000000
     12338      4113  TIP3      H1             11.2611915875      -27.9241299386        9.9254683134  W2        4547            0.0000000000
     12339      4113  TIP3      H2              9.9592315875      -27.6376299386        9.2080483134  W2        4547            0.0000000000
     12340      4114  TIP3      OH2            15.4113215875      -23.0648599386        9.3221383134  W2        4549            0.0000000000
     12341      4114  TIP3      H1             16.1551115875      -22.4788099386        9.1822983134  W2        4549            0.0000000000
     12342      4114  TIP3      H2             14.7171315875      -22.4962799386        9.6553783134  W2        4549            0.0000000000
     12343      4115  TIP3      OH2             4.9986615875      -26.4324999386        7.5681183134  W2        4553            0.0000000000
     12344      4115  TIP3      H1              5.2376415875      -27.1806899386        7.0210083134  W2        4553            0.0000000000
     12345      4115  TIP3      H2              4.7297915875      -26.8203299386        8.4008983134  W2        4553            0.0000000000
     12346      4116  TIP3      OH2             3.9357215875      -26.8621199386       10.0243783134  W2        4554            0.0000000000
     12347      4116  TIP3      H1              4.0825215875      -27.3821399386       10.8144683134  W2        4554            0.0000000000
     12348      4116  TIP3      H2              3.9328915875      -25.9553599386       10.3309683134  W2        4554            0.0000000000
     12349      4117  TIP3      OH2             0.3888315875      -29.6097899386       10.5349183134  W2        4555            0.0000000000
     12350      4117  TIP3      H1             -0.2972384125      -29.2575399386       11.1018883134  W2        4555            0.0000000000
     12351      4117  TIP3      H2              0.9116215875      -28.8468299386       10.2883483134  W2        4555            0.0000000000
     12352      4118  TIP3      OH2             6.6734415875      -25.1647599386       10.7737983134  W2        4558            0.0000000000
     12353      4118  TIP3      H1              5.8570515875      -24.6677899386       10.8262283134  W2        4558            0.0000000000
     12354      4118  TIP3      H2              7.2030715875      -24.6894099386       10.1336783134  W2        4558            0.0000000000
     12355      4119  TIP3      OH2             4.0117515875      -24.1210399386       10.7554883134  W2        4562            0.0000000000
     12356      4119  TIP3      H1              4.1726215875      -23.3212899386       10.2547483134  W2        4562            0.0000000000
     12357      4119  TIP3      H2              3.8145315875      -23.8144399386       11.6405483134  W2        4562            0.0000000000
     12358      4120  TIP3      OH2             2.7461915875      -37.4231199386       10.3712483134  W2        4563            0.0000000000
     12359      4120  TIP3      H1              2.6626715875      -36.5348099386       10.7178883134  W2        4563            0.0000000000
     12360      4120  TIP3      H2              3.6362215875      -37.6884499386       10.6029283134  W2        4563            0.0000000000
     12361      4121  TIP3      OH2             1.0047215875      -26.9958999386        9.4316983134  W2        4566            0.0000000000
     12362      4121  TIP3      H1              1.5968715875      -26.2964199386        9.7079383134  W2        4566            0.0000000000
     12363      4121  TIP3      H2              1.4640215875      -27.4289499386        8.7121583134  W2        4566            0.0000000000
     12364      4122  TIP3      OH2            -0.6793584125      -34.3315999386        8.5476383134  W2        4567            0.0000000000
     12365      4122  TIP3      H1             -0.7240984125      -33.3922899386        8.7263383134  W2        4567            0.0000000000
     12366      4122  TIP3      H2             -1.5670384125      -34.5671099386        8.2778483134  W2        4567            0.0000000000
     12367      4123  TIP3      OH2             7.0368415875      -24.5693599386        7.7067183134  W2        4573            0.0000000000
     12368      4123  TIP3      H1              6.3929415875      -25.2004999386        8.0280883134  W2        4573            0.0000000000
     12369      4123  TIP3      H2              7.7986715875      -25.1005599386        7.4750683134  W2        4573            0.0000000000
     12370      4124  TIP3      OH2            11.6411315875      -24.7523699386        7.9405183134  W2        4575            0.0000000000
     12371      4124  TIP3      H1             11.9241715875      -25.5468499386        8.3932083134  W2        4575            0.0000000000
     12372      4124  TIP3      H2             12.3809215875      -24.5192699386        7.3796283134  W2        4575            0.0000000000
     12373      4125  TIP3      OH2             2.5958615875      -28.8428799386        7.7980083134  W2        4577            0.0000000000
     12374      4125  TIP3      H1              2.6602715875      -29.6369199386        8.3286483134  W2        4577            0.0000000000
     12375      4125  TIP3      H2              3.2487815875      -28.9615999386        7.1082083134  W2        4577            0.0000000000
     12376      4126  TIP3      OH2             7.9482015875      -27.7957099386        7.5338083134  W2        4579            0.0000000000
     12377      4126  TIP3      H1              7.6796115875      -27.6154999386        8.4346983134  W2        4579            0.0000000000
     12378      4126  TIP3      H2              7.7417615875      -28.7210899386        7.4023883134  W2        4579            0.0000000000
     12379      4127  TIP3      OH2             3.7452415875      -30.8702599386       10.1038083134  W2        4582            0.0000000000
     12380      4127  TIP3      H1              3.2854415875      -31.3544299386       10.7896583134  W2        4582            0.0000000000
     12381      4127  TIP3      H2              4.0001115875      -31.5387199386        9.4678583134  W2        4582            0.0000000000
     12382      4128  TIP3      OH2             4.8162815875      -32.6270799386        8.3661283134  W2        4584            0.0000000000
     12383      4128  TIP3      H1              4.6357815875      -32.7819599386        7.4389583134  W2        4584            0.0000000000
     12384      4128  TIP3      H2              5.7663315875      -32.5192099386        8.4109183134  W2        4584            0.0000000000
     12385      4129  TIP3      OH2            14.2061115875      -30.2726599386        7.8119383134  W2        4586            0.0000000000
     12386      4129  TIP3      H1             13.9325915875      -30.6971099386        6.9987683134  W2        4586            0.0000000000
     12387      4129  TIP3      H2             14.2455215875      -29.3412099386        7.5949783134  W2        4586            0.0000000000
     12388      4130  TIP3      OH2             4.7134515875      -21.9367099386        9.3674883134  W2        4600            0.0000000000
     12389      4130  TIP3      H1              5.6465215875      -21.7788399386        9.5113283134  W2        4600            0.0000000000
     12390      4130  TIP3      H2              4.4493315875      -21.2614099386        8.7426383134  W2        4600            0.0000000000
     12391      4131  TIP3      OH2            -1.7180584125      -27.3003299386        8.8502983134  W2        4601            0.0000000000
     12392      4131  TIP3      H1             -0.8041384125      -27.2214399386        9.1236883134  W2        4601            0.0000000000
     12393      4131  TIP3      H2             -1.7107484125      -27.9873699386        8.1838583134  W2        4601            0.0000000000
     12394      4132  TIP3      OH2            15.3272615875      -31.4492599386       10.0016783134  W2        4611            0.0000000000
     12395      4132  TIP3      H1             14.8053715875      -31.0928499386        9.2827683134  W2        4611            0.0000000000
     12396      4132  TIP3      H2             15.2941815875      -30.7744799386       10.6797683134  W2        4611            0.0000000000
     12397      4133  TIP3      OH2            13.6761615875      -34.2096999386        8.5523883134  W2        4612            0.0000000000
     12398      4133  TIP3      H1             13.7726015875      -33.5429999386        7.8723583134  W2        4612            0.0000000000
     12399      4133  TIP3      H2             13.5361215875      -35.0250699386        8.0709383134  W2        4612            0.0000000000
     12400      4134  TIP3      OH2            12.9235415875      -36.8017199386        7.6699383134  W2        4617            0.0000000000
     12401      4134  TIP3      H1             13.5341215875      -37.1730399386        8.3067583134  W2        4617            0.0000000000
     12402      4134  TIP3      H2             12.0866915875      -37.2230299386        7.8659383134  W2        4617            0.0000000000
     12403      4135  TIP3      OH2            15.0362115875      -37.9161399386        9.2121583134  W2        4627            0.0000000000
     12404      4135  TIP3      H1             15.4484715875      -38.6375699386        8.7369583134  W2        4627            0.0000000000
     12405      4135  TIP3      H2             15.7178615875      -37.2466799386        9.2705883134  W2        4627            0.0000000000
     12406      4136  TIP3      OH2            -1.4064584125      -39.8685999386       10.3178883134  W2        4648            0.0000000000
     12407      4136  TIP3      H1             -0.9673884125      -39.2575499386        9.7262383134  W2        4648            0.0000000000
     12408      4136  TIP3      H2             -2.0402184125      -39.3301899386       10.7918883134  W2        4648            0.0000000000
     12409      4137  TIP3      OH2             0.4544515875      -37.9524499386        8.7602983134  W2        4653            0.0000000000
     12410      4137  TIP3      H1              0.9457915875      -38.5822099386        8.2328483134  W2        4653            0.0000000000
     12411      4137  TIP3      H2              1.0780815875      -37.6565099386        9.4234183134  W2        4653            0.0000000000
     12412      4138  TIP3      OH2             7.3588415875      -22.7108899386        9.6130183134  W2        4655            0.0000000000
     12413      4138  TIP3      H1              8.2248615875      -22.3441499386        9.4348383134  W2        4655            0.0000000000
     12414      4138  TIP3      H2              7.1121215875      -23.1500899386        8.7990983134  W2        4655            0.0000000000
     12415      4139  TIP3      OH2             0.3126115875      -23.0002999386        8.2406083134  W2        4659            0.0000000000
     12416      4139  TIP3      H1              0.0450715875      -22.7140099386        9.1139183134  W2        4659            0.0000000000
     12417      4139  TIP3      H2              1.0838715875      -23.5463799386        8.3928583134  W2        4659            0.0000000000
     12418      4140  TIP3      OH2            26.4666315875      -32.8087499386        8.9635583134  W2        4692            0.0000000000
     12419      4140  TIP3      H1             27.1676215875      -32.7860599386        9.6149583134  W2        4692            0.0000000000
     12420      4140  TIP3      H2             26.7689215875      -33.4367799386        8.3074883134  W2        4692            0.0000000000
     12421      4141  TIP3      OH2            28.6894315875      -31.8945599386       10.5617683134  W2        4701            0.0000000000
     12422      4141  TIP3      H1             29.2689815875      -31.7445299386       11.3086583134  W2        4701            0.0000000000
     12423      4141  TIP3      H2             29.1034315875      -31.4238199386        9.8384083134  W2        4701            0.0000000000
     12424      4142  TIP3      OH2            32.3882715875      -40.1445199386       10.3747383134  W2        4705            0.0000000000
     12425      4142  TIP3      H1             31.4883415875      -40.0056199386       10.6697983134  W2        4705            0.0000000000
     12426      4142  TIP3      H2             32.6401115875      -39.3130599386        9.9729083134  W2        4705            0.0000000000
     12427      4143  TIP3      OH2            33.5774115875      -25.7782799386        8.7511283134  W2        4707            0.0000000000
     12428      4143  TIP3      H1             33.6507615875      -24.8392599386        8.9216583134  W2        4707            0.0000000000
     12429      4143  TIP3      H2             34.4829215875      -26.0834199386        8.6948583134  W2        4707            0.0000000000
     12430      4144  TIP3      OH2            28.9898315875      -23.0472199386        9.4142383134  W2        4714            0.0000000000
     12431      4144  TIP3      H1             29.3646715875      -23.7916099386        8.9434983134  W2        4714            0.0000000000
     12432      4144  TIP3      H2             28.9942015875      -23.3171599386       10.3325683134  W2        4714            0.0000000000
     12433      4145  TIP3      OH2            30.1667415875      -30.8617299386        8.1915583134  W2        4721            0.0000000000
     12434      4145  TIP3      H1             30.2088215875      -31.0843399386        7.2615583134  W2        4721            0.0000000000
     12435      4145  TIP3      H2             31.0159515875      -30.4630199386        8.3815483134  W2        4721            0.0000000000
     12436      4146  TIP3      OH2            25.7394915875      -36.9859099386        8.8618883134  W2        4722            0.0000000000
     12437      4146  TIP3      H1             25.4859715875      -36.9667499386        9.7846983134  W2        4722            0.0000000000
     12438      4146  TIP3      H2             25.4827015875      -37.8573699386        8.5605083134  W2        4722            0.0000000000
     12439      4147  TIP3      OH2            22.6217815875      -36.5402599386        7.9629283134  W2        4729            0.0000000000
     12440      4147  TIP3      H1             22.1908515875      -36.9852499386        8.6926683134  W2        4729            0.0000000000
     12441      4147  TIP3      H2             21.9036515875      -36.1686299386        7.4506783134  W2        4729            0.0000000000
     12442      4148  TIP3      OH2            17.1383315875      -36.0521099386       10.4388383134  W2        4731            0.0000000000
     12443      4148  TIP3      H1             17.6125015875      -35.4611199386        9.8539283134  W2        4731            0.0000000000
     12444      4148  TIP3      H2             16.4209715875      -35.5218199386       10.7858483134  W2        4731            0.0000000000
     12445      4149  TIP3      OH2            21.2399715875      -33.7629699386        9.3453683134  W2        4737            0.0000000000
     12446      4149  TIP3      H1             20.6974815875      -34.1425899386        8.6541283134  W2        4737            0.0000000000
     12447      4149  TIP3      H2             22.0734615875      -33.5684999386        8.9167783134  W2        4737            0.0000000000
     12448      4150  TIP3      OH2            28.4729315875      -36.3834099386        9.4804383134  W2        4745            0.0000000000
     12449      4150  TIP3      H1             27.5343515875      -36.2718499386        9.3293183134  W2        4745            0.0000000000
     12450      4150  TIP3      H2             28.7701415875      -35.5267199386        9.7870083134  W2        4745            0.0000000000
     12451      4151  TIP3      OH2            29.1912815875      -34.5161399386       11.1411783134  W2        4747            0.0000000000
     12452      4151  TIP3      H1             30.0831815875      -34.6536399386       11.4602983134  W2        4747            0.0000000000
     12453      4151  TIP3      H2             29.2476415875      -33.7255299386       10.6045283134  W2        4747            0.0000000000
     12454      4152  TIP3      OH2            26.7006615875      -27.7389699386       10.3066383134  W2        4749            0.0000000000
     12455      4152  TIP3      H1             26.4055015875      -26.9121799386       10.6881183134  W2        4749            0.0000000000
     12456      4152  TIP3      H2             25.9976615875      -28.3582799386       10.5027783134  W2        4749            0.0000000000
     12457      4153  TIP3      OH2            34.0761515875      -34.3067299386       10.8358483134  W2        4753            0.0000000000
     12458      4153  TIP3      H1             33.5217815875      -34.7029299386       10.1635983134  W2        4753            0.0000000000
     12459      4153  TIP3      H2             34.1765115875      -33.3962099386       10.5581783134  W2        4753            0.0000000000
     12460      4154  TIP3      OH2            17.8297915875      -31.5221699386        9.0423583134  W2        4758            0.0000000000
     12461      4154  TIP3      H1             18.4457815875      -30.8954499386        9.4218383134  W2        4758            0.0000000000
     12462      4154  TIP3      H2             16.9680515875      -31.2061899386        9.3140083134  W2        4758            0.0000000000
     12463      4155  TIP3      OH2            29.7638815875      -27.5441099386        9.1211183134  W2        4763            0.0000000000
     12464      4155  TIP3      H1             30.1171915875      -27.9241299386        9.9254683134  W2        4763            0.0000000000
     12465      4155  TIP3      H2             28.8152315875      -27.6376299386        9.2080483134  W2        4763            0.0000000000
     12466      4156  TIP3      OH2            34.2673215875      -23.0648599386        9.3221383134  W2        4765            0.0000000000
     12467      4156  TIP3      H1             35.0111115875      -22.4788099386        9.1822983134  W2        4765            0.0000000000
     12468      4156  TIP3      H2             33.5731315875      -22.4962799386        9.6553783134  W2        4765            0.0000000000
     12469      4157  TIP3      OH2            23.8546615875      -26.4324999386        7.5681183134  W2        4769            0.0000000000
     12470      4157  TIP3      H1             24.0936415875      -27.1806899386        7.0210083134  W2        4769            0.0000000000
     12471      4157  TIP3      H2             23.5857915875      -26.8203299386        8.4008983134  W2        4769            0.0000000000
     12472      4158  TIP3      OH2            22.7917215875      -26.8621199386       10.0243783134  W2        4770            0.0000000000
     12473      4158  TIP3      H1             22.9385215875      -27.3821399386       10.8144683134  W2        4770            0.0000000000
     12474      4158  TIP3      H2             22.7888915875      -25.9553599386       10.3309683134  W2        4770            0.0000000000
     12475      4159  TIP3      OH2            19.2448315875      -29.6097899386       10.5349183134  W2        4771            0.0000000000
     12476      4159  TIP3      H1             18.5587615875      -29.2575399386       11.1018883134  W2        4771            0.0000000000
     12477      4159  TIP3      H2             19.7676215875      -28.8468299386       10.2883483134  W2        4771            0.0000000000
     12478      4160  TIP3      OH2            25.5294415875      -25.1647599386       10.7737983134  W2        4774            0.0000000000
     12479      4160  TIP3      H1             24.7130515875      -24.6677899386       10.8262283134  W2        4774            0.0000000000
     12480      4160  TIP3      H2             26.0590715875      -24.6894099386       10.1336783134  W2        4774            0.0000000000
     12481      4161  TIP3      OH2            22.8677515875      -24.1210399386       10.7554883134  W2        4778            0.0000000000
     12482      4161  TIP3      H1             23.0286215875      -23.3212899386       10.2547483134  W2        4778            0.0000000000
     12483      4161  TIP3      H2             22.6705315875      -23.8144399386       11.6405483134  W2        4778            0.0000000000
     12484      4162  TIP3      OH2            21.6021915875      -37.4231199386       10.3712483134  W2        4779            0.0000000000
     12485      4162  TIP3      H1             21.5186715875      -36.5348099386       10.7178883134  W2        4779            0.0000000000
     12486      4162  TIP3      H2             22.4922215875      -37.6884499386       10.6029283134  W2        4779            0.0000000000
     12487      4163  TIP3      OH2            19.8607215875      -26.9958999386        9.4316983134  W2        4782            0.0000000000
     12488      4163  TIP3      H1             20.4528715875      -26.2964199386        9.7079383134  W2        4782            0.0000000000
     12489      4163  TIP3      H2             20.3200215875      -27.4289499386        8.7121583134  W2        4782            0.0000000000
     12490      4164  TIP3      OH2            18.1766415875      -34.3315999386        8.5476383134  W2        4783            0.0000000000
     12491      4164  TIP3      H1             18.1319015875      -33.3922899386        8.7263383134  W2        4783            0.0000000000
     12492      4164  TIP3      H2             17.2889615875      -34.5671099386        8.2778483134  W2        4783            0.0000000000
     12493      4165  TIP3      OH2            25.8928415875      -24.5693599386        7.7067183134  W2        4789            0.0000000000
     12494      4165  TIP3      H1             25.2489415875      -25.2004999386        8.0280883134  W2        4789            0.0000000000
     12495      4165  TIP3      H2             26.6546715875      -25.1005599386        7.4750683134  W2        4789            0.0000000000
     12496      4166  TIP3      OH2            30.4971315875      -24.7523699386        7.9405183134  W2        4791            0.0000000000
     12497      4166  TIP3      H1             30.7801715875      -25.5468499386        8.3932083134  W2        4791            0.0000000000
     12498      4166  TIP3      H2             31.2369215875      -24.5192699386        7.3796283134  W2        4791            0.0000000000
     12499      4167  TIP3      OH2            21.4518615875      -28.8428799386        7.7980083134  W2        4793            0.0000000000
     12500      4167  TIP3      H1             21.5162715875      -29.6369199386        8.3286483134  W2        4793            0.0000000000
     12501      4167  TIP3      H2             22.1047815875      -28.9615999386        7.1082083134  W2        4793            0.0000000000
     12502      4168  TIP3      OH2            26.8042015875      -27.7957099386        7.5338083134  W2        4795            0.0000000000
     12503      4168  TIP3      H1             26.5356115875      -27.6154999386        8.4346983134  W2        4795            0.0000000000
     12504      4168  TIP3      H2             26.5977615875      -28.7210899386        7.4023883134  W2        4795            0.0000000000
     12505      4169  TIP3      OH2            22.6012415875      -30.8702599386       10.1038083134  W2        4798            0.0000000000
     12506      4169  TIP3      H1             22.1414415875      -31.3544299386       10.7896583134  W2        4798            0.0000000000
     12507      4169  TIP3      H2             22.8561115875      -31.5387199386        9.4678583134  W2        4798            0.0000000000
     12508      4170  TIP3      OH2            23.6722815875      -32.6270799386        8.3661283134  W2        4800            0.0000000000
     12509      4170  TIP3      H1             23.4917815875      -32.7819599386        7.4389583134  W2        4800            0.0000000000
     12510      4170  TIP3      H2             24.6223315875      -32.5192099386        8.4109183134  W2        4800            0.0000000000
     12511      4171  TIP3      OH2            33.0621115875      -30.2726599386        7.8119383134  W2        4802            0.0000000000
     12512      4171  TIP3      H1             32.7885915875      -30.6971099386        6.9987683134  W2        4802            0.0000000000
     12513      4171  TIP3      H2             33.1015215875      -29.3412099386        7.5949783134  W2        4802            0.0000000000
     12514      4172  TIP3      OH2            23.5694515875      -21.9367099386        9.3674883134  W2        4816            0.0000000000
     12515      4172  TIP3      H1             24.5025215875      -21.7788399386        9.5113283134  W2        4816            0.0000000000
     12516      4172  TIP3      H2             23.3053315875      -21.2614099386        8.7426383134  W2        4816            0.0000000000
     12517      4173  TIP3      OH2            17.1379415875      -27.3003299386        8.8502983134  W2        4817            0.0000000000
     12518      4173  TIP3      H1             18.0518615875      -27.2214399386        9.1236883134  W2        4817            0.0000000000
     12519      4173  TIP3      H2             17.1452515875      -27.9873699386        8.1838583134  W2        4817            0.0000000000
     12520      4174  TIP3      OH2            34.1832615875      -31.4492599386       10.0016783134  W2        4827            0.0000000000
     12521      4174  TIP3      H1             33.6613715875      -31.0928499386        9.2827683134  W2        4827            0.0000000000
     12522      4174  TIP3      H2             34.1501815875      -30.7744799386       10.6797683134  W2        4827            0.0000000000
     12523      4175  TIP3      OH2            32.5321615875      -34.2096999386        8.5523883134  W2        4828            0.0000000000
     12524      4175  TIP3      H1             32.6286015875      -33.5429999386        7.8723583134  W2        4828            0.0000000000
     12525      4175  TIP3      H2             32.3921215875      -35.0250699386        8.0709383134  W2        4828            0.0000000000
     12526      4176  TIP3      OH2            31.7795415875      -36.8017199386        7.6699383134  W2        4833            0.0000000000
     12527      4176  TIP3      H1             32.3901215875      -37.1730399386        8.3067583134  W2        4833            0.0000000000
     12528      4176  TIP3      H2             30.9426915875      -37.2230299386        7.8659383134  W2        4833            0.0000000000
     12529      4177  TIP3      OH2            33.8922115875      -37.9161399386        9.2121583134  W2        4843            0.0000000000
     12530      4177  TIP3      H1             34.3044715875      -38.6375699386        8.7369583134  W2        4843            0.0000000000
     12531      4177  TIP3      H2             34.5738615875      -37.2466799386        9.2705883134  W2        4843            0.0000000000
     12532      4178  TIP3      OH2            17.4495415875      -39.8685999386       10.3178883134  W2        4864            0.0000000000
     12533      4178  TIP3      H1             17.8886115875      -39.2575499386        9.7262383134  W2        4864            0.0000000000
     12534      4178  TIP3      H2             16.8157815875      -39.3301899386       10.7918883134  W2        4864            0.0000000000
     12535      4179  TIP3      OH2            19.3104515875      -37.9524499386        8.7602983134  W2        4869            0.0000000000
     12536      4179  TIP3      H1             19.8017915875      -38.5822099386        8.2328483134  W2        4869            0.0000000000
     12537      4179  TIP3      H2             19.9340815875      -37.6565099386        9.4234183134  W2        4869            0.0000000000
     12538      4180  TIP3      OH2            26.2148415875      -22.7108899386        9.6130183134  W2        4871            0.0000000000
     12539      4180  TIP3      H1             27.0808615875      -22.3441499386        9.4348383134  W2        4871            0.0000000000
     12540      4180  TIP3      H2             25.9681215875      -23.1500899386        8.7990983134  W2        4871            0.0000000000
     12541      4181  TIP3      OH2            19.1686115875      -23.0002999386        8.2406083134  W2        4875            0.0000000000
     12542      4181  TIP3      H1             18.9010715875      -22.7140099386        9.1139183134  W2        4875            0.0000000000
     12543      4181  TIP3      H2             19.9398715875      -23.5463799386        8.3928583134  W2        4875            0.0000000000
     12544      4182  TIP3      OH2            35.9943315875      -36.0521099386       10.4388383134  W2        4901            0.0000000000
     12545      4182  TIP3      H1             36.4685015875      -35.4611199386        9.8539283134  W2        4901            0.0000000000
     12546      4182  TIP3      H2             35.2769715875      -35.5218199386       10.7858483134  W2        4901            0.0000000000
     12547      4183  TIP3      OH2            40.0959715875      -33.7629699386        9.3453683134  W2        4903            0.0000000000
     12548      4183  TIP3      H1             39.5534815875      -34.1425899386        8.6541283134  W2        4903            0.0000000000
     12549      4183  TIP3      H2             40.9294615875      -33.5684999386        8.9167783134  W2        4903            0.0000000000
     12550      4184  TIP3      OH2            36.6857915875      -31.5221699386        9.0423583134  W2        4908            0.0000000000
     12551      4184  TIP3      H1             37.3017815875      -30.8954499386        9.4218383134  W2        4908            0.0000000000
     12552      4184  TIP3      H2             35.8240515875      -31.2061899386        9.3140083134  W2        4908            0.0000000000
     12553      4185  TIP3      OH2            38.1008315875      -29.6097899386       10.5349183134  W2        4911            0.0000000000
     12554      4185  TIP3      H1             37.4147615875      -29.2575399386       11.1018883134  W2        4911            0.0000000000
     12555      4185  TIP3      H2             38.6236215875      -28.8468299386       10.2883483134  W2        4911            0.0000000000
     12556      4186  TIP3      OH2            40.4581915875      -37.4231199386       10.3712483134  W2        4912            0.0000000000
     12557      4186  TIP3      H1             40.3746715875      -36.5348099386       10.7178883134  W2        4912            0.0000000000
     12558      4186  TIP3      H2             41.3482215875      -37.6884499386       10.6029283134  W2        4912            0.0000000000
     12559      4187  TIP3      OH2            38.7167215875      -26.9958999386        9.4316983134  W2        4913            0.0000000000
     12560      4187  TIP3      H1             39.3088715875      -26.2964199386        9.7079383134  W2        4913            0.0000000000
     12561      4187  TIP3      H2             39.1760215875      -27.4289499386        8.7121583134  W2        4913            0.0000000000
     12562      4188  TIP3      OH2            37.0326415875      -34.3315999386        8.5476383134  W2        4914            0.0000000000
     12563      4188  TIP3      H1             36.9879015875      -33.3922899386        8.7263383134  W2        4914            0.0000000000
     12564      4188  TIP3      H2             36.1449615875      -34.5671099386        8.2778483134  W2        4914            0.0000000000
     12565      4189  TIP3      OH2            40.3078615875      -28.8428799386        7.7980083134  W2        4919            0.0000000000
     12566      4189  TIP3      H1             40.3722715875      -29.6369199386        8.3286483134  W2        4919            0.0000000000
     12567      4189  TIP3      H2             40.9607815875      -28.9615999386        7.1082083134  W2        4919            0.0000000000
     12568      4190  TIP3      OH2            35.9939415875      -27.3003299386        8.8502983134  W2        4923            0.0000000000
     12569      4190  TIP3      H1             36.9078615875      -27.2214399386        9.1236883134  W2        4923            0.0000000000
     12570      4190  TIP3      H2             36.0012515875      -27.9873699386        8.1838583134  W2        4923            0.0000000000
     12571      4191  TIP3      OH2            36.3055415875      -39.8685999386       10.3178883134  W2        4939            0.0000000000
     12572      4191  TIP3      H1             36.7446115875      -39.2575499386        9.7262383134  W2        4939            0.0000000000
     12573      4191  TIP3      H2             35.6717815875      -39.3301899386       10.7918883134  W2        4939            0.0000000000
     12574      4192  TIP3      OH2            38.1664515875      -37.9524499386        8.7602983134  W2        4941            0.0000000000
     12575      4192  TIP3      H1             38.6577915875      -38.5822099386        8.2328483134  W2        4941            0.0000000000
     12576      4192  TIP3      H2             38.7900815875      -37.6565099386        9.4234183134  W2        4941            0.0000000000
     12577      4193  TIP3      OH2            38.0246115875      -23.0002999386        8.2406083134  W2        4944            0.0000000000
     12578      4193  TIP3      H1             37.7570715875      -22.7140099386        9.1139183134  W2        4944            0.0000000000
     12579      4193  TIP3      H2             38.7958715875      -23.5463799386        8.3928583134  W2        4944            0.0000000000
     12580      4194  TIP3      OH2           -30.1013684125      -13.9527499386        8.9635583134  W2        4975            0.0000000000
     12581      4194  TIP3      H1            -29.4003784125      -13.9300599386        9.6149583134  W2        4975            0.0000000000
     12582      4194  TIP3      H2            -29.7990784125      -14.5807799386        8.3074883134  W2        4975            0.0000000000
     12583      4195  TIP3      OH2           -27.8785684125      -13.0385599386       10.5617683134  W2        4984            0.0000000000
     12584      4195  TIP3      H1            -27.2990184125      -12.8885299386       11.3086583134  W2        4984            0.0000000000
     12585      4195  TIP3      H2            -27.4645684125      -12.5678199386        9.8384083134  W2        4984            0.0000000000
     12586      4196  TIP3      OH2           -24.1797284125      -21.2885199386       10.3747383134  W2        4988            0.0000000000
     12587      4196  TIP3      H1            -25.0796584125      -21.1496199386       10.6697983134  W2        4988            0.0000000000
     12588      4196  TIP3      H2            -23.9278884125      -20.4570599386        9.9729083134  W2        4988            0.0000000000
     12589      4197  TIP3      OH2           -22.9905884125       -6.9222799386        8.7511283134  W2        4990            0.0000000000
     12590      4197  TIP3      H1            -22.9172384125       -5.9832599386        8.9216583134  W2        4990            0.0000000000
     12591      4197  TIP3      H2            -22.0850784125       -7.2274199386        8.6948583134  W2        4990            0.0000000000
     12592      4198  TIP3      OH2           -27.5781684125       -4.1912199386        9.4142383134  W2        4997            0.0000000000
     12593      4198  TIP3      H1            -27.2033284125       -4.9356099386        8.9434983134  W2        4997            0.0000000000
     12594      4198  TIP3      H2            -27.5737984125       -4.4611599386       10.3325683134  W2        4997            0.0000000000
     12595      4199  TIP3      OH2           -26.4012584125      -12.0057299386        8.1915583134  W2        5004            0.0000000000
     12596      4199  TIP3      H1            -26.3591784125      -12.2283399386        7.2615583134  W2        5004            0.0000000000
     12597      4199  TIP3      H2            -25.5520484125      -11.6070199386        8.3815483134  W2        5004            0.0000000000
     12598      4200  TIP3      OH2           -30.8285084125      -18.1299099386        8.8618883134  W2        5005            0.0000000000
     12599      4200  TIP3      H1            -31.0820284125      -18.1107499386        9.7846983134  W2        5005            0.0000000000
     12600      4200  TIP3      H2            -31.0852984125      -19.0013699386        8.5605083134  W2        5005            0.0000000000
     12601      4201  TIP3      OH2           -33.9462184125      -17.6842599386        7.9629283134  W2        5012            0.0000000000
     12602      4201  TIP3      H1            -34.3771484125      -18.1292499386        8.6926683134  W2        5012            0.0000000000
     12603      4201  TIP3      H2            -34.6643484125      -17.3126299386        7.4506783134  W2        5012            0.0000000000
     12604      4202  TIP3      OH2           -39.4296684125      -17.1961099386       10.4388383134  W2        5014            0.0000000000
     12605      4202  TIP3      H1            -38.9554984125      -16.6051199386        9.8539283134  W2        5014            0.0000000000
     12606      4202  TIP3      H2            -40.1470284125      -16.6658199386       10.7858483134  W2        5014            0.0000000000
     12607      4203  TIP3      OH2           -35.3280284125      -14.9069699386        9.3453683134  W2        5020            0.0000000000
     12608      4203  TIP3      H1            -35.8705184125      -15.2865899386        8.6541283134  W2        5020            0.0000000000
     12609      4203  TIP3      H2            -34.4945384125      -14.7124999386        8.9167783134  W2        5020            0.0000000000
     12610      4204  TIP3      OH2           -28.0950684125      -17.5274099386        9.4804383134  W2        5028            0.0000000000
     12611      4204  TIP3      H1            -29.0336484125      -17.4158499386        9.3293183134  W2        5028            0.0000000000
     12612      4204  TIP3      H2            -27.7978584125      -16.6707199386        9.7870083134  W2        5028            0.0000000000
     12613      4205  TIP3      OH2           -27.3767184125      -15.6601399386       11.1411783134  W2        5030            0.0000000000
     12614      4205  TIP3      H1            -26.4848184125      -15.7976399386       11.4602983134  W2        5030            0.0000000000
     12615      4205  TIP3      H2            -27.3203584125      -14.8695299386       10.6045283134  W2        5030            0.0000000000
     12616      4206  TIP3      OH2           -29.8673384125       -8.8829699386       10.3066383134  W2        5032            0.0000000000
     12617      4206  TIP3      H1            -30.1624984125       -8.0561799386       10.6881183134  W2        5032            0.0000000000
     12618      4206  TIP3      H2            -30.5703384125       -9.5022799386       10.5027783134  W2        5032            0.0000000000
     12619      4207  TIP3      OH2           -22.4918484125      -15.4507299386       10.8358483134  W2        5036            0.0000000000
     12620      4207  TIP3      H1            -23.0462184125      -15.8469299386       10.1635983134  W2        5036            0.0000000000
     12621      4207  TIP3      H2            -22.3914884125      -14.5402099386       10.5581783134  W2        5036            0.0000000000
     12622      4208  TIP3      OH2           -38.7382084125      -12.6661699386        9.0423583134  W2        5041            0.0000000000
     12623      4208  TIP3      H1            -38.1222184125      -12.0394499386        9.4218383134  W2        5041            0.0000000000
     12624      4208  TIP3      H2            -39.5999484125      -12.3501899386        9.3140083134  W2        5041            0.0000000000
     12625      4209  TIP3      OH2           -26.8041184125       -8.6881099386        9.1211183134  W2        5046            0.0000000000
     12626      4209  TIP3      H1            -26.4508084125       -9.0681299386        9.9254683134  W2        5046            0.0000000000
     12627      4209  TIP3      H2            -27.7527684125       -8.7816299386        9.2080483134  W2        5046            0.0000000000
     12628      4210  TIP3      OH2           -22.3006784125       -4.2088599386        9.3221383134  W2        5048            0.0000000000
     12629      4210  TIP3      H1            -21.5568884125       -3.6228099386        9.1822983134  W2        5048            0.0000000000
     12630      4210  TIP3      H2            -22.9948684125       -3.6402799386        9.6553783134  W2        5048            0.0000000000
     12631      4211  TIP3      OH2           -32.7133384125       -7.5764999386        7.5681183134  W2        5052            0.0000000000
     12632      4211  TIP3      H1            -32.4743584125       -8.3246899386        7.0210083134  W2        5052            0.0000000000
     12633      4211  TIP3      H2            -32.9822084125       -7.9643299386        8.4008983134  W2        5052            0.0000000000
     12634      4212  TIP3      OH2           -33.7762784125       -8.0061199386       10.0243783134  W2        5053            0.0000000000
     12635      4212  TIP3      H1            -33.6294784125       -8.5261399386       10.8144683134  W2        5053            0.0000000000
     12636      4212  TIP3      H2            -33.7791084125       -7.0993599386       10.3309683134  W2        5053            0.0000000000
     12637      4213  TIP3      OH2           -37.3231684125      -10.7537899386       10.5349183134  W2        5054            0.0000000000
     12638      4213  TIP3      H1            -38.0092384125      -10.4015399386       11.1018883134  W2        5054            0.0000000000
     12639      4213  TIP3      H2            -36.8003784125       -9.9908299386       10.2883483134  W2        5054            0.0000000000
     12640      4214  TIP3      OH2           -31.0385584125       -6.3087599386       10.7737983134  W2        5057            0.0000000000
     12641      4214  TIP3      H1            -31.8549484125       -5.8117899386       10.8262283134  W2        5057            0.0000000000
     12642      4214  TIP3      H2            -30.5089284125       -5.8334099386       10.1336783134  W2        5057            0.0000000000
     12643      4215  TIP3      OH2           -33.7002484125       -5.2650399386       10.7554883134  W2        5061            0.0000000000
     12644      4215  TIP3      H1            -33.5393784125       -4.4652899386       10.2547483134  W2        5061            0.0000000000
     12645      4215  TIP3      H2            -33.8974684125       -4.9584399386       11.6405483134  W2        5061            0.0000000000
     12646      4216  TIP3      OH2           -34.9658084125      -18.5671199386       10.3712483134  W2        5062            0.0000000000
     12647      4216  TIP3      H1            -35.0493284125      -17.6788099386       10.7178883134  W2        5062            0.0000000000
     12648      4216  TIP3      H2            -34.0757784125      -18.8324499386       10.6029283134  W2        5062            0.0000000000
     12649      4217  TIP3      OH2           -36.7072784125       -8.1398999386        9.4316983134  W2        5065            0.0000000000
     12650      4217  TIP3      H1            -36.1151284125       -7.4404199386        9.7079383134  W2        5065            0.0000000000
     12651      4217  TIP3      H2            -36.2479784125       -8.5729499386        8.7121583134  W2        5065            0.0000000000
     12652      4218  TIP3      OH2           -38.3913584125      -15.4755999386        8.5476383134  W2        5066            0.0000000000
     12653      4218  TIP3      H1            -38.4360984125      -14.5362899386        8.7263383134  W2        5066            0.0000000000
     12654      4218  TIP3      H2            -39.2790384125      -15.7111099386        8.2778483134  W2        5066            0.0000000000
     12655      4219  TIP3      OH2           -30.6751584125       -5.7133599386        7.7067183134  W2        5072            0.0000000000
     12656      4219  TIP3      H1            -31.3190584125       -6.3444999386        8.0280883134  W2        5072            0.0000000000
     12657      4219  TIP3      H2            -29.9133284125       -6.2445599386        7.4750683134  W2        5072            0.0000000000
     12658      4220  TIP3      OH2           -26.0708684125       -5.8963699386        7.9405183134  W2        5074            0.0000000000
     12659      4220  TIP3      H1            -25.7878284125       -6.6908499386        8.3932083134  W2        5074            0.0000000000
     12660      4220  TIP3      H2            -25.3310784125       -5.6632699386        7.3796283134  W2        5074            0.0000000000
     12661      4221  TIP3      OH2           -35.1161384125       -9.9868799386        7.7980083134  W2        5076            0.0000000000
     12662      4221  TIP3      H1            -35.0517284125      -10.7809199386        8.3286483134  W2        5076            0.0000000000
     12663      4221  TIP3      H2            -34.4632184125      -10.1055999386        7.1082083134  W2        5076            0.0000000000
     12664      4222  TIP3      OH2           -29.7637984125       -8.9397099386        7.5338083134  W2        5078            0.0000000000
     12665      4222  TIP3      H1            -30.0323884125       -8.7594999386        8.4346983134  W2        5078            0.0000000000
     12666      4222  TIP3      H2            -29.9702384125       -9.8650899386        7.4023883134  W2        5078            0.0000000000
     12667      4223  TIP3      OH2           -33.9667584125      -12.0142599386       10.1038083134  W2        5081            0.0000000000
     12668      4223  TIP3      H1            -34.4265584125      -12.4984299386       10.7896583134  W2        5081            0.0000000000
     12669      4223  TIP3      H2            -33.7118884125      -12.6827199386        9.4678583134  W2        5081            0.0000000000
     12670      4224  TIP3      OH2           -32.8957184125      -13.7710799386        8.3661283134  W2        5083            0.0000000000
     12671      4224  TIP3      H1            -33.0762184125      -13.9259599386        7.4389583134  W2        5083            0.0000000000
     12672      4224  TIP3      H2            -31.9456684125      -13.6632099386        8.4109183134  W2        5083            0.0000000000
     12673      4225  TIP3      OH2           -23.5058884125      -11.4166599386        7.8119383134  W2        5085            0.0000000000
     12674      4225  TIP3      H1            -23.7794084125      -11.8411099386        6.9987683134  W2        5085            0.0000000000
     12675      4225  TIP3      H2            -23.4664784125      -10.4852099386        7.5949783134  W2        5085            0.0000000000
     12676      4226  TIP3      OH2           -32.9985484125       -3.0807099386        9.3674883134  W2        5099            0.0000000000
     12677      4226  TIP3      H1            -32.0654784125       -2.9228399386        9.5113283134  W2        5099            0.0000000000
     12678      4226  TIP3      H2            -33.2626684125       -2.4054099386        8.7426383134  W2        5099            0.0000000000
     12679      4227  TIP3      OH2           -39.4300584125       -8.4443299386        8.8502983134  W2        5100            0.0000000000
     12680      4227  TIP3      H1            -38.5161384125       -8.3654399386        9.1236883134  W2        5100            0.0000000000
     12681      4227  TIP3      H2            -39.4227484125       -9.1313699386        8.1838583134  W2        5100            0.0000000000
     12682      4228  TIP3      OH2           -22.3847384125      -12.5932599386       10.0016783134  W2        5110            0.0000000000
     12683      4228  TIP3      H1            -22.9066284125      -12.2368499386        9.2827683134  W2        5110            0.0000000000
     12684      4228  TIP3      H2            -22.4178184125      -11.9184799386       10.6797683134  W2        5110            0.0000000000
     12685      4229  TIP3      OH2           -24.0358384125      -15.3536999386        8.5523883134  W2        5111            0.0000000000
     12686      4229  TIP3      H1            -23.9393984125      -14.6869999386        7.8723583134  W2        5111            0.0000000000
     12687      4229  TIP3      H2            -24.1758784125      -16.1690699386        8.0709383134  W2        5111            0.0000000000
     12688      4230  TIP3      OH2           -24.7884584125      -17.9457199386        7.6699383134  W2        5116            0.0000000000
     12689      4230  TIP3      H1            -24.1778784125      -18.3170399386        8.3067583134  W2        5116            0.0000000000
     12690      4230  TIP3      H2            -25.6253084125      -18.3670299386        7.8659383134  W2        5116            0.0000000000
     12691      4231  TIP3      OH2           -22.6757884125      -19.0601399386        9.2121583134  W2        5126            0.0000000000
     12692      4231  TIP3      H1            -22.2635284125      -19.7815699386        8.7369583134  W2        5126            0.0000000000
     12693      4231  TIP3      H2            -21.9941384125      -18.3906799386        9.2705883134  W2        5126            0.0000000000
     12694      4232  TIP3      OH2           -39.1184584125      -21.0125999386       10.3178883134  W2        5147            0.0000000000
     12695      4232  TIP3      H1            -38.6793884125      -20.4015499386        9.7262383134  W2        5147            0.0000000000
     12696      4232  TIP3      H2            -39.7522184125      -20.4741899386       10.7918883134  W2        5147            0.0000000000
     12697      4233  TIP3      OH2           -37.2575484125      -19.0964499386        8.7602983134  W2        5152            0.0000000000
     12698      4233  TIP3      H1            -36.7662084125      -19.7262099386        8.2328483134  W2        5152            0.0000000000
     12699      4233  TIP3      H2            -36.6339184125      -18.8005099386        9.4234183134  W2        5152            0.0000000000
     12700      4234  TIP3      OH2           -30.3531584125       -3.8548899386        9.6130183134  W2        5154            0.0000000000
     12701      4234  TIP3      H1            -29.4871384125       -3.4881499386        9.4348383134  W2        5154            0.0000000000
     12702      4234  TIP3      H2            -30.5998784125       -4.2940899386        8.7990983134  W2        5154            0.0000000000
     12703      4235  TIP3      OH2           -37.3993884125       -4.1442999386        8.2406083134  W2        5158            0.0000000000
     12704      4235  TIP3      H1            -37.6669284125       -3.8580099386        9.1139183134  W2        5158            0.0000000000
     12705      4235  TIP3      H2            -36.6281284125       -4.6903799386        8.3928583134  W2        5158            0.0000000000
     12706      4236  TIP3      OH2           -11.2453684125      -13.9527499386        8.9635583134  W2        5191            0.0000000000
     12707      4236  TIP3      H1            -10.5443784125      -13.9300599386        9.6149583134  W2        5191            0.0000000000
     12708      4236  TIP3      H2            -10.9430784125      -14.5807799386        8.3074883134  W2        5191            0.0000000000
     12709      4237  TIP3      OH2            -9.0225684125      -13.0385599386       10.5617683134  W2        5200            0.0000000000
     12710      4237  TIP3      H1             -8.4430184125      -12.8885299386       11.3086583134  W2        5200            0.0000000000
     12711      4237  TIP3      H2             -8.6085684125      -12.5678199386        9.8384083134  W2        5200            0.0000000000
     12712      4238  TIP3      OH2            -5.3237284125      -21.2885199386       10.3747383134  W2        5204            0.0000000000
     12713      4238  TIP3      H1             -6.2236584125      -21.1496199386       10.6697983134  W2        5204            0.0000000000
     12714      4238  TIP3      H2             -5.0718884125      -20.4570599386        9.9729083134  W2        5204            0.0000000000
     12715      4239  TIP3      OH2            -4.1345884125       -6.9222799386        8.7511283134  W2        5206            0.0000000000
     12716      4239  TIP3      H1             -4.0612384125       -5.9832599386        8.9216583134  W2        5206            0.0000000000
     12717      4239  TIP3      H2             -3.2290784125       -7.2274199386        8.6948583134  W2        5206            0.0000000000
     12718      4240  TIP3      OH2            -8.7221684125       -4.1912199386        9.4142383134  W2        5213            0.0000000000
     12719      4240  TIP3      H1             -8.3473284125       -4.9356099386        8.9434983134  W2        5213            0.0000000000
     12720      4240  TIP3      H2             -8.7177984125       -4.4611599386       10.3325683134  W2        5213            0.0000000000
     12721      4241  TIP3      OH2            -7.5452584125      -12.0057299386        8.1915583134  W2        5220            0.0000000000
     12722      4241  TIP3      H1             -7.5031784125      -12.2283399386        7.2615583134  W2        5220            0.0000000000
     12723      4241  TIP3      H2             -6.6960484125      -11.6070199386        8.3815483134  W2        5220            0.0000000000
     12724      4242  TIP3      OH2           -11.9725084125      -18.1299099386        8.8618883134  W2        5221            0.0000000000
     12725      4242  TIP3      H1            -12.2260284125      -18.1107499386        9.7846983134  W2        5221            0.0000000000
     12726      4242  TIP3      H2            -12.2292984125      -19.0013699386        8.5605083134  W2        5221            0.0000000000
     12727      4243  TIP3      OH2           -15.0902184125      -17.6842599386        7.9629283134  W2        5228            0.0000000000
     12728      4243  TIP3      H1            -15.5211484125      -18.1292499386        8.6926683134  W2        5228            0.0000000000
     12729      4243  TIP3      H2            -15.8083484125      -17.3126299386        7.4506783134  W2        5228            0.0000000000
     12730      4244  TIP3      OH2           -20.5736684125      -17.1961099386       10.4388383134  W2        5230            0.0000000000
     12731      4244  TIP3      H1            -20.0994984125      -16.6051199386        9.8539283134  W2        5230            0.0000000000
     12732      4244  TIP3      H2            -21.2910284125      -16.6658199386       10.7858483134  W2        5230            0.0000000000
     12733      4245  TIP3      OH2           -16.4720284125      -14.9069699386        9.3453683134  W2        5236            0.0000000000
     12734      4245  TIP3      H1            -17.0145184125      -15.2865899386        8.6541283134  W2        5236            0.0000000000
     12735      4245  TIP3      H2            -15.6385384125      -14.7124999386        8.9167783134  W2        5236            0.0000000000
     12736      4246  TIP3      OH2            -9.2390684125      -17.5274099386        9.4804383134  W2        5244            0.0000000000
     12737      4246  TIP3      H1            -10.1776484125      -17.4158499386        9.3293183134  W2        5244            0.0000000000
     12738      4246  TIP3      H2             -8.9418584125      -16.6707199386        9.7870083134  W2        5244            0.0000000000
     12739      4247  TIP3      OH2            -8.5207184125      -15.6601399386       11.1411783134  W2        5246            0.0000000000
     12740      4247  TIP3      H1             -7.6288184125      -15.7976399386       11.4602983134  W2        5246            0.0000000000
     12741      4247  TIP3      H2             -8.4643584125      -14.8695299386       10.6045283134  W2        5246            0.0000000000
     12742      4248  TIP3      OH2           -11.0113384125       -8.8829699386       10.3066383134  W2        5248            0.0000000000
     12743      4248  TIP3      H1            -11.3064984125       -8.0561799386       10.6881183134  W2        5248            0.0000000000
     12744      4248  TIP3      H2            -11.7143384125       -9.5022799386       10.5027783134  W2        5248            0.0000000000
     12745      4249  TIP3      OH2            -3.6358484125      -15.4507299386       10.8358483134  W2        5252            0.0000000000
     12746      4249  TIP3      H1             -4.1902184125      -15.8469299386       10.1635983134  W2        5252            0.0000000000
     12747      4249  TIP3      H2             -3.5354884125      -14.5402099386       10.5581783134  W2        5252            0.0000000000
     12748      4250  TIP3      OH2           -19.8822084125      -12.6661699386        9.0423583134  W2        5257            0.0000000000
     12749      4250  TIP3      H1            -19.2662184125      -12.0394499386        9.4218383134  W2        5257            0.0000000000
     12750      4250  TIP3      H2            -20.7439484125      -12.3501899386        9.3140083134  W2        5257            0.0000000000
     12751      4251  TIP3      OH2            -7.9481184125       -8.6881099386        9.1211183134  W2        5262            0.0000000000
     12752      4251  TIP3      H1             -7.5948084125       -9.0681299386        9.9254683134  W2        5262            0.0000000000
     12753      4251  TIP3      H2             -8.8967684125       -8.7816299386        9.2080483134  W2        5262            0.0000000000
     12754      4252  TIP3      OH2            -3.4446784125       -4.2088599386        9.3221383134  W2        5264            0.0000000000
     12755      4252  TIP3      H1             -2.7008884125       -3.6228099386        9.1822983134  W2        5264            0.0000000000
     12756      4252  TIP3      H2             -4.1388684125       -3.6402799386        9.6553783134  W2        5264            0.0000000000
     12757      4253  TIP3      OH2           -13.8573384125       -7.5764999386        7.5681183134  W2        5268            0.0000000000
     12758      4253  TIP3      H1            -13.6183584125       -8.3246899386        7.0210083134  W2        5268            0.0000000000
     12759      4253  TIP3      H2            -14.1262084125       -7.9643299386        8.4008983134  W2        5268            0.0000000000
     12760      4254  TIP3      OH2           -14.9202784125       -8.0061199386       10.0243783134  W2        5269            0.0000000000
     12761      4254  TIP3      H1            -14.7734784125       -8.5261399386       10.8144683134  W2        5269            0.0000000000
     12762      4254  TIP3      H2            -14.9231084125       -7.0993599386       10.3309683134  W2        5269            0.0000000000
     12763      4255  TIP3      OH2           -18.4671684125      -10.7537899386       10.5349183134  W2        5270            0.0000000000
     12764      4255  TIP3      H1            -19.1532384125      -10.4015399386       11.1018883134  W2        5270            0.0000000000
     12765      4255  TIP3      H2            -17.9443784125       -9.9908299386       10.2883483134  W2        5270            0.0000000000
     12766      4256  TIP3      OH2           -12.1825584125       -6.3087599386       10.7737983134  W2        5273            0.0000000000
     12767      4256  TIP3      H1            -12.9989484125       -5.8117899386       10.8262283134  W2        5273            0.0000000000
     12768      4256  TIP3      H2            -11.6529284125       -5.8334099386       10.1336783134  W2        5273            0.0000000000
     12769      4257  TIP3      OH2           -14.8442484125       -5.2650399386       10.7554883134  W2        5277            0.0000000000
     12770      4257  TIP3      H1            -14.6833784125       -4.4652899386       10.2547483134  W2        5277            0.0000000000
     12771      4257  TIP3      H2            -15.0414684125       -4.9584399386       11.6405483134  W2        5277            0.0000000000
     12772      4258  TIP3      OH2           -16.1098084125      -18.5671199386       10.3712483134  W2        5278            0.0000000000
     12773      4258  TIP3      H1            -16.1933284125      -17.6788099386       10.7178883134  W2        5278            0.0000000000
     12774      4258  TIP3      H2            -15.2197784125      -18.8324499386       10.6029283134  W2        5278            0.0000000000
     12775      4259  TIP3      OH2           -17.8512784125       -8.1398999386        9.4316983134  W2        5281            0.0000000000
     12776      4259  TIP3      H1            -17.2591284125       -7.4404199386        9.7079383134  W2        5281            0.0000000000
     12777      4259  TIP3      H2            -17.3919784125       -8.5729499386        8.7121583134  W2        5281            0.0000000000
     12778      4260  TIP3      OH2           -19.5353584125      -15.4755999386        8.5476383134  W2        5282            0.0000000000
     12779      4260  TIP3      H1            -19.5800984125      -14.5362899386        8.7263383134  W2        5282            0.0000000000
     12780      4260  TIP3      H2            -20.4230384125      -15.7111099386        8.2778483134  W2        5282            0.0000000000
     12781      4261  TIP3      OH2           -11.8191584125       -5.7133599386        7.7067183134  W2        5288            0.0000000000
     12782      4261  TIP3      H1            -12.4630584125       -6.3444999386        8.0280883134  W2        5288            0.0000000000
     12783      4261  TIP3      H2            -11.0573284125       -6.2445599386        7.4750683134  W2        5288            0.0000000000
     12784      4262  TIP3      OH2            -7.2148684125       -5.8963699386        7.9405183134  W2        5290            0.0000000000
     12785      4262  TIP3      H1             -6.9318284125       -6.6908499386        8.3932083134  W2        5290            0.0000000000
     12786      4262  TIP3      H2             -6.4750784125       -5.6632699386        7.3796283134  W2        5290            0.0000000000
     12787      4263  TIP3      OH2           -16.2601384125       -9.9868799386        7.7980083134  W2        5292            0.0000000000
     12788      4263  TIP3      H1            -16.1957284125      -10.7809199386        8.3286483134  W2        5292            0.0000000000
     12789      4263  TIP3      H2            -15.6072184125      -10.1055999386        7.1082083134  W2        5292            0.0000000000
     12790      4264  TIP3      OH2           -10.9077984125       -8.9397099386        7.5338083134  W2        5294            0.0000000000
     12791      4264  TIP3      H1            -11.1763884125       -8.7594999386        8.4346983134  W2        5294            0.0000000000
     12792      4264  TIP3      H2            -11.1142384125       -9.8650899386        7.4023883134  W2        5294            0.0000000000
     12793      4265  TIP3      OH2           -15.1107584125      -12.0142599386       10.1038083134  W2        5297            0.0000000000
     12794      4265  TIP3      H1            -15.5705584125      -12.4984299386       10.7896583134  W2        5297            0.0000000000
     12795      4265  TIP3      H2            -14.8558884125      -12.6827199386        9.4678583134  W2        5297            0.0000000000
     12796      4266  TIP3      OH2           -14.0397184125      -13.7710799386        8.3661283134  W2        5299            0.0000000000
     12797      4266  TIP3      H1            -14.2202184125      -13.9259599386        7.4389583134  W2        5299            0.0000000000
     12798      4266  TIP3      H2            -13.0896684125      -13.6632099386        8.4109183134  W2        5299            0.0000000000
     12799      4267  TIP3      OH2            -4.6498884125      -11.4166599386        7.8119383134  W2        5301            0.0000000000
     12800      4267  TIP3      H1             -4.9234084125      -11.8411099386        6.9987683134  W2        5301            0.0000000000
     12801      4267  TIP3      H2             -4.6104784125      -10.4852099386        7.5949783134  W2        5301            0.0000000000
     12802      4268  TIP3      OH2           -14.1425484125       -3.0807099386        9.3674883134  W2        5315            0.0000000000
     12803      4268  TIP3      H1            -13.2094784125       -2.9228399386        9.5113283134  W2        5315            0.0000000000
     12804      4268  TIP3      H2            -14.4066684125       -2.4054099386        8.7426383134  W2        5315            0.0000000000
     12805      4269  TIP3      OH2           -20.5740584125       -8.4443299386        8.8502983134  W2        5316            0.0000000000
     12806      4269  TIP3      H1            -19.6601384125       -8.3654399386        9.1236883134  W2        5316            0.0000000000
     12807      4269  TIP3      H2            -20.5667484125       -9.1313699386        8.1838583134  W2        5316            0.0000000000
     12808      4270  TIP3      OH2            -3.5287384125      -12.5932599386       10.0016783134  W2        5326            0.0000000000
     12809      4270  TIP3      H1             -4.0506284125      -12.2368499386        9.2827683134  W2        5326            0.0000000000
     12810      4270  TIP3      H2             -3.5618184125      -11.9184799386       10.6797683134  W2        5326            0.0000000000
     12811      4271  TIP3      OH2            -5.1798384125      -15.3536999386        8.5523883134  W2        5327            0.0000000000
     12812      4271  TIP3      H1             -5.0833984125      -14.6869999386        7.8723583134  W2        5327            0.0000000000
     12813      4271  TIP3      H2             -5.3198784125      -16.1690699386        8.0709383134  W2        5327            0.0000000000
     12814      4272  TIP3      OH2            -5.9324584125      -17.9457199386        7.6699383134  W2        5332            0.0000000000
     12815      4272  TIP3      H1             -5.3218784125      -18.3170399386        8.3067583134  W2        5332            0.0000000000
     12816      4272  TIP3      H2             -6.7693084125      -18.3670299386        7.8659383134  W2        5332            0.0000000000
     12817      4273  TIP3      OH2            -3.8197884125      -19.0601399386        9.2121583134  W2        5342            0.0000000000
     12818      4273  TIP3      H1             -3.4075284125      -19.7815699386        8.7369583134  W2        5342            0.0000000000
     12819      4273  TIP3      H2             -3.1381384125      -18.3906799386        9.2705883134  W2        5342            0.0000000000
     12820      4274  TIP3      OH2           -20.2624584125      -21.0125999386       10.3178883134  W2        5363            0.0000000000
     12821      4274  TIP3      H1            -19.8233884125      -20.4015499386        9.7262383134  W2        5363            0.0000000000
     12822      4274  TIP3      H2            -20.8962184125      -20.4741899386       10.7918883134  W2        5363            0.0000000000
     12823      4275  TIP3      OH2           -18.4015484125      -19.0964499386        8.7602983134  W2        5368            0.0000000000
     12824      4275  TIP3      H1            -17.9102084125      -19.7262099386        8.2328483134  W2        5368            0.0000000000
     12825      4275  TIP3      H2            -17.7779184125      -18.8005099386        9.4234183134  W2        5368            0.0000000000
     12826      4276  TIP3      OH2           -11.4971584125       -3.8548899386        9.6130183134  W2        5370            0.0000000000
     12827      4276  TIP3      H1            -10.6311384125       -3.4881499386        9.4348383134  W2        5370            0.0000000000
     12828      4276  TIP3      H2            -11.7438784125       -4.2940899386        8.7990983134  W2        5370            0.0000000000
     12829      4277  TIP3      OH2           -18.5433884125       -4.1442999386        8.2406083134  W2        5374            0.0000000000
     12830      4277  TIP3      H1            -18.8109284125       -3.8580099386        9.1139183134  W2        5374            0.0000000000
     12831      4277  TIP3      H2            -17.7721284125       -4.6903799386        8.3928583134  W2        5374            0.0000000000
     12832      4278  TIP3      OH2             7.6106315875      -13.9527499386        8.9635583134  W2        5407            0.0000000000
     12833      4278  TIP3      H1              8.3116215875      -13.9300599386        9.6149583134  W2        5407            0.0000000000
     12834      4278  TIP3      H2              7.9129215875      -14.5807799386        8.3074883134  W2        5407            0.0000000000
     12835      4279  TIP3      OH2             9.8334315875      -13.0385599386       10.5617683134  W2        5416            0.0000000000
     12836      4279  TIP3      H1             10.4129815875      -12.8885299386       11.3086583134  W2        5416            0.0000000000
     12837      4279  TIP3      H2             10.2474315875      -12.5678199386        9.8384083134  W2        5416            0.0000000000
     12838      4280  TIP3      OH2            13.5322715875      -21.2885199386       10.3747383134  W2        5420            0.0000000000
     12839      4280  TIP3      H1             12.6323415875      -21.1496199386       10.6697983134  W2        5420            0.0000000000
     12840      4280  TIP3      H2             13.7841115875      -20.4570599386        9.9729083134  W2        5420            0.0000000000
     12841      4281  TIP3      OH2            14.7214115875       -6.9222799386        8.7511283134  W2        5422            0.0000000000
     12842      4281  TIP3      H1             14.7947615875       -5.9832599386        8.9216583134  W2        5422            0.0000000000
     12843      4281  TIP3      H2             15.6269215875       -7.2274199386        8.6948583134  W2        5422            0.0000000000
     12844      4282  TIP3      OH2            10.1338315875       -4.1912199386        9.4142383134  W2        5429            0.0000000000
     12845      4282  TIP3      H1             10.5086715875       -4.9356099386        8.9434983134  W2        5429            0.0000000000
     12846      4282  TIP3      H2             10.1382015875       -4.4611599386       10.3325683134  W2        5429            0.0000000000
     12847      4283  TIP3      OH2            11.3107415875      -12.0057299386        8.1915583134  W2        5436            0.0000000000
     12848      4283  TIP3      H1             11.3528215875      -12.2283399386        7.2615583134  W2        5436            0.0000000000
     12849      4283  TIP3      H2             12.1599515875      -11.6070199386        8.3815483134  W2        5436            0.0000000000
     12850      4284  TIP3      OH2             6.8834915875      -18.1299099386        8.8618883134  W2        5437            0.0000000000
     12851      4284  TIP3      H1              6.6299715875      -18.1107499386        9.7846983134  W2        5437            0.0000000000
     12852      4284  TIP3      H2              6.6267015875      -19.0013699386        8.5605083134  W2        5437            0.0000000000
     12853      4285  TIP3      OH2             3.7657815875      -17.6842599386        7.9629283134  W2        5444            0.0000000000
     12854      4285  TIP3      H1              3.3348515875      -18.1292499386        8.6926683134  W2        5444            0.0000000000
     12855      4285  TIP3      H2              3.0476515875      -17.3126299386        7.4506783134  W2        5444            0.0000000000
     12856      4286  TIP3      OH2            -1.7176684125      -17.1961099386       10.4388383134  W2        5446            0.0000000000
     12857      4286  TIP3      H1             -1.2434984125      -16.6051199386        9.8539283134  W2        5446            0.0000000000
     12858      4286  TIP3      H2             -2.4350284125      -16.6658199386       10.7858483134  W2        5446            0.0000000000
     12859      4287  TIP3      OH2             2.3839715875      -14.9069699386        9.3453683134  W2        5452            0.0000000000
     12860      4287  TIP3      H1              1.8414815875      -15.2865899386        8.6541283134  W2        5452            0.0000000000
     12861      4287  TIP3      H2              3.2174615875      -14.7124999386        8.9167783134  W2        5452            0.0000000000
     12862      4288  TIP3      OH2             9.6169315875      -17.5274099386        9.4804383134  W2        5460            0.0000000000
     12863      4288  TIP3      H1              8.6783515875      -17.4158499386        9.3293183134  W2        5460            0.0000000000
     12864      4288  TIP3      H2              9.9141415875      -16.6707199386        9.7870083134  W2        5460            0.0000000000
     12865      4289  TIP3      OH2            10.3352815875      -15.6601399386       11.1411783134  W2        5462            0.0000000000
     12866      4289  TIP3      H1             11.2271815875      -15.7976399386       11.4602983134  W2        5462            0.0000000000
     12867      4289  TIP3      H2             10.3916415875      -14.8695299386       10.6045283134  W2        5462            0.0000000000
     12868      4290  TIP3      OH2             7.8446615875       -8.8829699386       10.3066383134  W2        5464            0.0000000000
     12869      4290  TIP3      H1              7.5495015875       -8.0561799386       10.6881183134  W2        5464            0.0000000000
     12870      4290  TIP3      H2              7.1416615875       -9.5022799386       10.5027783134  W2        5464            0.0000000000
     12871      4291  TIP3      OH2            15.2201515875      -15.4507299386       10.8358483134  W2        5468            0.0000000000
     12872      4291  TIP3      H1             14.6657815875      -15.8469299386       10.1635983134  W2        5468            0.0000000000
     12873      4291  TIP3      H2             15.3205115875      -14.5402099386       10.5581783134  W2        5468            0.0000000000
     12874      4292  TIP3      OH2            -1.0262084125      -12.6661699386        9.0423583134  W2        5473            0.0000000000
     12875      4292  TIP3      H1             -0.4102184125      -12.0394499386        9.4218383134  W2        5473            0.0000000000
     12876      4292  TIP3      H2             -1.8879484125      -12.3501899386        9.3140083134  W2        5473            0.0000000000
     12877      4293  TIP3      OH2            10.9078815875       -8.6881099386        9.1211183134  W2        5478            0.0000000000
     12878      4293  TIP3      H1             11.2611915875       -9.0681299386        9.9254683134  W2        5478            0.0000000000
     12879      4293  TIP3      H2              9.9592315875       -8.7816299386        9.2080483134  W2        5478            0.0000000000
     12880      4294  TIP3      OH2            15.4113215875       -4.2088599386        9.3221383134  W2        5480            0.0000000000
     12881      4294  TIP3      H1             16.1551115875       -3.6228099386        9.1822983134  W2        5480            0.0000000000
     12882      4294  TIP3      H2             14.7171315875       -3.6402799386        9.6553783134  W2        5480            0.0000000000
     12883      4295  TIP3      OH2             4.9986615875       -7.5764999386        7.5681183134  W2        5484            0.0000000000
     12884      4295  TIP3      H1              5.2376415875       -8.3246899386        7.0210083134  W2        5484            0.0000000000
     12885      4295  TIP3      H2              4.7297915875       -7.9643299386        8.4008983134  W2        5484            0.0000000000
     12886      4296  TIP3      OH2             3.9357215875       -8.0061199386       10.0243783134  W2        5485            0.0000000000
     12887      4296  TIP3      H1              4.0825215875       -8.5261399386       10.8144683134  W2        5485            0.0000000000
     12888      4296  TIP3      H2              3.9328915875       -7.0993599386       10.3309683134  W2        5485            0.0000000000
     12889      4297  TIP3      OH2             0.3888315875      -10.7537899386       10.5349183134  W2        5486            0.0000000000
     12890      4297  TIP3      H1             -0.2972384125      -10.4015399386       11.1018883134  W2        5486            0.0000000000
     12891      4297  TIP3      H2              0.9116215875       -9.9908299386       10.2883483134  W2        5486            0.0000000000
     12892      4298  TIP3      OH2             6.6734415875       -6.3087599386       10.7737983134  W2        5489            0.0000000000
     12893      4298  TIP3      H1              5.8570515875       -5.8117899386       10.8262283134  W2        5489            0.0000000000
     12894      4298  TIP3      H2              7.2030715875       -5.8334099386       10.1336783134  W2        5489            0.0000000000
     12895      4299  TIP3      OH2             4.0117515875       -5.2650399386       10.7554883134  W2        5493            0.0000000000
     12896      4299  TIP3      H1              4.1726215875       -4.4652899386       10.2547483134  W2        5493            0.0000000000
     12897      4299  TIP3      H2              3.8145315875       -4.9584399386       11.6405483134  W2        5493            0.0000000000
     12898      4300  TIP3      OH2             2.7461915875      -18.5671199386       10.3712483134  W2        5494            0.0000000000
     12899      4300  TIP3      H1              2.6626715875      -17.6788099386       10.7178883134  W2        5494            0.0000000000
     12900      4300  TIP3      H2              3.6362215875      -18.8324499386       10.6029283134  W2        5494            0.0000000000
     12901      4301  TIP3      OH2             1.0047215875       -8.1398999386        9.4316983134  W2        5497            0.0000000000
     12902      4301  TIP3      H1              1.5968715875       -7.4404199386        9.7079383134  W2        5497            0.0000000000
     12903      4301  TIP3      H2              1.4640215875       -8.5729499386        8.7121583134  W2        5497            0.0000000000
     12904      4302  TIP3      OH2            -0.6793584125      -15.4755999386        8.5476383134  W2        5498            0.0000000000
     12905      4302  TIP3      H1             -0.7240984125      -14.5362899386        8.7263383134  W2        5498            0.0000000000
     12906      4302  TIP3      H2             -1.5670384125      -15.7111099386        8.2778483134  W2        5498            0.0000000000
     12907      4303  TIP3      OH2             7.0368415875       -5.7133599386        7.7067183134  W2        5504            0.0000000000
     12908      4303  TIP3      H1              6.3929415875       -6.3444999386        8.0280883134  W2        5504            0.0000000000
     12909      4303  TIP3      H2              7.7986715875       -6.2445599386        7.4750683134  W2        5504            0.0000000000
     12910      4304  TIP3      OH2            11.6411315875       -5.8963699386        7.9405183134  W2        5506            0.0000000000
     12911      4304  TIP3      H1             11.9241715875       -6.6908499386        8.3932083134  W2        5506            0.0000000000
     12912      4304  TIP3      H2             12.3809215875       -5.6632699386        7.3796283134  W2        5506            0.0000000000
     12913      4305  TIP3      OH2             2.5958615875       -9.9868799386        7.7980083134  W2        5508            0.0000000000
     12914      4305  TIP3      H1              2.6602715875      -10.7809199386        8.3286483134  W2        5508            0.0000000000
     12915      4305  TIP3      H2              3.2487815875      -10.1055999386        7.1082083134  W2        5508            0.0000000000
     12916      4306  TIP3      OH2             7.9482015875       -8.9397099386        7.5338083134  W2        5510            0.0000000000
     12917      4306  TIP3      H1              7.6796115875       -8.7594999386        8.4346983134  W2        5510            0.0000000000
     12918      4306  TIP3      H2              7.7417615875       -9.8650899386        7.4023883134  W2        5510            0.0000000000
     12919      4307  TIP3      OH2             3.7452415875      -12.0142599386       10.1038083134  W2        5513            0.0000000000
     12920      4307  TIP3      H1              3.2854415875      -12.4984299386       10.7896583134  W2        5513            0.0000000000
     12921      4307  TIP3      H2              4.0001115875      -12.6827199386        9.4678583134  W2        5513            0.0000000000
     12922      4308  TIP3      OH2             4.8162815875      -13.7710799386        8.3661283134  W2        5515            0.0000000000
     12923      4308  TIP3      H1              4.6357815875      -13.9259599386        7.4389583134  W2        5515            0.0000000000
     12924      4308  TIP3      H2              5.7663315875      -13.6632099386        8.4109183134  W2        5515            0.0000000000
     12925      4309  TIP3      OH2            14.2061115875      -11.4166599386        7.8119383134  W2        5517            0.0000000000
     12926      4309  TIP3      H1             13.9325915875      -11.8411099386        6.9987683134  W2        5517            0.0000000000
     12927      4309  TIP3      H2             14.2455215875      -10.4852099386        7.5949783134  W2        5517            0.0000000000
     12928      4310  TIP3      OH2             4.7134515875       -3.0807099386        9.3674883134  W2        5531            0.0000000000
     12929      4310  TIP3      H1              5.6465215875       -2.9228399386        9.5113283134  W2        5531            0.0000000000
     12930      4310  TIP3      H2              4.4493315875       -2.4054099386        8.7426383134  W2        5531            0.0000000000
     12931      4311  TIP3      OH2            -1.7180584125       -8.4443299386        8.8502983134  W2        5532            0.0000000000
     12932      4311  TIP3      H1             -0.8041384125       -8.3654399386        9.1236883134  W2        5532            0.0000000000
     12933      4311  TIP3      H2             -1.7107484125       -9.1313699386        8.1838583134  W2        5532            0.0000000000
     12934      4312  TIP3      OH2            15.3272615875      -12.5932599386       10.0016783134  W2        5542            0.0000000000
     12935      4312  TIP3      H1             14.8053715875      -12.2368499386        9.2827683134  W2        5542            0.0000000000
     12936      4312  TIP3      H2             15.2941815875      -11.9184799386       10.6797683134  W2        5542            0.0000000000
     12937      4313  TIP3      OH2            13.6761615875      -15.3536999386        8.5523883134  W2        5543            0.0000000000
     12938      4313  TIP3      H1             13.7726015875      -14.6869999386        7.8723583134  W2        5543            0.0000000000
     12939      4313  TIP3      H2             13.5361215875      -16.1690699386        8.0709383134  W2        5543            0.0000000000
     12940      4314  TIP3      OH2            12.9235415875      -17.9457199386        7.6699383134  W2        5548            0.0000000000
     12941      4314  TIP3      H1             13.5341215875      -18.3170399386        8.3067583134  W2        5548            0.0000000000
     12942      4314  TIP3      H2             12.0866915875      -18.3670299386        7.8659383134  W2        5548            0.0000000000
     12943      4315  TIP3      OH2            15.0362115875      -19.0601399386        9.2121583134  W2        5558            0.0000000000
     12944      4315  TIP3      H1             15.4484715875      -19.7815699386        8.7369583134  W2        5558            0.0000000000
     12945      4315  TIP3      H2             15.7178615875      -18.3906799386        9.2705883134  W2        5558            0.0000000000
     12946      4316  TIP3      OH2            -1.4064584125      -21.0125999386       10.3178883134  W2        5579            0.0000000000
     12947      4316  TIP3      H1             -0.9673884125      -20.4015499386        9.7262383134  W2        5579            0.0000000000
     12948      4316  TIP3      H2             -2.0402184125      -20.4741899386       10.7918883134  W2        5579            0.0000000000
     12949      4317  TIP3      OH2             0.4544515875      -19.0964499386        8.7602983134  W2        5584            0.0000000000
     12950      4317  TIP3      H1              0.9457915875      -19.7262099386        8.2328483134  W2        5584            0.0000000000
     12951      4317  TIP3      H2              1.0780815875      -18.8005099386        9.4234183134  W2        5584            0.0000000000
     12952      4318  TIP3      OH2             7.3588415875       -3.8548899386        9.6130183134  W2        5586            0.0000000000
     12953      4318  TIP3      H1              8.2248615875       -3.4881499386        9.4348383134  W2        5586            0.0000000000
     12954      4318  TIP3      H2              7.1121215875       -4.2940899386        8.7990983134  W2        5586            0.0000000000
     12955      4319  TIP3      OH2             0.3126115875       -4.1442999386        8.2406083134  W2        5590            0.0000000000
     12956      4319  TIP3      H1              0.0450715875       -3.8580099386        9.1139183134  W2        5590            0.0000000000
     12957      4319  TIP3      H2              1.0838715875       -4.6903799386        8.3928583134  W2        5590            0.0000000000
     12958      4320  TIP3      OH2            26.4666315875      -13.9527499386        8.9635583134  W2        5623            0.0000000000
     12959      4320  TIP3      H1             27.1676215875      -13.9300599386        9.6149583134  W2        5623            0.0000000000
     12960      4320  TIP3      H2             26.7689215875      -14.5807799386        8.3074883134  W2        5623            0.0000000000
     12961      4321  TIP3      OH2            28.6894315875      -13.0385599386       10.5617683134  W2        5632            0.0000000000
     12962      4321  TIP3      H1             29.2689815875      -12.8885299386       11.3086583134  W2        5632            0.0000000000
     12963      4321  TIP3      H2             29.1034315875      -12.5678199386        9.8384083134  W2        5632            0.0000000000
     12964      4322  TIP3      OH2            32.3882715875      -21.2885199386       10.3747383134  W2        5636            0.0000000000
     12965      4322  TIP3      H1             31.4883415875      -21.1496199386       10.6697983134  W2        5636            0.0000000000
     12966      4322  TIP3      H2             32.6401115875      -20.4570599386        9.9729083134  W2        5636            0.0000000000
     12967      4323  TIP3      OH2            33.5774115875       -6.9222799386        8.7511283134  W2        5638            0.0000000000
     12968      4323  TIP3      H1             33.6507615875       -5.9832599386        8.9216583134  W2        5638            0.0000000000
     12969      4323  TIP3      H2             34.4829215875       -7.2274199386        8.6948583134  W2        5638            0.0000000000
     12970      4324  TIP3      OH2            28.9898315875       -4.1912199386        9.4142383134  W2        5645            0.0000000000
     12971      4324  TIP3      H1             29.3646715875       -4.9356099386        8.9434983134  W2        5645            0.0000000000
     12972      4324  TIP3      H2             28.9942015875       -4.4611599386       10.3325683134  W2        5645            0.0000000000
     12973      4325  TIP3      OH2            30.1667415875      -12.0057299386        8.1915583134  W2        5652            0.0000000000
     12974      4325  TIP3      H1             30.2088215875      -12.2283399386        7.2615583134  W2        5652            0.0000000000
     12975      4325  TIP3      H2             31.0159515875      -11.6070199386        8.3815483134  W2        5652            0.0000000000
     12976      4326  TIP3      OH2            25.7394915875      -18.1299099386        8.8618883134  W2        5653            0.0000000000
     12977      4326  TIP3      H1             25.4859715875      -18.1107499386        9.7846983134  W2        5653            0.0000000000
     12978      4326  TIP3      H2             25.4827015875      -19.0013699386        8.5605083134  W2        5653            0.0000000000
     12979      4327  TIP3      OH2            22.6217815875      -17.6842599386        7.9629283134  W2        5660            0.0000000000
     12980      4327  TIP3      H1             22.1908515875      -18.1292499386        8.6926683134  W2        5660            0.0000000000
     12981      4327  TIP3      H2             21.9036515875      -17.3126299386        7.4506783134  W2        5660            0.0000000000
     12982      4328  TIP3      OH2            17.1383315875      -17.1961099386       10.4388383134  W2        5662            0.0000000000
     12983      4328  TIP3      H1             17.6125015875      -16.6051199386        9.8539283134  W2        5662            0.0000000000
     12984      4328  TIP3      H2             16.4209715875      -16.6658199386       10.7858483134  W2        5662            0.0000000000
     12985      4329  TIP3      OH2            21.2399715875      -14.9069699386        9.3453683134  W2        5668            0.0000000000
     12986      4329  TIP3      H1             20.6974815875      -15.2865899386        8.6541283134  W2        5668            0.0000000000
     12987      4329  TIP3      H2             22.0734615875      -14.7124999386        8.9167783134  W2        5668            0.0000000000
     12988      4330  TIP3      OH2            28.4729315875      -17.5274099386        9.4804383134  W2        5676            0.0000000000
     12989      4330  TIP3      H1             27.5343515875      -17.4158499386        9.3293183134  W2        5676            0.0000000000
     12990      4330  TIP3      H2             28.7701415875      -16.6707199386        9.7870083134  W2        5676            0.0000000000
     12991      4331  TIP3      OH2            29.1912815875      -15.6601399386       11.1411783134  W2        5678            0.0000000000
     12992      4331  TIP3      H1             30.0831815875      -15.7976399386       11.4602983134  W2        5678            0.0000000000
     12993      4331  TIP3      H2             29.2476415875      -14.8695299386       10.6045283134  W2        5678            0.0000000000
     12994      4332  TIP3      OH2            26.7006615875       -8.8829699386       10.3066383134  W2        5680            0.0000000000
     12995      4332  TIP3      H1             26.4055015875       -8.0561799386       10.6881183134  W2        5680            0.0000000000
     12996      4332  TIP3      H2             25.9976615875       -9.5022799386       10.5027783134  W2        5680            0.0000000000
     12997      4333  TIP3      OH2            34.0761515875      -15.4507299386       10.8358483134  W2        5684            0.0000000000
     12998      4333  TIP3      H1             33.5217815875      -15.8469299386       10.1635983134  W2        5684            0.0000000000
     12999      4333  TIP3      H2             34.1765115875      -14.5402099386       10.5581783134  W2        5684            0.0000000000
     13000      4334  TIP3      OH2            17.8297915875      -12.6661699386        9.0423583134  W2        5689            0.0000000000
     13001      4334  TIP3      H1             18.4457815875      -12.0394499386        9.4218383134  W2        5689            0.0000000000
     13002      4334  TIP3      H2             16.9680515875      -12.3501899386        9.3140083134  W2        5689            0.0000000000
     13003      4335  TIP3      OH2            29.7638815875       -8.6881099386        9.1211183134  W2        5694            0.0000000000
     13004      4335  TIP3      H1             30.1171915875       -9.0681299386        9.9254683134  W2        5694            0.0000000000
     13005      4335  TIP3      H2             28.8152315875       -8.7816299386        9.2080483134  W2        5694            0.0000000000
     13006      4336  TIP3      OH2            34.2673215875       -4.2088599386        9.3221383134  W2        5696            0.0000000000
     13007      4336  TIP3      H1             35.0111115875       -3.6228099386        9.1822983134  W2        5696            0.0000000000
     13008      4336  TIP3      H2             33.5731315875       -3.6402799386        9.6553783134  W2        5696            0.0000000000
     13009      4337  TIP3      OH2            23.8546615875       -7.5764999386        7.5681183134  W2        5700            0.0000000000
     13010      4337  TIP3      H1             24.0936415875       -8.3246899386        7.0210083134  W2        5700            0.0000000000
     13011      4337  TIP3      H2             23.5857915875       -7.9643299386        8.4008983134  W2        5700            0.0000000000
     13012      4338  TIP3      OH2            22.7917215875       -8.0061199386       10.0243783134  W2        5701            0.0000000000
     13013      4338  TIP3      H1             22.9385215875       -8.5261399386       10.8144683134  W2        5701            0.0000000000
     13014      4338  TIP3      H2             22.7888915875       -7.0993599386       10.3309683134  W2        5701            0.0000000000
     13015      4339  TIP3      OH2            19.2448315875      -10.7537899386       10.5349183134  W2        5702            0.0000000000
     13016      4339  TIP3      H1             18.5587615875      -10.4015399386       11.1018883134  W2        5702            0.0000000000
     13017      4339  TIP3      H2             19.7676215875       -9.9908299386       10.2883483134  W2        5702            0.0000000000
     13018      4340  TIP3      OH2            25.5294415875       -6.3087599386       10.7737983134  W2        5705            0.0000000000
     13019      4340  TIP3      H1             24.7130515875       -5.8117899386       10.8262283134  W2        5705            0.0000000000
     13020      4340  TIP3      H2             26.0590715875       -5.8334099386       10.1336783134  W2        5705            0.0000000000
     13021      4341  TIP3      OH2            22.8677515875       -5.2650399386       10.7554883134  W2        5709            0.0000000000
     13022      4341  TIP3      H1             23.0286215875       -4.4652899386       10.2547483134  W2        5709            0.0000000000
     13023      4341  TIP3      H2             22.6705315875       -4.9584399386       11.6405483134  W2        5709            0.0000000000
     13024      4342  TIP3      OH2            21.6021915875      -18.5671199386       10.3712483134  W2        5710            0.0000000000
     13025      4342  TIP3      H1             21.5186715875      -17.6788099386       10.7178883134  W2        5710            0.0000000000
     13026      4342  TIP3      H2             22.4922215875      -18.8324499386       10.6029283134  W2        5710            0.0000000000
     13027      4343  TIP3      OH2            19.8607215875       -8.1398999386        9.4316983134  W2        5713            0.0000000000
     13028      4343  TIP3      H1             20.4528715875       -7.4404199386        9.7079383134  W2        5713            0.0000000000
     13029      4343  TIP3      H2             20.3200215875       -8.5729499386        8.7121583134  W2        5713            0.0000000000
     13030      4344  TIP3      OH2            18.1766415875      -15.4755999386        8.5476383134  W2        5714            0.0000000000
     13031      4344  TIP3      H1             18.1319015875      -14.5362899386        8.7263383134  W2        5714            0.0000000000
     13032      4344  TIP3      H2             17.2889615875      -15.7111099386        8.2778483134  W2        5714            0.0000000000
     13033      4345  TIP3      OH2            25.8928415875       -5.7133599386        7.7067183134  W2        5720            0.0000000000
     13034      4345  TIP3      H1             25.2489415875       -6.3444999386        8.0280883134  W2        5720            0.0000000000
     13035      4345  TIP3      H2             26.6546715875       -6.2445599386        7.4750683134  W2        5720            0.0000000000
     13036      4346  TIP3      OH2            30.4971315875       -5.8963699386        7.9405183134  W2        5722            0.0000000000
     13037      4346  TIP3      H1             30.7801715875       -6.6908499386        8.3932083134  W2        5722            0.0000000000
     13038      4346  TIP3      H2             31.2369215875       -5.6632699386        7.3796283134  W2        5722            0.0000000000
     13039      4347  TIP3      OH2            21.4518615875       -9.9868799386        7.7980083134  W2        5724            0.0000000000
     13040      4347  TIP3      H1             21.5162715875      -10.7809199386        8.3286483134  W2        5724            0.0000000000
     13041      4347  TIP3      H2             22.1047815875      -10.1055999386        7.1082083134  W2        5724            0.0000000000
     13042      4348  TIP3      OH2            26.8042015875       -8.9397099386        7.5338083134  W2        5726            0.0000000000
     13043      4348  TIP3      H1             26.5356115875       -8.7594999386        8.4346983134  W2        5726            0.0000000000
     13044      4348  TIP3      H2             26.5977615875       -9.8650899386        7.4023883134  W2        5726            0.0000000000
     13045      4349  TIP3      OH2            22.6012415875      -12.0142599386       10.1038083134  W2        5729            0.0000000000
     13046      4349  TIP3      H1             22.1414415875      -12.4984299386       10.7896583134  W2        5729            0.0000000000
     13047      4349  TIP3      H2             22.8561115875      -12.6827199386        9.4678583134  W2        5729            0.0000000000
     13048      4350  TIP3      OH2            23.6722815875      -13.7710799386        8.3661283134  W2        5731            0.0000000000
     13049      4350  TIP3      H1             23.4917815875      -13.9259599386        7.4389583134  W2        5731            0.0000000000
     13050      4350  TIP3      H2             24.6223315875      -13.6632099386        8.4109183134  W2        5731            0.0000000000
     13051      4351  TIP3      OH2            33.0621115875      -11.4166599386        7.8119383134  W2        5733            0.0000000000
     13052      4351  TIP3      H1             32.7885915875      -11.8411099386        6.9987683134  W2        5733            0.0000000000
     13053      4351  TIP3      H2             33.1015215875      -10.4852099386        7.5949783134  W2        5733            0.0000000000
     13054      4352  TIP3      OH2            23.5694515875       -3.0807099386        9.3674883134  W2        5747            0.0000000000
     13055      4352  TIP3      H1             24.5025215875       -2.9228399386        9.5113283134  W2        5747            0.0000000000
     13056      4352  TIP3      H2             23.3053315875       -2.4054099386        8.7426383134  W2        5747            0.0000000000
     13057      4353  TIP3      OH2            17.1379415875       -8.4443299386        8.8502983134  W2        5748            0.0000000000
     13058      4353  TIP3      H1             18.0518615875       -8.3654399386        9.1236883134  W2        5748            0.0000000000
     13059      4353  TIP3      H2             17.1452515875       -9.1313699386        8.1838583134  W2        5748            0.0000000000
     13060      4354  TIP3      OH2            34.1832615875      -12.5932599386       10.0016783134  W2        5758            0.0000000000
     13061      4354  TIP3      H1             33.6613715875      -12.2368499386        9.2827683134  W2        5758            0.0000000000
     13062      4354  TIP3      H2             34.1501815875      -11.9184799386       10.6797683134  W2        5758            0.0000000000
     13063      4355  TIP3      OH2            32.5321615875      -15.3536999386        8.5523883134  W2        5759            0.0000000000
     13064      4355  TIP3      H1             32.6286015875      -14.6869999386        7.8723583134  W2        5759            0.0000000000
     13065      4355  TIP3      H2             32.3921215875      -16.1690699386        8.0709383134  W2        5759            0.0000000000
     13066      4356  TIP3      OH2            31.7795415875      -17.9457199386        7.6699383134  W2        5764            0.0000000000
     13067      4356  TIP3      H1             32.3901215875      -18.3170399386        8.3067583134  W2        5764            0.0000000000
     13068      4356  TIP3      H2             30.9426915875      -18.3670299386        7.8659383134  W2        5764            0.0000000000
     13069      4357  TIP3      OH2            33.8922115875      -19.0601399386        9.2121583134  W2        5774            0.0000000000
     13070      4357  TIP3      H1             34.3044715875      -19.7815699386        8.7369583134  W2        5774            0.0000000000
     13071      4357  TIP3      H2             34.5738615875      -18.3906799386        9.2705883134  W2        5774            0.0000000000
     13072      4358  TIP3      OH2            17.4495415875      -21.0125999386       10.3178883134  W2        5795            0.0000000000
     13073      4358  TIP3      H1             17.8886115875      -20.4015499386        9.7262383134  W2        5795            0.0000000000
     13074      4358  TIP3      H2             16.8157815875      -20.4741899386       10.7918883134  W2        5795            0.0000000000
     13075      4359  TIP3      OH2            19.3104515875      -19.0964499386        8.7602983134  W2        5800            0.0000000000
     13076      4359  TIP3      H1             19.8017915875      -19.7262099386        8.2328483134  W2        5800            0.0000000000
     13077      4359  TIP3      H2             19.9340815875      -18.8005099386        9.4234183134  W2        5800            0.0000000000
     13078      4360  TIP3      OH2            26.2148415875       -3.8548899386        9.6130183134  W2        5802            0.0000000000
     13079      4360  TIP3      H1             27.0808615875       -3.4881499386        9.4348383134  W2        5802            0.0000000000
     13080      4360  TIP3      H2             25.9681215875       -4.2940899386        8.7990983134  W2        5802            0.0000000000
     13081      4361  TIP3      OH2            19.1686115875       -4.1442999386        8.2406083134  W2        5806            0.0000000000
     13082      4361  TIP3      H1             18.9010715875       -3.8580099386        9.1139183134  W2        5806            0.0000000000
     13083      4361  TIP3      H2             19.9398715875       -4.6903799386        8.3928583134  W2        5806            0.0000000000
     13084      4362  TIP3      OH2            35.9943315875      -17.1961099386       10.4388383134  W2        5832            0.0000000000
     13085      4362  TIP3      H1             36.4685015875      -16.6051199386        9.8539283134  W2        5832            0.0000000000
     13086      4362  TIP3      H2             35.2769715875      -16.6658199386       10.7858483134  W2        5832            0.0000000000
     13087      4363  TIP3      OH2            40.0959715875      -14.9069699386        9.3453683134  W2        5834            0.0000000000
     13088      4363  TIP3      H1             39.5534815875      -15.2865899386        8.6541283134  W2        5834            0.0000000000
     13089      4363  TIP3      H2             40.9294615875      -14.7124999386        8.9167783134  W2        5834            0.0000000000
     13090      4364  TIP3      OH2            36.6857915875      -12.6661699386        9.0423583134  W2        5839            0.0000000000
     13091      4364  TIP3      H1             37.3017815875      -12.0394499386        9.4218383134  W2        5839            0.0000000000
     13092      4364  TIP3      H2             35.8240515875      -12.3501899386        9.3140083134  W2        5839            0.0000000000
     13093      4365  TIP3      OH2            38.1008315875      -10.7537899386       10.5349183134  W2        5842            0.0000000000
     13094      4365  TIP3      H1             37.4147615875      -10.4015399386       11.1018883134  W2        5842            0.0000000000
     13095      4365  TIP3      H2             38.6236215875       -9.9908299386       10.2883483134  W2        5842            0.0000000000
     13096      4366  TIP3      OH2            40.4581915875      -18.5671199386       10.3712483134  W2        5843            0.0000000000
     13097      4366  TIP3      H1             40.3746715875      -17.6788099386       10.7178883134  W2        5843            0.0000000000
     13098      4366  TIP3      H2             41.3482215875      -18.8324499386       10.6029283134  W2        5843            0.0000000000
     13099      4367  TIP3      OH2            38.7167215875       -8.1398999386        9.4316983134  W2        5844            0.0000000000
     13100      4367  TIP3      H1             39.3088715875       -7.4404199386        9.7079383134  W2        5844            0.0000000000
     13101      4367  TIP3      H2             39.1760215875       -8.5729499386        8.7121583134  W2        5844            0.0000000000
     13102      4368  TIP3      OH2            37.0326415875      -15.4755999386        8.5476383134  W2        5845            0.0000000000
     13103      4368  TIP3      H1             36.9879015875      -14.5362899386        8.7263383134  W2        5845            0.0000000000
     13104      4368  TIP3      H2             36.1449615875      -15.7111099386        8.2778483134  W2        5845            0.0000000000
     13105      4369  TIP3      OH2            40.3078615875       -9.9868799386        7.7980083134  W2        5850            0.0000000000
     13106      4369  TIP3      H1             40.3722715875      -10.7809199386        8.3286483134  W2        5850            0.0000000000
     13107      4369  TIP3      H2             40.9607815875      -10.1055999386        7.1082083134  W2        5850            0.0000000000
     13108      4370  TIP3      OH2            35.9939415875       -8.4443299386        8.8502983134  W2        5854            0.0000000000
     13109      4370  TIP3      H1             36.9078615875       -8.3654399386        9.1236883134  W2        5854            0.0000000000
     13110      4370  TIP3      H2             36.0012515875       -9.1313699386        8.1838583134  W2        5854            0.0000000000
     13111      4371  TIP3      OH2            36.3055415875      -21.0125999386       10.3178883134  W2        5870            0.0000000000
     13112      4371  TIP3      H1             36.7446115875      -20.4015499386        9.7262383134  W2        5870            0.0000000000
     13113      4371  TIP3      H2             35.6717815875      -20.4741899386       10.7918883134  W2        5870            0.0000000000
     13114      4372  TIP3      OH2            38.1664515875      -19.0964499386        8.7602983134  W2        5872            0.0000000000
     13115      4372  TIP3      H1             38.6577915875      -19.7262099386        8.2328483134  W2        5872            0.0000000000
     13116      4372  TIP3      H2             38.7900815875      -18.8005099386        9.4234183134  W2        5872            0.0000000000
     13117      4373  TIP3      OH2            38.0246115875       -4.1442999386        8.2406083134  W2        5875            0.0000000000
     13118      4373  TIP3      H1             37.7570715875       -3.8580099386        9.1139183134  W2        5875            0.0000000000
     13119      4373  TIP3      H2             38.7958715875       -4.6903799386        8.3928583134  W2        5875            0.0000000000
     13120      4374  TIP3      OH2           -30.1013684125        4.9032500614        8.9635583134  W2        5906            0.0000000000
     13121      4374  TIP3      H1            -29.4003784125        4.9259400614        9.6149583134  W2        5906            0.0000000000
     13122      4374  TIP3      H2            -29.7990784125        4.2752200614        8.3074883134  W2        5906            0.0000000000
     13123      4375  TIP3      OH2           -27.8785684125        5.8174400614       10.5617683134  W2        5915            0.0000000000
     13124      4375  TIP3      H1            -27.2990184125        5.9674700614       11.3086583134  W2        5915            0.0000000000
     13125      4375  TIP3      H2            -27.4645684125        6.2881800614        9.8384083134  W2        5915            0.0000000000
     13126      4376  TIP3      OH2           -24.1797284125       -2.4325199386       10.3747383134  W2        5919            0.0000000000
     13127      4376  TIP3      H1            -25.0796584125       -2.2936199386       10.6697983134  W2        5919            0.0000000000
     13128      4376  TIP3      H2            -23.9278884125       -1.6010599386        9.9729083134  W2        5919            0.0000000000
     13129      4377  TIP3      OH2           -22.9905884125       11.9337200614        8.7511283134  W2        5921            0.0000000000
     13130      4377  TIP3      H1            -22.9172384125       12.8727400614        8.9216583134  W2        5921            0.0000000000
     13131      4377  TIP3      H2            -22.0850784125       11.6285800614        8.6948583134  W2        5921            0.0000000000
     13132      4378  TIP3      OH2           -27.5781684125       14.6647800614        9.4142383134  W2        5928            0.0000000000
     13133      4378  TIP3      H1            -27.2033284125       13.9203900614        8.9434983134  W2        5928            0.0000000000
     13134      4378  TIP3      H2            -27.5737984125       14.3948400614       10.3325683134  W2        5928            0.0000000000
     13135      4379  TIP3      OH2           -26.4012584125        6.8502700614        8.1915583134  W2        5935            0.0000000000
     13136      4379  TIP3      H1            -26.3591784125        6.6276600614        7.2615583134  W2        5935            0.0000000000
     13137      4379  TIP3      H2            -25.5520484125        7.2489800614        8.3815483134  W2        5935            0.0000000000
     13138      4380  TIP3      OH2           -30.8285084125        0.7260900614        8.8618883134  W2        5936            0.0000000000
     13139      4380  TIP3      H1            -31.0820284125        0.7452500614        9.7846983134  W2        5936            0.0000000000
     13140      4380  TIP3      H2            -31.0852984125       -0.1453699386        8.5605083134  W2        5936            0.0000000000
     13141      4381  TIP3      OH2           -33.9462184125        1.1717400614        7.9629283134  W2        5943            0.0000000000
     13142      4381  TIP3      H1            -34.3771484125        0.7267500614        8.6926683134  W2        5943            0.0000000000
     13143      4381  TIP3      H2            -34.6643484125        1.5433700614        7.4506783134  W2        5943            0.0000000000
     13144      4382  TIP3      OH2           -39.4296684125        1.6598900614       10.4388383134  W2        5945            0.0000000000
     13145      4382  TIP3      H1            -38.9554984125        2.2508800614        9.8539283134  W2        5945            0.0000000000
     13146      4382  TIP3      H2            -40.1470284125        2.1901800614       10.7858483134  W2        5945            0.0000000000
     13147      4383  TIP3      OH2           -35.3280284125        3.9490300614        9.3453683134  W2        5951            0.0000000000
     13148      4383  TIP3      H1            -35.8705184125        3.5694100614        8.6541283134  W2        5951            0.0000000000
     13149      4383  TIP3      H2            -34.4945384125        4.1435000614        8.9167783134  W2        5951            0.0000000000
     13150      4384  TIP3      OH2           -28.0950684125        1.3285900614        9.4804383134  W2        5959            0.0000000000
     13151      4384  TIP3      H1            -29.0336484125        1.4401500614        9.3293183134  W2        5959            0.0000000000
     13152      4384  TIP3      H2            -27.7978584125        2.1852800614        9.7870083134  W2        5959            0.0000000000
     13153      4385  TIP3      OH2           -27.3767184125        3.1958600614       11.1411783134  W2        5961            0.0000000000
     13154      4385  TIP3      H1            -26.4848184125        3.0583600614       11.4602983134  W2        5961            0.0000000000
     13155      4385  TIP3      H2            -27.3203584125        3.9864700614       10.6045283134  W2        5961            0.0000000000
     13156      4386  TIP3      OH2           -29.8673384125        9.9730300614       10.3066383134  W2        5963            0.0000000000
     13157      4386  TIP3      H1            -30.1624984125       10.7998200614       10.6881183134  W2        5963            0.0000000000
     13158      4386  TIP3      H2            -30.5703384125        9.3537200614       10.5027783134  W2        5963            0.0000000000
     13159      4387  TIP3      OH2           -22.4918484125        3.4052700614       10.8358483134  W2        5967            0.0000000000
     13160      4387  TIP3      H1            -23.0462184125        3.0090700614       10.1635983134  W2        5967            0.0000000000
     13161      4387  TIP3      H2            -22.3914884125        4.3157900614       10.5581783134  W2        5967            0.0000000000
     13162      4388  TIP3      OH2           -38.7382084125        6.1898300614        9.0423583134  W2        5972            0.0000000000
     13163      4388  TIP3      H1            -38.1222184125        6.8165500614        9.4218383134  W2        5972            0.0000000000
     13164      4388  TIP3      H2            -39.5999484125        6.5058100614        9.3140083134  W2        5972            0.0000000000
     13165      4389  TIP3      OH2           -26.8041184125       10.1678900614        9.1211183134  W2        5977            0.0000000000
     13166      4389  TIP3      H1            -26.4508084125        9.7878700614        9.9254683134  W2        5977            0.0000000000
     13167      4389  TIP3      H2            -27.7527684125       10.0743700614        9.2080483134  W2        5977            0.0000000000
     13168      4390  TIP3      OH2           -22.3006784125       14.6471400614        9.3221383134  W2        5979            0.0000000000
     13169      4390  TIP3      H1            -21.5568884125       15.2331900614        9.1822983134  W2        5979            0.0000000000
     13170      4390  TIP3      H2            -22.9948684125       15.2157200614        9.6553783134  W2        5979            0.0000000000
     13171      4391  TIP3      OH2           -32.7133384125       11.2795000614        7.5681183134  W2        5983            0.0000000000
     13172      4391  TIP3      H1            -32.4743584125       10.5313100614        7.0210083134  W2        5983            0.0000000000
     13173      4391  TIP3      H2            -32.9822084125       10.8916700614        8.4008983134  W2        5983            0.0000000000
     13174      4392  TIP3      OH2           -33.7762784125       10.8498800614       10.0243783134  W2        5984            0.0000000000
     13175      4392  TIP3      H1            -33.6294784125       10.3298600614       10.8144683134  W2        5984            0.0000000000
     13176      4392  TIP3      H2            -33.7791084125       11.7566400614       10.3309683134  W2        5984            0.0000000000
     13177      4393  TIP3      OH2           -37.3231684125        8.1022100614       10.5349183134  W2        5985            0.0000000000
     13178      4393  TIP3      H1            -38.0092384125        8.4544600614       11.1018883134  W2        5985            0.0000000000
     13179      4393  TIP3      H2            -36.8003784125        8.8651700614       10.2883483134  W2        5985            0.0000000000
     13180      4394  TIP3      OH2           -31.0385584125       12.5472400614       10.7737983134  W2        5988            0.0000000000
     13181      4394  TIP3      H1            -31.8549484125       13.0442100614       10.8262283134  W2        5988            0.0000000000
     13182      4394  TIP3      H2            -30.5089284125       13.0225900614       10.1336783134  W2        5988            0.0000000000
     13183      4395  TIP3      OH2           -33.7002484125       13.5909600614       10.7554883134  W2        5992            0.0000000000
     13184      4395  TIP3      H1            -33.5393784125       14.3907100614       10.2547483134  W2        5992            0.0000000000
     13185      4395  TIP3      H2            -33.8974684125       13.8975600614       11.6405483134  W2        5992            0.0000000000
     13186      4396  TIP3      OH2           -34.9658084125        0.2888800614       10.3712483134  W2        5993            0.0000000000
     13187      4396  TIP3      H1            -35.0493284125        1.1771900614       10.7178883134  W2        5993            0.0000000000
     13188      4396  TIP3      H2            -34.0757784125        0.0235500614       10.6029283134  W2        5993            0.0000000000
     13189      4397  TIP3      OH2           -36.7072784125       10.7161000614        9.4316983134  W2        5996            0.0000000000
     13190      4397  TIP3      H1            -36.1151284125       11.4155800614        9.7079383134  W2        5996            0.0000000000
     13191      4397  TIP3      H2            -36.2479784125       10.2830500614        8.7121583134  W2        5996            0.0000000000
     13192      4398  TIP3      OH2           -38.3913584125        3.3804000614        8.5476383134  W2        5997            0.0000000000
     13193      4398  TIP3      H1            -38.4360984125        4.3197100614        8.7263383134  W2        5997            0.0000000000
     13194      4398  TIP3      H2            -39.2790384125        3.1448900614        8.2778483134  W2        5997            0.0000000000
     13195      4399  TIP3      OH2           -30.6751584125       13.1426400614        7.7067183134  W2        6003            0.0000000000
     13196      4399  TIP3      H1            -31.3190584125       12.5115000614        8.0280883134  W2        6003            0.0000000000
     13197      4399  TIP3      H2            -29.9133284125       12.6114400614        7.4750683134  W2        6003            0.0000000000
     13198      4400  TIP3      OH2           -26.0708684125       12.9596300614        7.9405183134  W2        6005            0.0000000000
     13199      4400  TIP3      H1            -25.7878284125       12.1651500614        8.3932083134  W2        6005            0.0000000000
     13200      4400  TIP3      H2            -25.3310784125       13.1927300614        7.3796283134  W2        6005            0.0000000000
     13201      4401  TIP3      OH2           -35.1161384125        8.8691200614        7.7980083134  W2        6007            0.0000000000
     13202      4401  TIP3      H1            -35.0517284125        8.0750800614        8.3286483134  W2        6007            0.0000000000
     13203      4401  TIP3      H2            -34.4632184125        8.7504000614        7.1082083134  W2        6007            0.0000000000
     13204      4402  TIP3      OH2           -29.7637984125        9.9162900614        7.5338083134  W2        6009            0.0000000000
     13205      4402  TIP3      H1            -30.0323884125       10.0965000614        8.4346983134  W2        6009            0.0000000000
     13206      4402  TIP3      H2            -29.9702384125        8.9909100614        7.4023883134  W2        6009            0.0000000000
     13207      4403  TIP3      OH2           -33.9667584125        6.8417400614       10.1038083134  W2        6012            0.0000000000
     13208      4403  TIP3      H1            -34.4265584125        6.3575700614       10.7896583134  W2        6012            0.0000000000
     13209      4403  TIP3      H2            -33.7118884125        6.1732800614        9.4678583134  W2        6012            0.0000000000
     13210      4404  TIP3      OH2           -32.8957184125        5.0849200614        8.3661283134  W2        6014            0.0000000000
     13211      4404  TIP3      H1            -33.0762184125        4.9300400614        7.4389583134  W2        6014            0.0000000000
     13212      4404  TIP3      H2            -31.9456684125        5.1927900614        8.4109183134  W2        6014            0.0000000000
     13213      4405  TIP3      OH2           -23.5058884125        7.4393400614        7.8119383134  W2        6016            0.0000000000
     13214      4405  TIP3      H1            -23.7794084125        7.0148900614        6.9987683134  W2        6016            0.0000000000
     13215      4405  TIP3      H2            -23.4664784125        8.3707900614        7.5949783134  W2        6016            0.0000000000
     13216      4406  TIP3      OH2           -32.9985484125       15.7752900614        9.3674883134  W2        6030            0.0000000000
     13217      4406  TIP3      H1            -32.0654784125       15.9331600614        9.5113283134  W2        6030            0.0000000000
     13218      4406  TIP3      H2            -33.2626684125       16.4505900614        8.7426383134  W2        6030            0.0000000000
     13219      4407  TIP3      OH2           -39.4300584125       10.4116700614        8.8502983134  W2        6031            0.0000000000
     13220      4407  TIP3      H1            -38.5161384125       10.4905600614        9.1236883134  W2        6031            0.0000000000
     13221      4407  TIP3      H2            -39.4227484125        9.7246300614        8.1838583134  W2        6031            0.0000000000
     13222      4408  TIP3      OH2           -22.3847384125        6.2627400614       10.0016783134  W2        6041            0.0000000000
     13223      4408  TIP3      H1            -22.9066284125        6.6191500614        9.2827683134  W2        6041            0.0000000000
     13224      4408  TIP3      H2            -22.4178184125        6.9375200614       10.6797683134  W2        6041            0.0000000000
     13225      4409  TIP3      OH2           -24.0358384125        3.5023000614        8.5523883134  W2        6042            0.0000000000
     13226      4409  TIP3      H1            -23.9393984125        4.1690000614        7.8723583134  W2        6042            0.0000000000
     13227      4409  TIP3      H2            -24.1758784125        2.6869300614        8.0709383134  W2        6042            0.0000000000
     13228      4410  TIP3      OH2           -24.7884584125        0.9102800614        7.6699383134  W2        6047            0.0000000000
     13229      4410  TIP3      H1            -24.1778784125        0.5389600614        8.3067583134  W2        6047            0.0000000000
     13230      4410  TIP3      H2            -25.6253084125        0.4889700614        7.8659383134  W2        6047            0.0000000000
     13231      4411  TIP3      OH2           -22.6757884125       -0.2041399386        9.2121583134  W2        6057            0.0000000000
     13232      4411  TIP3      H1            -22.2635284125       -0.9255699386        8.7369583134  W2        6057            0.0000000000
     13233      4411  TIP3      H2            -21.9941384125        0.4653200614        9.2705883134  W2        6057            0.0000000000
     13234      4412  TIP3      OH2           -39.1184584125       -2.1565999386       10.3178883134  W2        6078            0.0000000000
     13235      4412  TIP3      H1            -38.6793884125       -1.5455499386        9.7262383134  W2        6078            0.0000000000
     13236      4412  TIP3      H2            -39.7522184125       -1.6181899386       10.7918883134  W2        6078            0.0000000000
     13237      4413  TIP3      OH2           -37.2575484125       -0.2404499386        8.7602983134  W2        6083            0.0000000000
     13238      4413  TIP3      H1            -36.7662084125       -0.8702099386        8.2328483134  W2        6083            0.0000000000
     13239      4413  TIP3      H2            -36.6339184125        0.0554900614        9.4234183134  W2        6083            0.0000000000
     13240      4414  TIP3      OH2           -30.3531584125       15.0011100614        9.6130183134  W2        6085            0.0000000000
     13241      4414  TIP3      H1            -29.4871384125       15.3678500614        9.4348383134  W2        6085            0.0000000000
     13242      4414  TIP3      H2            -30.5998784125       14.5619100614        8.7990983134  W2        6085            0.0000000000
     13243      4415  TIP3      OH2           -37.3993884125       14.7117000614        8.2406083134  W2        6089            0.0000000000
     13244      4415  TIP3      H1            -37.6669284125       14.9979900614        9.1139183134  W2        6089            0.0000000000
     13245      4415  TIP3      H2            -36.6281284125       14.1656200614        8.3928583134  W2        6089            0.0000000000
     13246      4416  TIP3      OH2           -11.2453684125        4.9032500614        8.9635583134  W2        6122            0.0000000000
     13247      4416  TIP3      H1            -10.5443784125        4.9259400614        9.6149583134  W2        6122            0.0000000000
     13248      4416  TIP3      H2            -10.9430784125        4.2752200614        8.3074883134  W2        6122            0.0000000000
     13249      4417  TIP3      OH2            -9.0225684125        5.8174400614       10.5617683134  W2        6131            0.0000000000
     13250      4417  TIP3      H1             -8.4430184125        5.9674700614       11.3086583134  W2        6131            0.0000000000
     13251      4417  TIP3      H2             -8.6085684125        6.2881800614        9.8384083134  W2        6131            0.0000000000
     13252      4418  TIP3      OH2            -5.3237284125       -2.4325199386       10.3747383134  W2        6135            0.0000000000
     13253      4418  TIP3      H1             -6.2236584125       -2.2936199386       10.6697983134  W2        6135            0.0000000000
     13254      4418  TIP3      H2             -5.0718884125       -1.6010599386        9.9729083134  W2        6135            0.0000000000
     13255      4419  TIP3      OH2            -4.1345884125       11.9337200614        8.7511283134  W2        6137            0.0000000000
     13256      4419  TIP3      H1             -4.0612384125       12.8727400614        8.9216583134  W2        6137            0.0000000000
     13257      4419  TIP3      H2             -3.2290784125       11.6285800614        8.6948583134  W2        6137            0.0000000000
     13258      4420  TIP3      OH2            -8.7221684125       14.6647800614        9.4142383134  W2        6144            0.0000000000
     13259      4420  TIP3      H1             -8.3473284125       13.9203900614        8.9434983134  W2        6144            0.0000000000
     13260      4420  TIP3      H2             -8.7177984125       14.3948400614       10.3325683134  W2        6144            0.0000000000
     13261      4421  TIP3      OH2            -7.5452584125        6.8502700614        8.1915583134  W2        6151            0.0000000000
     13262      4421  TIP3      H1             -7.5031784125        6.6276600614        7.2615583134  W2        6151            0.0000000000
     13263      4421  TIP3      H2             -6.6960484125        7.2489800614        8.3815483134  W2        6151            0.0000000000
     13264      4422  TIP3      OH2           -11.9725084125        0.7260900614        8.8618883134  W2        6152            0.0000000000
     13265      4422  TIP3      H1            -12.2260284125        0.7452500614        9.7846983134  W2        6152            0.0000000000
     13266      4422  TIP3      H2            -12.2292984125       -0.1453699386        8.5605083134  W2        6152            0.0000000000
     13267      4423  TIP3      OH2           -15.0902184125        1.1717400614        7.9629283134  W2        6159            0.0000000000
     13268      4423  TIP3      H1            -15.5211484125        0.7267500614        8.6926683134  W2        6159            0.0000000000
     13269      4423  TIP3      H2            -15.8083484125        1.5433700614        7.4506783134  W2        6159            0.0000000000
     13270      4424  TIP3      OH2           -20.5736684125        1.6598900614       10.4388383134  W2        6161            0.0000000000
     13271      4424  TIP3      H1            -20.0994984125        2.2508800614        9.8539283134  W2        6161            0.0000000000
     13272      4424  TIP3      H2            -21.2910284125        2.1901800614       10.7858483134  W2        6161            0.0000000000
     13273      4425  TIP3      OH2           -16.4720284125        3.9490300614        9.3453683134  W2        6167            0.0000000000
     13274      4425  TIP3      H1            -17.0145184125        3.5694100614        8.6541283134  W2        6167            0.0000000000
     13275      4425  TIP3      H2            -15.6385384125        4.1435000614        8.9167783134  W2        6167            0.0000000000
     13276      4426  TIP3      OH2            -9.2390684125        1.3285900614        9.4804383134  W2        6175            0.0000000000
     13277      4426  TIP3      H1            -10.1776484125        1.4401500614        9.3293183134  W2        6175            0.0000000000
     13278      4426  TIP3      H2             -8.9418584125        2.1852800614        9.7870083134  W2        6175            0.0000000000
     13279      4427  TIP3      OH2            -8.5207184125        3.1958600614       11.1411783134  W2        6177            0.0000000000
     13280      4427  TIP3      H1             -7.6288184125        3.0583600614       11.4602983134  W2        6177            0.0000000000
     13281      4427  TIP3      H2             -8.4643584125        3.9864700614       10.6045283134  W2        6177            0.0000000000
     13282      4428  TIP3      OH2           -11.0113384125        9.9730300614       10.3066383134  W2        6179            0.0000000000
     13283      4428  TIP3      H1            -11.3064984125       10.7998200614       10.6881183134  W2        6179            0.0000000000
     13284      4428  TIP3      H2            -11.7143384125        9.3537200614       10.5027783134  W2        6179            0.0000000000
     13285      4429  TIP3      OH2            -3.6358484125        3.4052700614       10.8358483134  W2        6183            0.0000000000
     13286      4429  TIP3      H1             -4.1902184125        3.0090700614       10.1635983134  W2        6183            0.0000000000
     13287      4429  TIP3      H2             -3.5354884125        4.3157900614       10.5581783134  W2        6183            0.0000000000
     13288      4430  TIP3      OH2           -19.8822084125        6.1898300614        9.0423583134  W2        6188            0.0000000000
     13289      4430  TIP3      H1            -19.2662184125        6.8165500614        9.4218383134  W2        6188            0.0000000000
     13290      4430  TIP3      H2            -20.7439484125        6.5058100614        9.3140083134  W2        6188            0.0000000000
     13291      4431  TIP3      OH2            -7.9481184125       10.1678900614        9.1211183134  W2        6193            0.0000000000
     13292      4431  TIP3      H1             -7.5948084125        9.7878700614        9.9254683134  W2        6193            0.0000000000
     13293      4431  TIP3      H2             -8.8967684125       10.0743700614        9.2080483134  W2        6193            0.0000000000
     13294      4432  TIP3      OH2            -3.4446784125       14.6471400614        9.3221383134  W2        6195            0.0000000000
     13295      4432  TIP3      H1             -2.7008884125       15.2331900614        9.1822983134  W2        6195            0.0000000000
     13296      4432  TIP3      H2             -4.1388684125       15.2157200614        9.6553783134  W2        6195            0.0000000000
     13297      4433  TIP3      OH2           -13.8573384125       11.2795000614        7.5681183134  W2        6199            0.0000000000
     13298      4433  TIP3      H1            -13.6183584125       10.5313100614        7.0210083134  W2        6199            0.0000000000
     13299      4433  TIP3      H2            -14.1262084125       10.8916700614        8.4008983134  W2        6199            0.0000000000
     13300      4434  TIP3      OH2           -14.9202784125       10.8498800614       10.0243783134  W2        6200            0.0000000000
     13301      4434  TIP3      H1            -14.7734784125       10.3298600614       10.8144683134  W2        6200            0.0000000000
     13302      4434  TIP3      H2            -14.9231084125       11.7566400614       10.3309683134  W2        6200            0.0000000000
     13303      4435  TIP3      OH2           -18.4671684125        8.1022100614       10.5349183134  W2        6201            0.0000000000
     13304      4435  TIP3      H1            -19.1532384125        8.4544600614       11.1018883134  W2        6201            0.0000000000
     13305      4435  TIP3      H2            -17.9443784125        8.8651700614       10.2883483134  W2        6201            0.0000000000
     13306      4436  TIP3      OH2           -12.1825584125       12.5472400614       10.7737983134  W2        6204            0.0000000000
     13307      4436  TIP3      H1            -12.9989484125       13.0442100614       10.8262283134  W2        6204            0.0000000000
     13308      4436  TIP3      H2            -11.6529284125       13.0225900614       10.1336783134  W2        6204            0.0000000000
     13309      4437  TIP3      OH2           -14.8442484125       13.5909600614       10.7554883134  W2        6208            0.0000000000
     13310      4437  TIP3      H1            -14.6833784125       14.3907100614       10.2547483134  W2        6208            0.0000000000
     13311      4437  TIP3      H2            -15.0414684125       13.8975600614       11.6405483134  W2        6208            0.0000000000
     13312      4438  TIP3      OH2           -16.1098084125        0.2888800614       10.3712483134  W2        6209            0.0000000000
     13313      4438  TIP3      H1            -16.1933284125        1.1771900614       10.7178883134  W2        6209            0.0000000000
     13314      4438  TIP3      H2            -15.2197784125        0.0235500614       10.6029283134  W2        6209            0.0000000000
     13315      4439  TIP3      OH2           -17.8512784125       10.7161000614        9.4316983134  W2        6212            0.0000000000
     13316      4439  TIP3      H1            -17.2591284125       11.4155800614        9.7079383134  W2        6212            0.0000000000
     13317      4439  TIP3      H2            -17.3919784125       10.2830500614        8.7121583134  W2        6212            0.0000000000
     13318      4440  TIP3      OH2           -19.5353584125        3.3804000614        8.5476383134  W2        6213            0.0000000000
     13319      4440  TIP3      H1            -19.5800984125        4.3197100614        8.7263383134  W2        6213            0.0000000000
     13320      4440  TIP3      H2            -20.4230384125        3.1448900614        8.2778483134  W2        6213            0.0000000000
     13321      4441  TIP3      OH2           -11.8191584125       13.1426400614        7.7067183134  W2        6219            0.0000000000
     13322      4441  TIP3      H1            -12.4630584125       12.5115000614        8.0280883134  W2        6219            0.0000000000
     13323      4441  TIP3      H2            -11.0573284125       12.6114400614        7.4750683134  W2        6219            0.0000000000
     13324      4442  TIP3      OH2            -7.2148684125       12.9596300614        7.9405183134  W2        6221            0.0000000000
     13325      4442  TIP3      H1             -6.9318284125       12.1651500614        8.3932083134  W2        6221            0.0000000000
     13326      4442  TIP3      H2             -6.4750784125       13.1927300614        7.3796283134  W2        6221            0.0000000000
     13327      4443  TIP3      OH2           -16.2601384125        8.8691200614        7.7980083134  W2        6223            0.0000000000
     13328      4443  TIP3      H1            -16.1957284125        8.0750800614        8.3286483134  W2        6223            0.0000000000
     13329      4443  TIP3      H2            -15.6072184125        8.7504000614        7.1082083134  W2        6223            0.0000000000
     13330      4444  TIP3      OH2           -10.9077984125        9.9162900614        7.5338083134  W2        6225            0.0000000000
     13331      4444  TIP3      H1            -11.1763884125       10.0965000614        8.4346983134  W2        6225            0.0000000000
     13332      4444  TIP3      H2            -11.1142384125        8.9909100614        7.4023883134  W2        6225            0.0000000000
     13333      4445  TIP3      OH2           -15.1107584125        6.8417400614       10.1038083134  W2        6228            0.0000000000
     13334      4445  TIP3      H1            -15.5705584125        6.3575700614       10.7896583134  W2        6228            0.0000000000
     13335      4445  TIP3      H2            -14.8558884125        6.1732800614        9.4678583134  W2        6228            0.0000000000
     13336      4446  TIP3      OH2           -14.0397184125        5.0849200614        8.3661283134  W2        6230            0.0000000000
     13337      4446  TIP3      H1            -14.2202184125        4.9300400614        7.4389583134  W2        6230            0.0000000000
     13338      4446  TIP3      H2            -13.0896684125        5.1927900614        8.4109183134  W2        6230            0.0000000000
     13339      4447  TIP3      OH2            -4.6498884125        7.4393400614        7.8119383134  W2        6232            0.0000000000
     13340      4447  TIP3      H1             -4.9234084125        7.0148900614        6.9987683134  W2        6232            0.0000000000
     13341      4447  TIP3      H2             -4.6104784125        8.3707900614        7.5949783134  W2        6232            0.0000000000
     13342      4448  TIP3      OH2           -14.1425484125       15.7752900614        9.3674883134  W2        6246            0.0000000000
     13343      4448  TIP3      H1            -13.2094784125       15.9331600614        9.5113283134  W2        6246            0.0000000000
     13344      4448  TIP3      H2            -14.4066684125       16.4505900614        8.7426383134  W2        6246            0.0000000000
     13345      4449  TIP3      OH2           -20.5740584125       10.4116700614        8.8502983134  W2        6247            0.0000000000
     13346      4449  TIP3      H1            -19.6601384125       10.4905600614        9.1236883134  W2        6247            0.0000000000
     13347      4449  TIP3      H2            -20.5667484125        9.7246300614        8.1838583134  W2        6247            0.0000000000
     13348      4450  TIP3      OH2            -3.5287384125        6.2627400614       10.0016783134  W2        6257            0.0000000000
     13349      4450  TIP3      H1             -4.0506284125        6.6191500614        9.2827683134  W2        6257            0.0000000000
     13350      4450  TIP3      H2             -3.5618184125        6.9375200614       10.6797683134  W2        6257            0.0000000000
     13351      4451  TIP3      OH2            -5.1798384125        3.5023000614        8.5523883134  W2        6258            0.0000000000
     13352      4451  TIP3      H1             -5.0833984125        4.1690000614        7.8723583134  W2        6258            0.0000000000
     13353      4451  TIP3      H2             -5.3198784125        2.6869300614        8.0709383134  W2        6258            0.0000000000
     13354      4452  TIP3      OH2            -5.9324584125        0.9102800614        7.6699383134  W2        6263            0.0000000000
     13355      4452  TIP3      H1             -5.3218784125        0.5389600614        8.3067583134  W2        6263            0.0000000000
     13356      4452  TIP3      H2             -6.7693084125        0.4889700614        7.8659383134  W2        6263            0.0000000000
     13357      4453  TIP3      OH2            -3.8197884125       -0.2041399386        9.2121583134  W2        6273            0.0000000000
     13358      4453  TIP3      H1             -3.4075284125       -0.9255699386        8.7369583134  W2        6273            0.0000000000
     13359      4453  TIP3      H2             -3.1381384125        0.4653200614        9.2705883134  W2        6273            0.0000000000
     13360      4454  TIP3      OH2           -20.2624584125       -2.1565999386       10.3178883134  W2        6294            0.0000000000
     13361      4454  TIP3      H1            -19.8233884125       -1.5455499386        9.7262383134  W2        6294            0.0000000000
     13362      4454  TIP3      H2            -20.8962184125       -1.6181899386       10.7918883134  W2        6294            0.0000000000
     13363      4455  TIP3      OH2           -18.4015484125       -0.2404499386        8.7602983134  W2        6299            0.0000000000
     13364      4455  TIP3      H1            -17.9102084125       -0.8702099386        8.2328483134  W2        6299            0.0000000000
     13365      4455  TIP3      H2            -17.7779184125        0.0554900614        9.4234183134  W2        6299            0.0000000000
     13366      4456  TIP3      OH2           -11.4971584125       15.0011100614        9.6130183134  W2        6301            0.0000000000
     13367      4456  TIP3      H1            -10.6311384125       15.3678500614        9.4348383134  W2        6301            0.0000000000
     13368      4456  TIP3      H2            -11.7438784125       14.5619100614        8.7990983134  W2        6301            0.0000000000
     13369      4457  TIP3      OH2           -18.5433884125       14.7117000614        8.2406083134  W2        6305            0.0000000000
     13370      4457  TIP3      H1            -18.8109284125       14.9979900614        9.1139183134  W2        6305            0.0000000000
     13371      4457  TIP3      H2            -17.7721284125       14.1656200614        8.3928583134  W2        6305            0.0000000000
     13372      4458  TIP3      OH2             7.6106315875        4.9032500614        8.9635583134  W2        6338            0.0000000000
     13373      4458  TIP3      H1              8.3116215875        4.9259400614        9.6149583134  W2        6338            0.0000000000
     13374      4458  TIP3      H2              7.9129215875        4.2752200614        8.3074883134  W2        6338            0.0000000000
     13375      4459  TIP3      OH2             9.8334315875        5.8174400614       10.5617683134  W2        6347            0.0000000000
     13376      4459  TIP3      H1             10.4129815875        5.9674700614       11.3086583134  W2        6347            0.0000000000
     13377      4459  TIP3      H2             10.2474315875        6.2881800614        9.8384083134  W2        6347            0.0000000000
     13378      4460  TIP3      OH2            13.5322715875       -2.4325199386       10.3747383134  W2        6351            0.0000000000
     13379      4460  TIP3      H1             12.6323415875       -2.2936199386       10.6697983134  W2        6351            0.0000000000
     13380      4460  TIP3      H2             13.7841115875       -1.6010599386        9.9729083134  W2        6351            0.0000000000
     13381      4461  TIP3      OH2            14.7214115875       11.9337200614        8.7511283134  W2        6353            0.0000000000
     13382      4461  TIP3      H1             14.7947615875       12.8727400614        8.9216583134  W2        6353            0.0000000000
     13383      4461  TIP3      H2             15.6269215875       11.6285800614        8.6948583134  W2        6353            0.0000000000
     13384      4462  TIP3      OH2            10.1338315875       14.6647800614        9.4142383134  W2        6360            0.0000000000
     13385      4462  TIP3      H1             10.5086715875       13.9203900614        8.9434983134  W2        6360            0.0000000000
     13386      4462  TIP3      H2             10.1382015875       14.3948400614       10.3325683134  W2        6360            0.0000000000
     13387      4463  TIP3      OH2            11.3107415875        6.8502700614        8.1915583134  W2        6367            0.0000000000
     13388      4463  TIP3      H1             11.3528215875        6.6276600614        7.2615583134  W2        6367            0.0000000000
     13389      4463  TIP3      H2             12.1599515875        7.2489800614        8.3815483134  W2        6367            0.0000000000
     13390      4464  TIP3      OH2             6.8834915875        0.7260900614        8.8618883134  W2        6368            0.0000000000
     13391      4464  TIP3      H1              6.6299715875        0.7452500614        9.7846983134  W2        6368            0.0000000000
     13392      4464  TIP3      H2              6.6267015875       -0.1453699386        8.5605083134  W2        6368            0.0000000000
     13393      4465  TIP3      OH2             3.7657815875        1.1717400614        7.9629283134  W2        6375            0.0000000000
     13394      4465  TIP3      H1              3.3348515875        0.7267500614        8.6926683134  W2        6375            0.0000000000
     13395      4465  TIP3      H2              3.0476515875        1.5433700614        7.4506783134  W2        6375            0.0000000000
     13396      4466  TIP3      OH2            -1.7176684125        1.6598900614       10.4388383134  W2        6377            0.0000000000
     13397      4466  TIP3      H1             -1.2434984125        2.2508800614        9.8539283134  W2        6377            0.0000000000
     13398      4466  TIP3      H2             -2.4350284125        2.1901800614       10.7858483134  W2        6377            0.0000000000
     13399      4467  TIP3      OH2             2.3839715875        3.9490300614        9.3453683134  W2        6383            0.0000000000
     13400      4467  TIP3      H1              1.8414815875        3.5694100614        8.6541283134  W2        6383            0.0000000000
     13401      4467  TIP3      H2              3.2174615875        4.1435000614        8.9167783134  W2        6383            0.0000000000
     13402      4468  TIP3      OH2             9.6169315875        1.3285900614        9.4804383134  W2        6391            0.0000000000
     13403      4468  TIP3      H1              8.6783515875        1.4401500614        9.3293183134  W2        6391            0.0000000000
     13404      4468  TIP3      H2              9.9141415875        2.1852800614        9.7870083134  W2        6391            0.0000000000
     13405      4469  TIP3      OH2            10.3352815875        3.1958600614       11.1411783134  W2        6393            0.0000000000
     13406      4469  TIP3      H1             11.2271815875        3.0583600614       11.4602983134  W2        6393            0.0000000000
     13407      4469  TIP3      H2             10.3916415875        3.9864700614       10.6045283134  W2        6393            0.0000000000
     13408      4470  TIP3      OH2             7.8446615875        9.9730300614       10.3066383134  W2        6395            0.0000000000
     13409      4470  TIP3      H1              7.5495015875       10.7998200614       10.6881183134  W2        6395            0.0000000000
     13410      4470  TIP3      H2              7.1416615875        9.3537200614       10.5027783134  W2        6395            0.0000000000
     13411      4471  TIP3      OH2            15.2201515875        3.4052700614       10.8358483134  W2        6399            0.0000000000
     13412      4471  TIP3      H1             14.6657815875        3.0090700614       10.1635983134  W2        6399            0.0000000000
     13413      4471  TIP3      H2             15.3205115875        4.3157900614       10.5581783134  W2        6399            0.0000000000
     13414      4472  TIP3      OH2            -1.0262084125        6.1898300614        9.0423583134  W2        6404            0.0000000000
     13415      4472  TIP3      H1             -0.4102184125        6.8165500614        9.4218383134  W2        6404            0.0000000000
     13416      4472  TIP3      H2             -1.8879484125        6.5058100614        9.3140083134  W2        6404            0.0000000000
     13417      4473  TIP3      OH2            10.9078815875       10.1678900614        9.1211183134  W2        6409            0.0000000000
     13418      4473  TIP3      H1             11.2611915875        9.7878700614        9.9254683134  W2        6409            0.0000000000
     13419      4473  TIP3      H2              9.9592315875       10.0743700614        9.2080483134  W2        6409            0.0000000000
     13420      4474  TIP3      OH2            15.4113215875       14.6471400614        9.3221383134  W2        6411            0.0000000000
     13421      4474  TIP3      H1             16.1551115875       15.2331900614        9.1822983134  W2        6411            0.0000000000
     13422      4474  TIP3      H2             14.7171315875       15.2157200614        9.6553783134  W2        6411            0.0000000000
     13423      4475  TIP3      OH2             4.9986615875       11.2795000614        7.5681183134  W2        6415            0.0000000000
     13424      4475  TIP3      H1              5.2376415875       10.5313100614        7.0210083134  W2        6415            0.0000000000
     13425      4475  TIP3      H2              4.7297915875       10.8916700614        8.4008983134  W2        6415            0.0000000000
     13426      4476  TIP3      OH2             3.9357215875       10.8498800614       10.0243783134  W2        6416            0.0000000000
     13427      4476  TIP3      H1              4.0825215875       10.3298600614       10.8144683134  W2        6416            0.0000000000
     13428      4476  TIP3      H2              3.9328915875       11.7566400614       10.3309683134  W2        6416            0.0000000000
     13429      4477  TIP3      OH2             0.3888315875        8.1022100614       10.5349183134  W2        6417            0.0000000000
     13430      4477  TIP3      H1             -0.2972384125        8.4544600614       11.1018883134  W2        6417            0.0000000000
     13431      4477  TIP3      H2              0.9116215875        8.8651700614       10.2883483134  W2        6417            0.0000000000
     13432      4478  TIP3      OH2             6.6734415875       12.5472400614       10.7737983134  W2        6420            0.0000000000
     13433      4478  TIP3      H1              5.8570515875       13.0442100614       10.8262283134  W2        6420            0.0000000000
     13434      4478  TIP3      H2              7.2030715875       13.0225900614       10.1336783134  W2        6420            0.0000000000
     13435      4479  TIP3      OH2             4.0117515875       13.5909600614       10.7554883134  W2        6424            0.0000000000
     13436      4479  TIP3      H1              4.1726215875       14.3907100614       10.2547483134  W2        6424            0.0000000000
     13437      4479  TIP3      H2              3.8145315875       13.8975600614       11.6405483134  W2        6424            0.0000000000
     13438      4480  TIP3      OH2             2.7461915875        0.2888800614       10.3712483134  W2        6425            0.0000000000
     13439      4480  TIP3      H1              2.6626715875        1.1771900614       10.7178883134  W2        6425            0.0000000000
     13440      4480  TIP3      H2              3.6362215875        0.0235500614       10.6029283134  W2        6425            0.0000000000
     13441      4481  TIP3      OH2             1.0047215875       10.7161000614        9.4316983134  W2        6428            0.0000000000
     13442      4481  TIP3      H1              1.5968715875       11.4155800614        9.7079383134  W2        6428            0.0000000000
     13443      4481  TIP3      H2              1.4640215875       10.2830500614        8.7121583134  W2        6428            0.0000000000
     13444      4482  TIP3      OH2            -0.6793584125        3.3804000614        8.5476383134  W2        6429            0.0000000000
     13445      4482  TIP3      H1             -0.7240984125        4.3197100614        8.7263383134  W2        6429            0.0000000000
     13446      4482  TIP3      H2             -1.5670384125        3.1448900614        8.2778483134  W2        6429            0.0000000000
     13447      4483  TIP3      OH2             7.0368415875       13.1426400614        7.7067183134  W2        6435            0.0000000000
     13448      4483  TIP3      H1              6.3929415875       12.5115000614        8.0280883134  W2        6435            0.0000000000
     13449      4483  TIP3      H2              7.7986715875       12.6114400614        7.4750683134  W2        6435            0.0000000000
     13450      4484  TIP3      OH2            11.6411315875       12.9596300614        7.9405183134  W2        6437            0.0000000000
     13451      4484  TIP3      H1             11.9241715875       12.1651500614        8.3932083134  W2        6437            0.0000000000
     13452      4484  TIP3      H2             12.3809215875       13.1927300614        7.3796283134  W2        6437            0.0000000000
     13453      4485  TIP3      OH2             2.5958615875        8.8691200614        7.7980083134  W2        6439            0.0000000000
     13454      4485  TIP3      H1              2.6602715875        8.0750800614        8.3286483134  W2        6439            0.0000000000
     13455      4485  TIP3      H2              3.2487815875        8.7504000614        7.1082083134  W2        6439            0.0000000000
     13456      4486  TIP3      OH2             7.9482015875        9.9162900614        7.5338083134  W2        6441            0.0000000000
     13457      4486  TIP3      H1              7.6796115875       10.0965000614        8.4346983134  W2        6441            0.0000000000
     13458      4486  TIP3      H2              7.7417615875        8.9909100614        7.4023883134  W2        6441            0.0000000000
     13459      4487  TIP3      OH2             3.7452415875        6.8417400614       10.1038083134  W2        6444            0.0000000000
     13460      4487  TIP3      H1              3.2854415875        6.3575700614       10.7896583134  W2        6444            0.0000000000
     13461      4487  TIP3      H2              4.0001115875        6.1732800614        9.4678583134  W2        6444            0.0000000000
     13462      4488  TIP3      OH2             4.8162815875        5.0849200614        8.3661283134  W2        6446            0.0000000000
     13463      4488  TIP3      H1              4.6357815875        4.9300400614        7.4389583134  W2        6446            0.0000000000
     13464      4488  TIP3      H2              5.7663315875        5.1927900614        8.4109183134  W2        6446            0.0000000000
     13465      4489  TIP3      OH2            14.2061115875        7.4393400614        7.8119383134  W2        6448            0.0000000000
     13466      4489  TIP3      H1             13.9325915875        7.0148900614        6.9987683134  W2        6448            0.0000000000
     13467      4489  TIP3      H2             14.2455215875        8.3707900614        7.5949783134  W2        6448            0.0000000000
     13468      4490  TIP3      OH2             4.7134515875       15.7752900614        9.3674883134  W2        6462            0.0000000000
     13469      4490  TIP3      H1              5.6465215875       15.9331600614        9.5113283134  W2        6462            0.0000000000
     13470      4490  TIP3      H2              4.4493315875       16.4505900614        8.7426383134  W2        6462            0.0000000000
     13471      4491  TIP3      OH2            -1.7180584125       10.4116700614        8.8502983134  W2        6463            0.0000000000
     13472      4491  TIP3      H1             -0.8041384125       10.4905600614        9.1236883134  W2        6463            0.0000000000
     13473      4491  TIP3      H2             -1.7107484125        9.7246300614        8.1838583134  W2        6463            0.0000000000
     13474      4492  TIP3      OH2            15.3272615875        6.2627400614       10.0016783134  W2        6473            0.0000000000
     13475      4492  TIP3      H1             14.8053715875        6.6191500614        9.2827683134  W2        6473            0.0000000000
     13476      4492  TIP3      H2             15.2941815875        6.9375200614       10.6797683134  W2        6473            0.0000000000
     13477      4493  TIP3      OH2            13.6761615875        3.5023000614        8.5523883134  W2        6474            0.0000000000
     13478      4493  TIP3      H1             13.7726015875        4.1690000614        7.8723583134  W2        6474            0.0000000000
     13479      4493  TIP3      H2             13.5361215875        2.6869300614        8.0709383134  W2        6474            0.0000000000
     13480      4494  TIP3      OH2            12.9235415875        0.9102800614        7.6699383134  W2        6479            0.0000000000
     13481      4494  TIP3      H1             13.5341215875        0.5389600614        8.3067583134  W2        6479            0.0000000000
     13482      4494  TIP3      H2             12.0866915875        0.4889700614        7.8659383134  W2        6479            0.0000000000
     13483      4495  TIP3      OH2            15.0362115875       -0.2041399386        9.2121583134  W2        6489            0.0000000000
     13484      4495  TIP3      H1             15.4484715875       -0.9255699386        8.7369583134  W2        6489            0.0000000000
     13485      4495  TIP3      H2             15.7178615875        0.4653200614        9.2705883134  W2        6489            0.0000000000
     13486      4496  TIP3      OH2            -1.4064584125       -2.1565999386       10.3178883134  W2        6510            0.0000000000
     13487      4496  TIP3      H1             -0.9673884125       -1.5455499386        9.7262383134  W2        6510            0.0000000000
     13488      4496  TIP3      H2             -2.0402184125       -1.6181899386       10.7918883134  W2        6510            0.0000000000
     13489      4497  TIP3      OH2             0.4544515875       -0.2404499386        8.7602983134  W2        6515            0.0000000000
     13490      4497  TIP3      H1              0.9457915875       -0.8702099386        8.2328483134  W2        6515            0.0000000000
     13491      4497  TIP3      H2              1.0780815875        0.0554900614        9.4234183134  W2        6515            0.0000000000
     13492      4498  TIP3      OH2             7.3588415875       15.0011100614        9.6130183134  W2        6517            0.0000000000
     13493      4498  TIP3      H1              8.2248615875       15.3678500614        9.4348383134  W2        6517            0.0000000000
     13494      4498  TIP3      H2              7.1121215875       14.5619100614        8.7990983134  W2        6517            0.0000000000
     13495      4499  TIP3      OH2             0.3126115875       14.7117000614        8.2406083134  W2        6521            0.0000000000
     13496      4499  TIP3      H1              0.0450715875       14.9979900614        9.1139183134  W2        6521            0.0000000000
     13497      4499  TIP3      H2              1.0838715875       14.1656200614        8.3928583134  W2        6521            0.0000000000
     13498      4500  TIP3      OH2            26.4666315875        4.9032500614        8.9635583134  W2        6554            0.0000000000
     13499      4500  TIP3      H1             27.1676215875        4.9259400614        9.6149583134  W2        6554            0.0000000000
     13500      4500  TIP3      H2             26.7689215875        4.2752200614        8.3074883134  W2        6554            0.0000000000
     13501      4501  TIP3      OH2            28.6894315875        5.8174400614       10.5617683134  W2        6563            0.0000000000
     13502      4501  TIP3      H1             29.2689815875        5.9674700614       11.3086583134  W2        6563            0.0000000000
     13503      4501  TIP3      H2             29.1034315875        6.2881800614        9.8384083134  W2        6563            0.0000000000
     13504      4502  TIP3      OH2            32.3882715875       -2.4325199386       10.3747383134  W2        6567            0.0000000000
     13505      4502  TIP3      H1             31.4883415875       -2.2936199386       10.6697983134  W2        6567            0.0000000000
     13506      4502  TIP3      H2             32.6401115875       -1.6010599386        9.9729083134  W2        6567            0.0000000000
     13507      4503  TIP3      OH2            33.5774115875       11.9337200614        8.7511283134  W2        6569            0.0000000000
     13508      4503  TIP3      H1             33.6507615875       12.8727400614        8.9216583134  W2        6569            0.0000000000
     13509      4503  TIP3      H2             34.4829215875       11.6285800614        8.6948583134  W2        6569            0.0000000000
     13510      4504  TIP3      OH2            28.9898315875       14.6647800614        9.4142383134  W2        6576            0.0000000000
     13511      4504  TIP3      H1             29.3646715875       13.9203900614        8.9434983134  W2        6576            0.0000000000
     13512      4504  TIP3      H2             28.9942015875       14.3948400614       10.3325683134  W2        6576            0.0000000000
     13513      4505  TIP3      OH2            30.1667415875        6.8502700614        8.1915583134  W2        6583            0.0000000000
     13514      4505  TIP3      H1             30.2088215875        6.6276600614        7.2615583134  W2        6583            0.0000000000
     13515      4505  TIP3      H2             31.0159515875        7.2489800614        8.3815483134  W2        6583            0.0000000000
     13516      4506  TIP3      OH2            25.7394915875        0.7260900614        8.8618883134  W2        6584            0.0000000000
     13517      4506  TIP3      H1             25.4859715875        0.7452500614        9.7846983134  W2        6584            0.0000000000
     13518      4506  TIP3      H2             25.4827015875       -0.1453699386        8.5605083134  W2        6584            0.0000000000
     13519      4507  TIP3      OH2            22.6217815875        1.1717400614        7.9629283134  W2        6591            0.0000000000
     13520      4507  TIP3      H1             22.1908515875        0.7267500614        8.6926683134  W2        6591            0.0000000000
     13521      4507  TIP3      H2             21.9036515875        1.5433700614        7.4506783134  W2        6591            0.0000000000
     13522      4508  TIP3      OH2            17.1383315875        1.6598900614       10.4388383134  W2        6593            0.0000000000
     13523      4508  TIP3      H1             17.6125015875        2.2508800614        9.8539283134  W2        6593            0.0000000000
     13524      4508  TIP3      H2             16.4209715875        2.1901800614       10.7858483134  W2        6593            0.0000000000
     13525      4509  TIP3      OH2            21.2399715875        3.9490300614        9.3453683134  W2        6599            0.0000000000
     13526      4509  TIP3      H1             20.6974815875        3.5694100614        8.6541283134  W2        6599            0.0000000000
     13527      4509  TIP3      H2             22.0734615875        4.1435000614        8.9167783134  W2        6599            0.0000000000
     13528      4510  TIP3      OH2            28.4729315875        1.3285900614        9.4804383134  W2        6607            0.0000000000
     13529      4510  TIP3      H1             27.5343515875        1.4401500614        9.3293183134  W2        6607            0.0000000000
     13530      4510  TIP3      H2             28.7701415875        2.1852800614        9.7870083134  W2        6607            0.0000000000
     13531      4511  TIP3      OH2            29.1912815875        3.1958600614       11.1411783134  W2        6609            0.0000000000
     13532      4511  TIP3      H1             30.0831815875        3.0583600614       11.4602983134  W2        6609            0.0000000000
     13533      4511  TIP3      H2             29.2476415875        3.9864700614       10.6045283134  W2        6609            0.0000000000
     13534      4512  TIP3      OH2            26.7006615875        9.9730300614       10.3066383134  W2        6611            0.0000000000
     13535      4512  TIP3      H1             26.4055015875       10.7998200614       10.6881183134  W2        6611            0.0000000000
     13536      4512  TIP3      H2             25.9976615875        9.3537200614       10.5027783134  W2        6611            0.0000000000
     13537      4513  TIP3      OH2            34.0761515875        3.4052700614       10.8358483134  W2        6615            0.0000000000
     13538      4513  TIP3      H1             33.5217815875        3.0090700614       10.1635983134  W2        6615            0.0000000000
     13539      4513  TIP3      H2             34.1765115875        4.3157900614       10.5581783134  W2        6615            0.0000000000
     13540      4514  TIP3      OH2            17.8297915875        6.1898300614        9.0423583134  W2        6620            0.0000000000
     13541      4514  TIP3      H1             18.4457815875        6.8165500614        9.4218383134  W2        6620            0.0000000000
     13542      4514  TIP3      H2             16.9680515875        6.5058100614        9.3140083134  W2        6620            0.0000000000
     13543      4515  TIP3      OH2            29.7638815875       10.1678900614        9.1211183134  W2        6625            0.0000000000
     13544      4515  TIP3      H1             30.1171915875        9.7878700614        9.9254683134  W2        6625            0.0000000000
     13545      4515  TIP3      H2             28.8152315875       10.0743700614        9.2080483134  W2        6625            0.0000000000
     13546      4516  TIP3      OH2            34.2673215875       14.6471400614        9.3221383134  W2        6627            0.0000000000
     13547      4516  TIP3      H1             35.0111115875       15.2331900614        9.1822983134  W2        6627            0.0000000000
     13548      4516  TIP3      H2             33.5731315875       15.2157200614        9.6553783134  W2        6627            0.0000000000
     13549      4517  TIP3      OH2            23.8546615875       11.2795000614        7.5681183134  W2        6631            0.0000000000
     13550      4517  TIP3      H1             24.0936415875       10.5313100614        7.0210083134  W2        6631            0.0000000000
     13551      4517  TIP3      H2             23.5857915875       10.8916700614        8.4008983134  W2        6631            0.0000000000
     13552      4518  TIP3      OH2            22.7917215875       10.8498800614       10.0243783134  W2        6632            0.0000000000
     13553      4518  TIP3      H1             22.9385215875       10.3298600614       10.8144683134  W2        6632            0.0000000000
     13554      4518  TIP3      H2             22.7888915875       11.7566400614       10.3309683134  W2        6632            0.0000000000
     13555      4519  TIP3      OH2            19.2448315875        8.1022100614       10.5349183134  W2        6633            0.0000000000
     13556      4519  TIP3      H1             18.5587615875        8.4544600614       11.1018883134  W2        6633            0.0000000000
     13557      4519  TIP3      H2             19.7676215875        8.8651700614       10.2883483134  W2        6633            0.0000000000
     13558      4520  TIP3      OH2            25.5294415875       12.5472400614       10.7737983134  W2        6636            0.0000000000
     13559      4520  TIP3      H1             24.7130515875       13.0442100614       10.8262283134  W2        6636            0.0000000000
     13560      4520  TIP3      H2             26.0590715875       13.0225900614       10.1336783134  W2        6636            0.0000000000
     13561      4521  TIP3      OH2            22.8677515875       13.5909600614       10.7554883134  W2        6640            0.0000000000
     13562      4521  TIP3      H1             23.0286215875       14.3907100614       10.2547483134  W2        6640            0.0000000000
     13563      4521  TIP3      H2             22.6705315875       13.8975600614       11.6405483134  W2        6640            0.0000000000
     13564      4522  TIP3      OH2            21.6021915875        0.2888800614       10.3712483134  W2        6641            0.0000000000
     13565      4522  TIP3      H1             21.5186715875        1.1771900614       10.7178883134  W2        6641            0.0000000000
     13566      4522  TIP3      H2             22.4922215875        0.0235500614       10.6029283134  W2        6641            0.0000000000
     13567      4523  TIP3      OH2            19.8607215875       10.7161000614        9.4316983134  W2        6644            0.0000000000
     13568      4523  TIP3      H1             20.4528715875       11.4155800614        9.7079383134  W2        6644            0.0000000000
     13569      4523  TIP3      H2             20.3200215875       10.2830500614        8.7121583134  W2        6644            0.0000000000
     13570      4524  TIP3      OH2            18.1766415875        3.3804000614        8.5476383134  W2        6645            0.0000000000
     13571      4524  TIP3      H1             18.1319015875        4.3197100614        8.7263383134  W2        6645            0.0000000000
     13572      4524  TIP3      H2             17.2889615875        3.1448900614        8.2778483134  W2        6645            0.0000000000
     13573      4525  TIP3      OH2            25.8928415875       13.1426400614        7.7067183134  W2        6651            0.0000000000
     13574      4525  TIP3      H1             25.2489415875       12.5115000614        8.0280883134  W2        6651            0.0000000000
     13575      4525  TIP3      H2             26.6546715875       12.6114400614        7.4750683134  W2        6651            0.0000000000
     13576      4526  TIP3      OH2            30.4971315875       12.9596300614        7.9405183134  W2        6653            0.0000000000
     13577      4526  TIP3      H1             30.7801715875       12.1651500614        8.3932083134  W2        6653            0.0000000000
     13578      4526  TIP3      H2             31.2369215875       13.1927300614        7.3796283134  W2        6653            0.0000000000
     13579      4527  TIP3      OH2            21.4518615875        8.8691200614        7.7980083134  W2        6655            0.0000000000
     13580      4527  TIP3      H1             21.5162715875        8.0750800614        8.3286483134  W2        6655            0.0000000000
     13581      4527  TIP3      H2             22.1047815875        8.7504000614        7.1082083134  W2        6655            0.0000000000
     13582      4528  TIP3      OH2            26.8042015875        9.9162900614        7.5338083134  W2        6657            0.0000000000
     13583      4528  TIP3      H1             26.5356115875       10.0965000614        8.4346983134  W2        6657            0.0000000000
     13584      4528  TIP3      H2             26.5977615875        8.9909100614        7.4023883134  W2        6657            0.0000000000
     13585      4529  TIP3      OH2            22.6012415875        6.8417400614       10.1038083134  W2        6660            0.0000000000
     13586      4529  TIP3      H1             22.1414415875        6.3575700614       10.7896583134  W2        6660            0.0000000000
     13587      4529  TIP3      H2             22.8561115875        6.1732800614        9.4678583134  W2        6660            0.0000000000
     13588      4530  TIP3      OH2            23.6722815875        5.0849200614        8.3661283134  W2        6662            0.0000000000
     13589      4530  TIP3      H1             23.4917815875        4.9300400614        7.4389583134  W2        6662            0.0000000000
     13590      4530  TIP3      H2             24.6223315875        5.1927900614        8.4109183134  W2        6662            0.0000000000
     13591      4531  TIP3      OH2            33.0621115875        7.4393400614        7.8119383134  W2        6664            0.0000000000
     13592      4531  TIP3      H1             32.7885915875        7.0148900614        6.9987683134  W2        6664            0.0000000000
     13593      4531  TIP3      H2             33.1015215875        8.3707900614        7.5949783134  W2        6664            0.0000000000
     13594      4532  TIP3      OH2            23.5694515875       15.7752900614        9.3674883134  W2        6678            0.0000000000
     13595      4532  TIP3      H1             24.5025215875       15.9331600614        9.5113283134  W2        6678            0.0000000000
     13596      4532  TIP3      H2             23.3053315875       16.4505900614        8.7426383134  W2        6678            0.0000000000
     13597      4533  TIP3      OH2            17.1379415875       10.4116700614        8.8502983134  W2        6679            0.0000000000
     13598      4533  TIP3      H1             18.0518615875       10.4905600614        9.1236883134  W2        6679            0.0000000000
     13599      4533  TIP3      H2             17.1452515875        9.7246300614        8.1838583134  W2        6679            0.0000000000
     13600      4534  TIP3      OH2            34.1832615875        6.2627400614       10.0016783134  W2        6689            0.0000000000
     13601      4534  TIP3      H1             33.6613715875        6.6191500614        9.2827683134  W2        6689            0.0000000000
     13602      4534  TIP3      H2             34.1501815875        6.9375200614       10.6797683134  W2        6689            0.0000000000
     13603      4535  TIP3      OH2            32.5321615875        3.5023000614        8.5523883134  W2        6690            0.0000000000
     13604      4535  TIP3      H1             32.6286015875        4.1690000614        7.8723583134  W2        6690            0.0000000000
     13605      4535  TIP3      H2             32.3921215875        2.6869300614        8.0709383134  W2        6690            0.0000000000
     13606      4536  TIP3      OH2            31.7795415875        0.9102800614        7.6699383134  W2        6695            0.0000000000
     13607      4536  TIP3      H1             32.3901215875        0.5389600614        8.3067583134  W2        6695            0.0000000000
     13608      4536  TIP3      H2             30.9426915875        0.4889700614        7.8659383134  W2        6695            0.0000000000
     13609      4537  TIP3      OH2            33.8922115875       -0.2041399386        9.2121583134  W2        6705            0.0000000000
     13610      4537  TIP3      H1             34.3044715875       -0.9255699386        8.7369583134  W2        6705            0.0000000000
     13611      4537  TIP3      H2             34.5738615875        0.4653200614        9.2705883134  W2        6705            0.0000000000
     13612      4538  TIP3      OH2            17.4495415875       -2.1565999386       10.3178883134  W2        6726            0.0000000000
     13613      4538  TIP3      H1             17.8886115875       -1.5455499386        9.7262383134  W2        6726            0.0000000000
     13614      4538  TIP3      H2             16.8157815875       -1.6181899386       10.7918883134  W2        6726            0.0000000000
     13615      4539  TIP3      OH2            19.3104515875       -0.2404499386        8.7602983134  W2        6731            0.0000000000
     13616      4539  TIP3      H1             19.8017915875       -0.8702099386        8.2328483134  W2        6731            0.0000000000
     13617      4539  TIP3      H2             19.9340815875        0.0554900614        9.4234183134  W2        6731            0.0000000000
     13618      4540  TIP3      OH2            26.2148415875       15.0011100614        9.6130183134  W2        6733            0.0000000000
     13619      4540  TIP3      H1             27.0808615875       15.3678500614        9.4348383134  W2        6733            0.0000000000
     13620      4540  TIP3      H2             25.9681215875       14.5619100614        8.7990983134  W2        6733            0.0000000000
     13621      4541  TIP3      OH2            19.1686115875       14.7117000614        8.2406083134  W2        6737            0.0000000000
     13622      4541  TIP3      H1             18.9010715875       14.9979900614        9.1139183134  W2        6737            0.0000000000
     13623      4541  TIP3      H2             19.9398715875       14.1656200614        8.3928583134  W2        6737            0.0000000000
     13624      4542  TIP3      OH2            35.9943315875        1.6598900614       10.4388383134  W2        6763            0.0000000000
     13625      4542  TIP3      H1             36.4685015875        2.2508800614        9.8539283134  W2        6763            0.0000000000
     13626      4542  TIP3      H2             35.2769715875        2.1901800614       10.7858483134  W2        6763            0.0000000000
     13627      4543  TIP3      OH2            40.0959715875        3.9490300614        9.3453683134  W2        6765            0.0000000000
     13628      4543  TIP3      H1             39.5534815875        3.5694100614        8.6541283134  W2        6765            0.0000000000
     13629      4543  TIP3      H2             40.9294615875        4.1435000614        8.9167783134  W2        6765            0.0000000000
     13630      4544  TIP3      OH2            36.6857915875        6.1898300614        9.0423583134  W2        6770            0.0000000000
     13631      4544  TIP3      H1             37.3017815875        6.8165500614        9.4218383134  W2        6770            0.0000000000
     13632      4544  TIP3      H2             35.8240515875        6.5058100614        9.3140083134  W2        6770            0.0000000000
     13633      4545  TIP3      OH2            38.1008315875        8.1022100614       10.5349183134  W2        6773            0.0000000000
     13634      4545  TIP3      H1             37.4147615875        8.4544600614       11.1018883134  W2        6773            0.0000000000
     13635      4545  TIP3      H2             38.6236215875        8.8651700614       10.2883483134  W2        6773            0.0000000000
     13636      4546  TIP3      OH2            40.4581915875        0.2888800614       10.3712483134  W2        6774            0.0000000000
     13637      4546  TIP3      H1             40.3746715875        1.1771900614       10.7178883134  W2        6774            0.0000000000
     13638      4546  TIP3      H2             41.3482215875        0.0235500614       10.6029283134  W2        6774            0.0000000000
     13639      4547  TIP3      OH2            38.7167215875       10.7161000614        9.4316983134  W2        6775            0.0000000000
     13640      4547  TIP3      H1             39.3088715875       11.4155800614        9.7079383134  W2        6775            0.0000000000
     13641      4547  TIP3      H2             39.1760215875       10.2830500614        8.7121583134  W2        6775            0.0000000000
     13642      4548  TIP3      OH2            37.0326415875        3.3804000614        8.5476383134  W2        6776            0.0000000000
     13643      4548  TIP3      H1             36.9879015875        4.3197100614        8.7263383134  W2        6776            0.0000000000
     13644      4548  TIP3      H2             36.1449615875        3.1448900614        8.2778483134  W2        6776            0.0000000000
     13645      4549  TIP3      OH2            40.3078615875        8.8691200614        7.7980083134  W2        6781            0.0000000000
     13646      4549  TIP3      H1             40.3722715875        8.0750800614        8.3286483134  W2        6781            0.0000000000
     13647      4549  TIP3      H2             40.9607815875        8.7504000614        7.1082083134  W2        6781            0.0000000000
     13648      4550  TIP3      OH2            35.9939415875       10.4116700614        8.8502983134  W2        6785            0.0000000000
     13649      4550  TIP3      H1             36.9078615875       10.4905600614        9.1236883134  W2        6785            0.0000000000
     13650      4550  TIP3      H2             36.0012515875        9.7246300614        8.1838583134  W2        6785            0.0000000000
     13651      4551  TIP3      OH2            36.3055415875       -2.1565999386       10.3178883134  W2        6801            0.0000000000
     13652      4551  TIP3      H1             36.7446115875       -1.5455499386        9.7262383134  W2        6801            0.0000000000
     13653      4551  TIP3      H2             35.6717815875       -1.6181899386       10.7918883134  W2        6801            0.0000000000
     13654      4552  TIP3      OH2            38.1664515875       -0.2404499386        8.7602983134  W2        6803            0.0000000000
     13655      4552  TIP3      H1             38.6577915875       -0.8702099386        8.2328483134  W2        6803            0.0000000000
     13656      4552  TIP3      H2             38.7900815875        0.0554900614        9.4234183134  W2        6803            0.0000000000
     13657      4553  TIP3      OH2            38.0246115875       14.7117000614        8.2406083134  W2        6806            0.0000000000
     13658      4553  TIP3      H1             37.7570715875       14.9979900614        9.1139183134  W2        6806            0.0000000000
     13659      4553  TIP3      H2             38.7958715875       14.1656200614        8.3928583134  W2        6806            0.0000000000
     13660      4554  TIP3      OH2           -30.1013684125       23.7592500614        8.9635583134  W2        6837            0.0000000000
     13661      4554  TIP3      H1            -29.4003784125       23.7819400614        9.6149583134  W2        6837            0.0000000000
     13662      4554  TIP3      H2            -29.7990784125       23.1312200614        8.3074883134  W2        6837            0.0000000000
     13663      4555  TIP3      OH2           -27.8785684125       24.6734400614       10.5617683134  W2        6846            0.0000000000
     13664      4555  TIP3      H1            -27.2990184125       24.8234700614       11.3086583134  W2        6846            0.0000000000
     13665      4555  TIP3      H2            -27.4645684125       25.1441800614        9.8384083134  W2        6846            0.0000000000
     13666      4556  TIP3      OH2           -24.1797284125       16.4234800614       10.3747383134  W2        6850            0.0000000000
     13667      4556  TIP3      H1            -25.0796584125       16.5623800614       10.6697983134  W2        6850            0.0000000000
     13668      4556  TIP3      H2            -23.9278884125       17.2549400614        9.9729083134  W2        6850            0.0000000000
     13669      4557  TIP3      OH2           -22.9905884125       30.7897200614        8.7511283134  W2        6852            0.0000000000
     13670      4557  TIP3      H1            -22.9172384125       31.7287400614        8.9216583134  W2        6852            0.0000000000
     13671      4557  TIP3      H2            -22.0850784125       30.4845800614        8.6948583134  W2        6852            0.0000000000
     13672      4558  TIP3      OH2           -27.5781684125       33.5207800614        9.4142383134  W2        6859            0.0000000000
     13673      4558  TIP3      H1            -27.2033284125       32.7763900614        8.9434983134  W2        6859            0.0000000000
     13674      4558  TIP3      H2            -27.5737984125       33.2508400614       10.3325683134  W2        6859            0.0000000000
     13675      4559  TIP3      OH2           -26.4012584125       25.7062700614        8.1915583134  W2        6866            0.0000000000
     13676      4559  TIP3      H1            -26.3591784125       25.4836600614        7.2615583134  W2        6866            0.0000000000
     13677      4559  TIP3      H2            -25.5520484125       26.1049800614        8.3815483134  W2        6866            0.0000000000
     13678      4560  TIP3      OH2           -30.8285084125       19.5820900614        8.8618883134  W2        6867            0.0000000000
     13679      4560  TIP3      H1            -31.0820284125       19.6012500614        9.7846983134  W2        6867            0.0000000000
     13680      4560  TIP3      H2            -31.0852984125       18.7106300614        8.5605083134  W2        6867            0.0000000000
     13681      4561  TIP3      OH2           -33.9462184125       20.0277400614        7.9629283134  W2        6874            0.0000000000
     13682      4561  TIP3      H1            -34.3771484125       19.5827500614        8.6926683134  W2        6874            0.0000000000
     13683      4561  TIP3      H2            -34.6643484125       20.3993700614        7.4506783134  W2        6874            0.0000000000
     13684      4562  TIP3      OH2           -39.4296684125       20.5158900614       10.4388383134  W2        6876            0.0000000000
     13685      4562  TIP3      H1            -38.9554984125       21.1068800614        9.8539283134  W2        6876            0.0000000000
     13686      4562  TIP3      H2            -40.1470284125       21.0461800614       10.7858483134  W2        6876            0.0000000000
     13687      4563  TIP3      OH2           -35.3280284125       22.8050300614        9.3453683134  W2        6882            0.0000000000
     13688      4563  TIP3      H1            -35.8705184125       22.4254100614        8.6541283134  W2        6882            0.0000000000
     13689      4563  TIP3      H2            -34.4945384125       22.9995000614        8.9167783134  W2        6882            0.0000000000
     13690      4564  TIP3      OH2           -28.0950684125       20.1845900614        9.4804383134  W2        6890            0.0000000000
     13691      4564  TIP3      H1            -29.0336484125       20.2961500614        9.3293183134  W2        6890            0.0000000000
     13692      4564  TIP3      H2            -27.7978584125       21.0412800614        9.7870083134  W2        6890            0.0000000000
     13693      4565  TIP3      OH2           -27.3767184125       22.0518600614       11.1411783134  W2        6892            0.0000000000
     13694      4565  TIP3      H1            -26.4848184125       21.9143600614       11.4602983134  W2        6892            0.0000000000
     13695      4565  TIP3      H2            -27.3203584125       22.8424700614       10.6045283134  W2        6892            0.0000000000
     13696      4566  TIP3      OH2           -29.8673384125       28.8290300614       10.3066383134  W2        6894            0.0000000000
     13697      4566  TIP3      H1            -30.1624984125       29.6558200614       10.6881183134  W2        6894            0.0000000000
     13698      4566  TIP3      H2            -30.5703384125       28.2097200614       10.5027783134  W2        6894            0.0000000000
     13699      4567  TIP3      OH2           -22.4918484125       22.2612700614       10.8358483134  W2        6898            0.0000000000
     13700      4567  TIP3      H1            -23.0462184125       21.8650700614       10.1635983134  W2        6898            0.0000000000
     13701      4567  TIP3      H2            -22.3914884125       23.1717900614       10.5581783134  W2        6898            0.0000000000
     13702      4568  TIP3      OH2           -38.7382084125       25.0458300614        9.0423583134  W2        6903            0.0000000000
     13703      4568  TIP3      H1            -38.1222184125       25.6725500614        9.4218383134  W2        6903            0.0000000000
     13704      4568  TIP3      H2            -39.5999484125       25.3618100614        9.3140083134  W2        6903            0.0000000000
     13705      4569  TIP3      OH2           -26.8041184125       29.0238900614        9.1211183134  W2        6908            0.0000000000
     13706      4569  TIP3      H1            -26.4508084125       28.6438700614        9.9254683134  W2        6908            0.0000000000
     13707      4569  TIP3      H2            -27.7527684125       28.9303700614        9.2080483134  W2        6908            0.0000000000
     13708      4570  TIP3      OH2           -22.3006784125       33.5031400614        9.3221383134  W2        6910            0.0000000000
     13709      4570  TIP3      H1            -21.5568884125       34.0891900614        9.1822983134  W2        6910            0.0000000000
     13710      4570  TIP3      H2            -22.9948684125       34.0717200614        9.6553783134  W2        6910            0.0000000000
     13711      4571  TIP3      OH2           -32.7133384125       30.1355000614        7.5681183134  W2        6914            0.0000000000
     13712      4571  TIP3      H1            -32.4743584125       29.3873100614        7.0210083134  W2        6914            0.0000000000
     13713      4571  TIP3      H2            -32.9822084125       29.7476700614        8.4008983134  W2        6914            0.0000000000
     13714      4572  TIP3      OH2           -33.7762784125       29.7058800614       10.0243783134  W2        6915            0.0000000000
     13715      4572  TIP3      H1            -33.6294784125       29.1858600614       10.8144683134  W2        6915            0.0000000000
     13716      4572  TIP3      H2            -33.7791084125       30.6126400614       10.3309683134  W2        6915            0.0000000000
     13717      4573  TIP3      OH2           -37.3231684125       26.9582100614       10.5349183134  W2        6916            0.0000000000
     13718      4573  TIP3      H1            -38.0092384125       27.3104600614       11.1018883134  W2        6916            0.0000000000
     13719      4573  TIP3      H2            -36.8003784125       27.7211700614       10.2883483134  W2        6916            0.0000000000
     13720      4574  TIP3      OH2           -31.0385584125       31.4032400614       10.7737983134  W2        6919            0.0000000000
     13721      4574  TIP3      H1            -31.8549484125       31.9002100614       10.8262283134  W2        6919            0.0000000000
     13722      4574  TIP3      H2            -30.5089284125       31.8785900614       10.1336783134  W2        6919            0.0000000000
     13723      4575  TIP3      OH2           -33.7002484125       32.4469600614       10.7554883134  W2        6923            0.0000000000
     13724      4575  TIP3      H1            -33.5393784125       33.2467100614       10.2547483134  W2        6923            0.0000000000
     13725      4575  TIP3      H2            -33.8974684125       32.7535600614       11.6405483134  W2        6923            0.0000000000
     13726      4576  TIP3      OH2           -34.9658084125       19.1448800614       10.3712483134  W2        6924            0.0000000000
     13727      4576  TIP3      H1            -35.0493284125       20.0331900614       10.7178883134  W2        6924            0.0000000000
     13728      4576  TIP3      H2            -34.0757784125       18.8795500614       10.6029283134  W2        6924            0.0000000000
     13729      4577  TIP3      OH2           -36.7072784125       29.5721000614        9.4316983134  W2        6927            0.0000000000
     13730      4577  TIP3      H1            -36.1151284125       30.2715800614        9.7079383134  W2        6927            0.0000000000
     13731      4577  TIP3      H2            -36.2479784125       29.1390500614        8.7121583134  W2        6927            0.0000000000
     13732      4578  TIP3      OH2           -38.3913584125       22.2364000614        8.5476383134  W2        6928            0.0000000000
     13733      4578  TIP3      H1            -38.4360984125       23.1757100614        8.7263383134  W2        6928            0.0000000000
     13734      4578  TIP3      H2            -39.2790384125       22.0008900614        8.2778483134  W2        6928            0.0000000000
     13735      4579  TIP3      OH2           -30.6751584125       31.9986400614        7.7067183134  W2        6934            0.0000000000
     13736      4579  TIP3      H1            -31.3190584125       31.3675000614        8.0280883134  W2        6934            0.0000000000
     13737      4579  TIP3      H2            -29.9133284125       31.4674400614        7.4750683134  W2        6934            0.0000000000
     13738      4580  TIP3      OH2           -26.0708684125       31.8156300614        7.9405183134  W2        6936            0.0000000000
     13739      4580  TIP3      H1            -25.7878284125       31.0211500614        8.3932083134  W2        6936            0.0000000000
     13740      4580  TIP3      H2            -25.3310784125       32.0487300614        7.3796283134  W2        6936            0.0000000000
     13741      4581  TIP3      OH2           -35.1161384125       27.7251200614        7.7980083134  W2        6938            0.0000000000
     13742      4581  TIP3      H1            -35.0517284125       26.9310800614        8.3286483134  W2        6938            0.0000000000
     13743      4581  TIP3      H2            -34.4632184125       27.6064000614        7.1082083134  W2        6938            0.0000000000
     13744      4582  TIP3      OH2           -29.7637984125       28.7722900614        7.5338083134  W2        6940            0.0000000000
     13745      4582  TIP3      H1            -30.0323884125       28.9525000614        8.4346983134  W2        6940            0.0000000000
     13746      4582  TIP3      H2            -29.9702384125       27.8469100614        7.4023883134  W2        6940            0.0000000000
     13747      4583  TIP3      OH2           -33.9667584125       25.6977400614       10.1038083134  W2        6943            0.0000000000
     13748      4583  TIP3      H1            -34.4265584125       25.2135700614       10.7896583134  W2        6943            0.0000000000
     13749      4583  TIP3      H2            -33.7118884125       25.0292800614        9.4678583134  W2        6943            0.0000000000
     13750      4584  TIP3      OH2           -32.8957184125       23.9409200614        8.3661283134  W2        6945            0.0000000000
     13751      4584  TIP3      H1            -33.0762184125       23.7860400614        7.4389583134  W2        6945            0.0000000000
     13752      4584  TIP3      H2            -31.9456684125       24.0487900614        8.4109183134  W2        6945            0.0000000000
     13753      4585  TIP3      OH2           -23.5058884125       26.2953400614        7.8119383134  W2        6947            0.0000000000
     13754      4585  TIP3      H1            -23.7794084125       25.8708900614        6.9987683134  W2        6947            0.0000000000
     13755      4585  TIP3      H2            -23.4664784125       27.2267900614        7.5949783134  W2        6947            0.0000000000
     13756      4586  TIP3      OH2           -32.9985484125       34.6312900614        9.3674883134  W2        6961            0.0000000000
     13757      4586  TIP3      H1            -32.0654784125       34.7891600614        9.5113283134  W2        6961            0.0000000000
     13758      4586  TIP3      H2            -33.2626684125       35.3065900614        8.7426383134  W2        6961            0.0000000000
     13759      4587  TIP3      OH2           -39.4300584125       29.2676700614        8.8502983134  W2        6962            0.0000000000
     13760      4587  TIP3      H1            -38.5161384125       29.3465600614        9.1236883134  W2        6962            0.0000000000
     13761      4587  TIP3      H2            -39.4227484125       28.5806300614        8.1838583134  W2        6962            0.0000000000
     13762      4588  TIP3      OH2           -22.3847384125       25.1187400614       10.0016783134  W2        6972            0.0000000000
     13763      4588  TIP3      H1            -22.9066284125       25.4751500614        9.2827683134  W2        6972            0.0000000000
     13764      4588  TIP3      H2            -22.4178184125       25.7935200614       10.6797683134  W2        6972            0.0000000000
     13765      4589  TIP3      OH2           -24.0358384125       22.3583000614        8.5523883134  W2        6973            0.0000000000
     13766      4589  TIP3      H1            -23.9393984125       23.0250000614        7.8723583134  W2        6973            0.0000000000
     13767      4589  TIP3      H2            -24.1758784125       21.5429300614        8.0709383134  W2        6973            0.0000000000
     13768      4590  TIP3      OH2           -24.7884584125       19.7662800614        7.6699383134  W2        6978            0.0000000000
     13769      4590  TIP3      H1            -24.1778784125       19.3949600614        8.3067583134  W2        6978            0.0000000000
     13770      4590  TIP3      H2            -25.6253084125       19.3449700614        7.8659383134  W2        6978            0.0000000000
     13771      4591  TIP3      OH2           -22.6757884125       18.6518600614        9.2121583134  W2        6988            0.0000000000
     13772      4591  TIP3      H1            -22.2635284125       17.9304300614        8.7369583134  W2        6988            0.0000000000
     13773      4591  TIP3      H2            -21.9941384125       19.3213200614        9.2705883134  W2        6988            0.0000000000
     13774      4592  TIP3      OH2           -39.1184584125       16.6994000614       10.3178883134  W2        7009            0.0000000000
     13775      4592  TIP3      H1            -38.6793884125       17.3104500614        9.7262383134  W2        7009            0.0000000000
     13776      4592  TIP3      H2            -39.7522184125       17.2378100614       10.7918883134  W2        7009            0.0000000000
     13777      4593  TIP3      OH2           -37.2575484125       18.6155500614        8.7602983134  W2        7014            0.0000000000
     13778      4593  TIP3      H1            -36.7662084125       17.9857900614        8.2328483134  W2        7014            0.0000000000
     13779      4593  TIP3      H2            -36.6339184125       18.9114900614        9.4234183134  W2        7014            0.0000000000
     13780      4594  TIP3      OH2           -30.3531584125       33.8571100614        9.6130183134  W2        7016            0.0000000000
     13781      4594  TIP3      H1            -29.4871384125       34.2238500614        9.4348383134  W2        7016            0.0000000000
     13782      4594  TIP3      H2            -30.5998784125       33.4179100614        8.7990983134  W2        7016            0.0000000000
     13783      4595  TIP3      OH2           -37.3993884125       33.5677000614        8.2406083134  W2        7020            0.0000000000
     13784      4595  TIP3      H1            -37.6669284125       33.8539900614        9.1139183134  W2        7020            0.0000000000
     13785      4595  TIP3      H2            -36.6281284125       33.0216200614        8.3928583134  W2        7020            0.0000000000
     13786      4596  TIP3      OH2           -11.2453684125       23.7592500614        8.9635583134  W2        7053            0.0000000000
     13787      4596  TIP3      H1            -10.5443784125       23.7819400614        9.6149583134  W2        7053            0.0000000000
     13788      4596  TIP3      H2            -10.9430784125       23.1312200614        8.3074883134  W2        7053            0.0000000000
     13789      4597  TIP3      OH2            -9.0225684125       24.6734400614       10.5617683134  W2        7062            0.0000000000
     13790      4597  TIP3      H1             -8.4430184125       24.8234700614       11.3086583134  W2        7062            0.0000000000
     13791      4597  TIP3      H2             -8.6085684125       25.1441800614        9.8384083134  W2        7062            0.0000000000
     13792      4598  TIP3      OH2            -5.3237284125       16.4234800614       10.3747383134  W2        7066            0.0000000000
     13793      4598  TIP3      H1             -6.2236584125       16.5623800614       10.6697983134  W2        7066            0.0000000000
     13794      4598  TIP3      H2             -5.0718884125       17.2549400614        9.9729083134  W2        7066            0.0000000000
     13795      4599  TIP3      OH2            -4.1345884125       30.7897200614        8.7511283134  W2        7068            0.0000000000
     13796      4599  TIP3      H1             -4.0612384125       31.7287400614        8.9216583134  W2        7068            0.0000000000
     13797      4599  TIP3      H2             -3.2290784125       30.4845800614        8.6948583134  W2        7068            0.0000000000
     13798      4600  TIP3      OH2            -8.7221684125       33.5207800614        9.4142383134  W2        7075            0.0000000000
     13799      4600  TIP3      H1             -8.3473284125       32.7763900614        8.9434983134  W2        7075            0.0000000000
     13800      4600  TIP3      H2             -8.7177984125       33.2508400614       10.3325683134  W2        7075            0.0000000000
     13801      4601  TIP3      OH2            -7.5452584125       25.7062700614        8.1915583134  W2        7082            0.0000000000
     13802      4601  TIP3      H1             -7.5031784125       25.4836600614        7.2615583134  W2        7082            0.0000000000
     13803      4601  TIP3      H2             -6.6960484125       26.1049800614        8.3815483134  W2        7082            0.0000000000
     13804      4602  TIP3      OH2           -11.9725084125       19.5820900614        8.8618883134  W2        7083            0.0000000000
     13805      4602  TIP3      H1            -12.2260284125       19.6012500614        9.7846983134  W2        7083            0.0000000000
     13806      4602  TIP3      H2            -12.2292984125       18.7106300614        8.5605083134  W2        7083            0.0000000000
     13807      4603  TIP3      OH2           -15.0902184125       20.0277400614        7.9629283134  W2        7090            0.0000000000
     13808      4603  TIP3      H1            -15.5211484125       19.5827500614        8.6926683134  W2        7090            0.0000000000
     13809      4603  TIP3      H2            -15.8083484125       20.3993700614        7.4506783134  W2        7090            0.0000000000
     13810      4604  TIP3      OH2           -20.5736684125       20.5158900614       10.4388383134  W2        7092            0.0000000000
     13811      4604  TIP3      H1            -20.0994984125       21.1068800614        9.8539283134  W2        7092            0.0000000000
     13812      4604  TIP3      H2            -21.2910284125       21.0461800614       10.7858483134  W2        7092            0.0000000000
     13813      4605  TIP3      OH2           -16.4720284125       22.8050300614        9.3453683134  W2        7098            0.0000000000
     13814      4605  TIP3      H1            -17.0145184125       22.4254100614        8.6541283134  W2        7098            0.0000000000
     13815      4605  TIP3      H2            -15.6385384125       22.9995000614        8.9167783134  W2        7098            0.0000000000
     13816      4606  TIP3      OH2            -9.2390684125       20.1845900614        9.4804383134  W2        7106            0.0000000000
     13817      4606  TIP3      H1            -10.1776484125       20.2961500614        9.3293183134  W2        7106            0.0000000000
     13818      4606  TIP3      H2             -8.9418584125       21.0412800614        9.7870083134  W2        7106            0.0000000000
     13819      4607  TIP3      OH2            -8.5207184125       22.0518600614       11.1411783134  W2        7108            0.0000000000
     13820      4607  TIP3      H1             -7.6288184125       21.9143600614       11.4602983134  W2        7108            0.0000000000
     13821      4607  TIP3      H2             -8.4643584125       22.8424700614       10.6045283134  W2        7108            0.0000000000
     13822      4608  TIP3      OH2           -11.0113384125       28.8290300614       10.3066383134  W2        7110            0.0000000000
     13823      4608  TIP3      H1            -11.3064984125       29.6558200614       10.6881183134  W2        7110            0.0000000000
     13824      4608  TIP3      H2            -11.7143384125       28.2097200614       10.5027783134  W2        7110            0.0000000000
     13825      4609  TIP3      OH2            -3.6358484125       22.2612700614       10.8358483134  W2        7114            0.0000000000
     13826      4609  TIP3      H1             -4.1902184125       21.8650700614       10.1635983134  W2        7114            0.0000000000
     13827      4609  TIP3      H2             -3.5354884125       23.1717900614       10.5581783134  W2        7114            0.0000000000
     13828      4610  TIP3      OH2           -19.8822084125       25.0458300614        9.0423583134  W2        7119            0.0000000000
     13829      4610  TIP3      H1            -19.2662184125       25.6725500614        9.4218383134  W2        7119            0.0000000000
     13830      4610  TIP3      H2            -20.7439484125       25.3618100614        9.3140083134  W2        7119            0.0000000000
     13831      4611  TIP3      OH2            -7.9481184125       29.0238900614        9.1211183134  W2        7124            0.0000000000
     13832      4611  TIP3      H1             -7.5948084125       28.6438700614        9.9254683134  W2        7124            0.0000000000
     13833      4611  TIP3      H2             -8.8967684125       28.9303700614        9.2080483134  W2        7124            0.0000000000
     13834      4612  TIP3      OH2            -3.4446784125       33.5031400614        9.3221383134  W2        7126            0.0000000000
     13835      4612  TIP3      H1             -2.7008884125       34.0891900614        9.1822983134  W2        7126            0.0000000000
     13836      4612  TIP3      H2             -4.1388684125       34.0717200614        9.6553783134  W2        7126            0.0000000000
     13837      4613  TIP3      OH2           -13.8573384125       30.1355000614        7.5681183134  W2        7130            0.0000000000
     13838      4613  TIP3      H1            -13.6183584125       29.3873100614        7.0210083134  W2        7130            0.0000000000
     13839      4613  TIP3      H2            -14.1262084125       29.7476700614        8.4008983134  W2        7130            0.0000000000
     13840      4614  TIP3      OH2           -14.9202784125       29.7058800614       10.0243783134  W2        7131            0.0000000000
     13841      4614  TIP3      H1            -14.7734784125       29.1858600614       10.8144683134  W2        7131            0.0000000000
     13842      4614  TIP3      H2            -14.9231084125       30.6126400614       10.3309683134  W2        7131            0.0000000000
     13843      4615  TIP3      OH2           -18.4671684125       26.9582100614       10.5349183134  W2        7132            0.0000000000
     13844      4615  TIP3      H1            -19.1532384125       27.3104600614       11.1018883134  W2        7132            0.0000000000
     13845      4615  TIP3      H2            -17.9443784125       27.7211700614       10.2883483134  W2        7132            0.0000000000
     13846      4616  TIP3      OH2           -12.1825584125       31.4032400614       10.7737983134  W2        7135            0.0000000000
     13847      4616  TIP3      H1            -12.9989484125       31.9002100614       10.8262283134  W2        7135            0.0000000000
     13848      4616  TIP3      H2            -11.6529284125       31.8785900614       10.1336783134  W2        7135            0.0000000000
     13849      4617  TIP3      OH2           -14.8442484125       32.4469600614       10.7554883134  W2        7139            0.0000000000
     13850      4617  TIP3      H1            -14.6833784125       33.2467100614       10.2547483134  W2        7139            0.0000000000
     13851      4617  TIP3      H2            -15.0414684125       32.7535600614       11.6405483134  W2        7139            0.0000000000
     13852      4618  TIP3      OH2           -16.1098084125       19.1448800614       10.3712483134  W2        7140            0.0000000000
     13853      4618  TIP3      H1            -16.1933284125       20.0331900614       10.7178883134  W2        7140            0.0000000000
     13854      4618  TIP3      H2            -15.2197784125       18.8795500614       10.6029283134  W2        7140            0.0000000000
     13855      4619  TIP3      OH2           -17.8512784125       29.5721000614        9.4316983134  W2        7143            0.0000000000
     13856      4619  TIP3      H1            -17.2591284125       30.2715800614        9.7079383134  W2        7143            0.0000000000
     13857      4619  TIP3      H2            -17.3919784125       29.1390500614        8.7121583134  W2        7143            0.0000000000
     13858      4620  TIP3      OH2           -19.5353584125       22.2364000614        8.5476383134  W2        7144            0.0000000000
     13859      4620  TIP3      H1            -19.5800984125       23.1757100614        8.7263383134  W2        7144            0.0000000000
     13860      4620  TIP3      H2            -20.4230384125       22.0008900614        8.2778483134  W2        7144            0.0000000000
     13861      4621  TIP3      OH2           -11.8191584125       31.9986400614        7.7067183134  W2        7150            0.0000000000
     13862      4621  TIP3      H1            -12.4630584125       31.3675000614        8.0280883134  W2        7150            0.0000000000
     13863      4621  TIP3      H2            -11.0573284125       31.4674400614        7.4750683134  W2        7150            0.0000000000
     13864      4622  TIP3      OH2            -7.2148684125       31.8156300614        7.9405183134  W2        7152            0.0000000000
     13865      4622  TIP3      H1             -6.9318284125       31.0211500614        8.3932083134  W2        7152            0.0000000000
     13866      4622  TIP3      H2             -6.4750784125       32.0487300614        7.3796283134  W2        7152            0.0000000000
     13867      4623  TIP3      OH2           -16.2601384125       27.7251200614        7.7980083134  W2        7154            0.0000000000
     13868      4623  TIP3      H1            -16.1957284125       26.9310800614        8.3286483134  W2        7154            0.0000000000
     13869      4623  TIP3      H2            -15.6072184125       27.6064000614        7.1082083134  W2        7154            0.0000000000
     13870      4624  TIP3      OH2           -10.9077984125       28.7722900614        7.5338083134  W2        7156            0.0000000000
     13871      4624  TIP3      H1            -11.1763884125       28.9525000614        8.4346983134  W2        7156            0.0000000000
     13872      4624  TIP3      H2            -11.1142384125       27.8469100614        7.4023883134  W2        7156            0.0000000000
     13873      4625  TIP3      OH2           -15.1107584125       25.6977400614       10.1038083134  W2        7159            0.0000000000
     13874      4625  TIP3      H1            -15.5705584125       25.2135700614       10.7896583134  W2        7159            0.0000000000
     13875      4625  TIP3      H2            -14.8558884125       25.0292800614        9.4678583134  W2        7159            0.0000000000
     13876      4626  TIP3      OH2           -14.0397184125       23.9409200614        8.3661283134  W2        7161            0.0000000000
     13877      4626  TIP3      H1            -14.2202184125       23.7860400614        7.4389583134  W2        7161            0.0000000000
     13878      4626  TIP3      H2            -13.0896684125       24.0487900614        8.4109183134  W2        7161            0.0000000000
     13879      4627  TIP3      OH2            -4.6498884125       26.2953400614        7.8119383134  W2        7163            0.0000000000
     13880      4627  TIP3      H1             -4.9234084125       25.8708900614        6.9987683134  W2        7163            0.0000000000
     13881      4627  TIP3      H2             -4.6104784125       27.2267900614        7.5949783134  W2        7163            0.0000000000
     13882      4628  TIP3      OH2           -14.1425484125       34.6312900614        9.3674883134  W2        7177            0.0000000000
     13883      4628  TIP3      H1            -13.2094784125       34.7891600614        9.5113283134  W2        7177            0.0000000000
     13884      4628  TIP3      H2            -14.4066684125       35.3065900614        8.7426383134  W2        7177            0.0000000000
     13885      4629  TIP3      OH2           -20.5740584125       29.2676700614        8.8502983134  W2        7178            0.0000000000
     13886      4629  TIP3      H1            -19.6601384125       29.3465600614        9.1236883134  W2        7178            0.0000000000
     13887      4629  TIP3      H2            -20.5667484125       28.5806300614        8.1838583134  W2        7178            0.0000000000
     13888      4630  TIP3      OH2            -3.5287384125       25.1187400614       10.0016783134  W2        7188            0.0000000000
     13889      4630  TIP3      H1             -4.0506284125       25.4751500614        9.2827683134  W2        7188            0.0000000000
     13890      4630  TIP3      H2             -3.5618184125       25.7935200614       10.6797683134  W2        7188            0.0000000000
     13891      4631  TIP3      OH2            -5.1798384125       22.3583000614        8.5523883134  W2        7189            0.0000000000
     13892      4631  TIP3      H1             -5.0833984125       23.0250000614        7.8723583134  W2        7189            0.0000000000
     13893      4631  TIP3      H2             -5.3198784125       21.5429300614        8.0709383134  W2        7189            0.0000000000
     13894      4632  TIP3      OH2            -5.9324584125       19.7662800614        7.6699383134  W2        7194            0.0000000000
     13895      4632  TIP3      H1             -5.3218784125       19.3949600614        8.3067583134  W2        7194            0.0000000000
     13896      4632  TIP3      H2             -6.7693084125       19.3449700614        7.8659383134  W2        7194            0.0000000000
     13897      4633  TIP3      OH2            -3.8197884125       18.6518600614        9.2121583134  W2        7204            0.0000000000
     13898      4633  TIP3      H1             -3.4075284125       17.9304300614        8.7369583134  W2        7204            0.0000000000
     13899      4633  TIP3      H2             -3.1381384125       19.3213200614        9.2705883134  W2        7204            0.0000000000
     13900      4634  TIP3      OH2           -20.2624584125       16.6994000614       10.3178883134  W2        7225            0.0000000000
     13901      4634  TIP3      H1            -19.8233884125       17.3104500614        9.7262383134  W2        7225            0.0000000000
     13902      4634  TIP3      H2            -20.8962184125       17.2378100614       10.7918883134  W2        7225            0.0000000000
     13903      4635  TIP3      OH2           -18.4015484125       18.6155500614        8.7602983134  W2        7230            0.0000000000
     13904      4635  TIP3      H1            -17.9102084125       17.9857900614        8.2328483134  W2        7230            0.0000000000
     13905      4635  TIP3      H2            -17.7779184125       18.9114900614        9.4234183134  W2        7230            0.0000000000
     13906      4636  TIP3      OH2           -11.4971584125       33.8571100614        9.6130183134  W2        7232            0.0000000000
     13907      4636  TIP3      H1            -10.6311384125       34.2238500614        9.4348383134  W2        7232            0.0000000000
     13908      4636  TIP3      H2            -11.7438784125       33.4179100614        8.7990983134  W2        7232            0.0000000000
     13909      4637  TIP3      OH2           -18.5433884125       33.5677000614        8.2406083134  W2        7236            0.0000000000
     13910      4637  TIP3      H1            -18.8109284125       33.8539900614        9.1139183134  W2        7236            0.0000000000
     13911      4637  TIP3      H2            -17.7721284125       33.0216200614        8.3928583134  W2        7236            0.0000000000
     13912      4638  TIP3      OH2             7.6106315875       23.7592500614        8.9635583134  W2        7269            0.0000000000
     13913      4638  TIP3      H1              8.3116215875       23.7819400614        9.6149583134  W2        7269            0.0000000000
     13914      4638  TIP3      H2              7.9129215875       23.1312200614        8.3074883134  W2        7269            0.0000000000
     13915      4639  TIP3      OH2             9.8334315875       24.6734400614       10.5617683134  W2        7278            0.0000000000
     13916      4639  TIP3      H1             10.4129815875       24.8234700614       11.3086583134  W2        7278            0.0000000000
     13917      4639  TIP3      H2             10.2474315875       25.1441800614        9.8384083134  W2        7278            0.0000000000
     13918      4640  TIP3      OH2            13.5322715875       16.4234800614       10.3747383134  W2        7282            0.0000000000
     13919      4640  TIP3      H1             12.6323415875       16.5623800614       10.6697983134  W2        7282            0.0000000000
     13920      4640  TIP3      H2             13.7841115875       17.2549400614        9.9729083134  W2        7282            0.0000000000
     13921      4641  TIP3      OH2            14.7214115875       30.7897200614        8.7511283134  W2        7284            0.0000000000
     13922      4641  TIP3      H1             14.7947615875       31.7287400614        8.9216583134  W2        7284            0.0000000000
     13923      4641  TIP3      H2             15.6269215875       30.4845800614        8.6948583134  W2        7284            0.0000000000
     13924      4642  TIP3      OH2            10.1338315875       33.5207800614        9.4142383134  W2        7291            0.0000000000
     13925      4642  TIP3      H1             10.5086715875       32.7763900614        8.9434983134  W2        7291            0.0000000000
     13926      4642  TIP3      H2             10.1382015875       33.2508400614       10.3325683134  W2        7291            0.0000000000
     13927      4643  TIP3      OH2            11.3107415875       25.7062700614        8.1915583134  W2        7298            0.0000000000
     13928      4643  TIP3      H1             11.3528215875       25.4836600614        7.2615583134  W2        7298            0.0000000000
     13929      4643  TIP3      H2             12.1599515875       26.1049800614        8.3815483134  W2        7298            0.0000000000
     13930      4644  TIP3      OH2             6.8834915875       19.5820900614        8.8618883134  W2        7299            0.0000000000
     13931      4644  TIP3      H1              6.6299715875       19.6012500614        9.7846983134  W2        7299            0.0000000000
     13932      4644  TIP3      H2              6.6267015875       18.7106300614        8.5605083134  W2        7299            0.0000000000
     13933      4645  TIP3      OH2             3.7657815875       20.0277400614        7.9629283134  W2        7306            0.0000000000
     13934      4645  TIP3      H1              3.3348515875       19.5827500614        8.6926683134  W2        7306            0.0000000000
     13935      4645  TIP3      H2              3.0476515875       20.3993700614        7.4506783134  W2        7306            0.0000000000
     13936      4646  TIP3      OH2            -1.7176684125       20.5158900614       10.4388383134  W2        7308            0.0000000000
     13937      4646  TIP3      H1             -1.2434984125       21.1068800614        9.8539283134  W2        7308            0.0000000000
     13938      4646  TIP3      H2             -2.4350284125       21.0461800614       10.7858483134  W2        7308            0.0000000000
     13939      4647  TIP3      OH2             2.3839715875       22.8050300614        9.3453683134  W2        7314            0.0000000000
     13940      4647  TIP3      H1              1.8414815875       22.4254100614        8.6541283134  W2        7314            0.0000000000
     13941      4647  TIP3      H2              3.2174615875       22.9995000614        8.9167783134  W2        7314            0.0000000000
     13942      4648  TIP3      OH2             9.6169315875       20.1845900614        9.4804383134  W2        7322            0.0000000000
     13943      4648  TIP3      H1              8.6783515875       20.2961500614        9.3293183134  W2        7322            0.0000000000
     13944      4648  TIP3      H2              9.9141415875       21.0412800614        9.7870083134  W2        7322            0.0000000000
     13945      4649  TIP3      OH2            10.3352815875       22.0518600614       11.1411783134  W2        7324            0.0000000000
     13946      4649  TIP3      H1             11.2271815875       21.9143600614       11.4602983134  W2        7324            0.0000000000
     13947      4649  TIP3      H2             10.3916415875       22.8424700614       10.6045283134  W2        7324            0.0000000000
     13948      4650  TIP3      OH2             7.8446615875       28.8290300614       10.3066383134  W2        7326            0.0000000000
     13949      4650  TIP3      H1              7.5495015875       29.6558200614       10.6881183134  W2        7326            0.0000000000
     13950      4650  TIP3      H2              7.1416615875       28.2097200614       10.5027783134  W2        7326            0.0000000000
     13951      4651  TIP3      OH2            15.2201515875       22.2612700614       10.8358483134  W2        7330            0.0000000000
     13952      4651  TIP3      H1             14.6657815875       21.8650700614       10.1635983134  W2        7330            0.0000000000
     13953      4651  TIP3      H2             15.3205115875       23.1717900614       10.5581783134  W2        7330            0.0000000000
     13954      4652  TIP3      OH2            -1.0262084125       25.0458300614        9.0423583134  W2        7335            0.0000000000
     13955      4652  TIP3      H1             -0.4102184125       25.6725500614        9.4218383134  W2        7335            0.0000000000
     13956      4652  TIP3      H2             -1.8879484125       25.3618100614        9.3140083134  W2        7335            0.0000000000
     13957      4653  TIP3      OH2            10.9078815875       29.0238900614        9.1211183134  W2        7340            0.0000000000
     13958      4653  TIP3      H1             11.2611915875       28.6438700614        9.9254683134  W2        7340            0.0000000000
     13959      4653  TIP3      H2              9.9592315875       28.9303700614        9.2080483134  W2        7340            0.0000000000
     13960      4654  TIP3      OH2            15.4113215875       33.5031400614        9.3221383134  W2        7342            0.0000000000
     13961      4654  TIP3      H1             16.1551115875       34.0891900614        9.1822983134  W2        7342            0.0000000000
     13962      4654  TIP3      H2             14.7171315875       34.0717200614        9.6553783134  W2        7342            0.0000000000
     13963      4655  TIP3      OH2             4.9986615875       30.1355000614        7.5681183134  W2        7346            0.0000000000
     13964      4655  TIP3      H1              5.2376415875       29.3873100614        7.0210083134  W2        7346            0.0000000000
     13965      4655  TIP3      H2              4.7297915875       29.7476700614        8.4008983134  W2        7346            0.0000000000
     13966      4656  TIP3      OH2             3.9357215875       29.7058800614       10.0243783134  W2        7347            0.0000000000
     13967      4656  TIP3      H1              4.0825215875       29.1858600614       10.8144683134  W2        7347            0.0000000000
     13968      4656  TIP3      H2              3.9328915875       30.6126400614       10.3309683134  W2        7347            0.0000000000
     13969      4657  TIP3      OH2             0.3888315875       26.9582100614       10.5349183134  W2        7348            0.0000000000
     13970      4657  TIP3      H1             -0.2972384125       27.3104600614       11.1018883134  W2        7348            0.0000000000
     13971      4657  TIP3      H2              0.9116215875       27.7211700614       10.2883483134  W2        7348            0.0000000000
     13972      4658  TIP3      OH2             6.6734415875       31.4032400614       10.7737983134  W2        7351            0.0000000000
     13973      4658  TIP3      H1              5.8570515875       31.9002100614       10.8262283134  W2        7351            0.0000000000
     13974      4658  TIP3      H2              7.2030715875       31.8785900614       10.1336783134  W2        7351            0.0000000000
     13975      4659  TIP3      OH2             4.0117515875       32.4469600614       10.7554883134  W2        7355            0.0000000000
     13976      4659  TIP3      H1              4.1726215875       33.2467100614       10.2547483134  W2        7355            0.0000000000
     13977      4659  TIP3      H2              3.8145315875       32.7535600614       11.6405483134  W2        7355            0.0000000000
     13978      4660  TIP3      OH2             2.7461915875       19.1448800614       10.3712483134  W2        7356            0.0000000000
     13979      4660  TIP3      H1              2.6626715875       20.0331900614       10.7178883134  W2        7356            0.0000000000
     13980      4660  TIP3      H2              3.6362215875       18.8795500614       10.6029283134  W2        7356            0.0000000000
     13981      4661  TIP3      OH2             1.0047215875       29.5721000614        9.4316983134  W2        7359            0.0000000000
     13982      4661  TIP3      H1              1.5968715875       30.2715800614        9.7079383134  W2        7359            0.0000000000
     13983      4661  TIP3      H2              1.4640215875       29.1390500614        8.7121583134  W2        7359            0.0000000000
     13984      4662  TIP3      OH2            -0.6793584125       22.2364000614        8.5476383134  W2        7360            0.0000000000
     13985      4662  TIP3      H1             -0.7240984125       23.1757100614        8.7263383134  W2        7360            0.0000000000
     13986      4662  TIP3      H2             -1.5670384125       22.0008900614        8.2778483134  W2        7360            0.0000000000
     13987      4663  TIP3      OH2             7.0368415875       31.9986400614        7.7067183134  W2        7366            0.0000000000
     13988      4663  TIP3      H1              6.3929415875       31.3675000614        8.0280883134  W2        7366            0.0000000000
     13989      4663  TIP3      H2              7.7986715875       31.4674400614        7.4750683134  W2        7366            0.0000000000
     13990      4664  TIP3      OH2            11.6411315875       31.8156300614        7.9405183134  W2        7368            0.0000000000
     13991      4664  TIP3      H1             11.9241715875       31.0211500614        8.3932083134  W2        7368            0.0000000000
     13992      4664  TIP3      H2             12.3809215875       32.0487300614        7.3796283134  W2        7368            0.0000000000
     13993      4665  TIP3      OH2             2.5958615875       27.7251200614        7.7980083134  W2        7370            0.0000000000
     13994      4665  TIP3      H1              2.6602715875       26.9310800614        8.3286483134  W2        7370            0.0000000000
     13995      4665  TIP3      H2              3.2487815875       27.6064000614        7.1082083134  W2        7370            0.0000000000
     13996      4666  TIP3      OH2             7.9482015875       28.7722900614        7.5338083134  W2        7372            0.0000000000
     13997      4666  TIP3      H1              7.6796115875       28.9525000614        8.4346983134  W2        7372            0.0000000000
     13998      4666  TIP3      H2              7.7417615875       27.8469100614        7.4023883134  W2        7372            0.0000000000
     13999      4667  TIP3      OH2             3.7452415875       25.6977400614       10.1038083134  W2        7375            0.0000000000
     14000      4667  TIP3      H1              3.2854415875       25.2135700614       10.7896583134  W2        7375            0.0000000000
     14001      4667  TIP3      H2              4.0001115875       25.0292800614        9.4678583134  W2        7375            0.0000000000
     14002      4668  TIP3      OH2             4.8162815875       23.9409200614        8.3661283134  W2        7377            0.0000000000
     14003      4668  TIP3      H1              4.6357815875       23.7860400614        7.4389583134  W2        7377            0.0000000000
     14004      4668  TIP3      H2              5.7663315875       24.0487900614        8.4109183134  W2        7377            0.0000000000
     14005      4669  TIP3      OH2            14.2061115875       26.2953400614        7.8119383134  W2        7379            0.0000000000
     14006      4669  TIP3      H1             13.9325915875       25.8708900614        6.9987683134  W2        7379            0.0000000000
     14007      4669  TIP3      H2             14.2455215875       27.2267900614        7.5949783134  W2        7379            0.0000000000
     14008      4670  TIP3      OH2             4.7134515875       34.6312900614        9.3674883134  W2        7393            0.0000000000
     14009      4670  TIP3      H1              5.6465215875       34.7891600614        9.5113283134  W2        7393            0.0000000000
     14010      4670  TIP3      H2              4.4493315875       35.3065900614        8.7426383134  W2        7393            0.0000000000
     14011      4671  TIP3      OH2            -1.7180584125       29.2676700614        8.8502983134  W2        7394            0.0000000000
     14012      4671  TIP3      H1             -0.8041384125       29.3465600614        9.1236883134  W2        7394            0.0000000000
     14013      4671  TIP3      H2             -1.7107484125       28.5806300614        8.1838583134  W2        7394            0.0000000000
     14014      4672  TIP3      OH2            15.3272615875       25.1187400614       10.0016783134  W2        7404            0.0000000000
     14015      4672  TIP3      H1             14.8053715875       25.4751500614        9.2827683134  W2        7404            0.0000000000
     14016      4672  TIP3      H2             15.2941815875       25.7935200614       10.6797683134  W2        7404            0.0000000000
     14017      4673  TIP3      OH2            13.6761615875       22.3583000614        8.5523883134  W2        7405            0.0000000000
     14018      4673  TIP3      H1             13.7726015875       23.0250000614        7.8723583134  W2        7405            0.0000000000
     14019      4673  TIP3      H2             13.5361215875       21.5429300614        8.0709383134  W2        7405            0.0000000000
     14020      4674  TIP3      OH2            12.9235415875       19.7662800614        7.6699383134  W2        7410            0.0000000000
     14021      4674  TIP3      H1             13.5341215875       19.3949600614        8.3067583134  W2        7410            0.0000000000
     14022      4674  TIP3      H2             12.0866915875       19.3449700614        7.8659383134  W2        7410            0.0000000000
     14023      4675  TIP3      OH2            15.0362115875       18.6518600614        9.2121583134  W2        7420            0.0000000000
     14024      4675  TIP3      H1             15.4484715875       17.9304300614        8.7369583134  W2        7420            0.0000000000
     14025      4675  TIP3      H2             15.7178615875       19.3213200614        9.2705883134  W2        7420            0.0000000000
     14026      4676  TIP3      OH2            -1.4064584125       16.6994000614       10.3178883134  W2        7441            0.0000000000
     14027      4676  TIP3      H1             -0.9673884125       17.3104500614        9.7262383134  W2        7441            0.0000000000
     14028      4676  TIP3      H2             -2.0402184125       17.2378100614       10.7918883134  W2        7441            0.0000000000
     14029      4677  TIP3      OH2             0.4544515875       18.6155500614        8.7602983134  W2        7446            0.0000000000
     14030      4677  TIP3      H1              0.9457915875       17.9857900614        8.2328483134  W2        7446            0.0000000000
     14031      4677  TIP3      H2              1.0780815875       18.9114900614        9.4234183134  W2        7446            0.0000000000
     14032      4678  TIP3      OH2             7.3588415875       33.8571100614        9.6130183134  W2        7448            0.0000000000
     14033      4678  TIP3      H1              8.2248615875       34.2238500614        9.4348383134  W2        7448            0.0000000000
     14034      4678  TIP3      H2              7.1121215875       33.4179100614        8.7990983134  W2        7448            0.0000000000
     14035      4679  TIP3      OH2             0.3126115875       33.5677000614        8.2406083134  W2        7452            0.0000000000
     14036      4679  TIP3      H1              0.0450715875       33.8539900614        9.1139183134  W2        7452            0.0000000000
     14037      4679  TIP3      H2              1.0838715875       33.0216200614        8.3928583134  W2        7452            0.0000000000
     14038      4680  TIP3      OH2            26.4666315875       23.7592500614        8.9635583134  W2        7485            0.0000000000
     14039      4680  TIP3      H1             27.1676215875       23.7819400614        9.6149583134  W2        7485            0.0000000000
     14040      4680  TIP3      H2             26.7689215875       23.1312200614        8.3074883134  W2        7485            0.0000000000
     14041      4681  TIP3      OH2            28.6894315875       24.6734400614       10.5617683134  W2        7494            0.0000000000
     14042      4681  TIP3      H1             29.2689815875       24.8234700614       11.3086583134  W2        7494            0.0000000000
     14043      4681  TIP3      H2             29.1034315875       25.1441800614        9.8384083134  W2        7494            0.0000000000
     14044      4682  TIP3      OH2            32.3882715875       16.4234800614       10.3747383134  W2        7498            0.0000000000
     14045      4682  TIP3      H1             31.4883415875       16.5623800614       10.6697983134  W2        7498            0.0000000000
     14046      4682  TIP3      H2             32.6401115875       17.2549400614        9.9729083134  W2        7498            0.0000000000
     14047      4683  TIP3      OH2            33.5774115875       30.7897200614        8.7511283134  W2        7500            0.0000000000
     14048      4683  TIP3      H1             33.6507615875       31.7287400614        8.9216583134  W2        7500            0.0000000000
     14049      4683  TIP3      H2             34.4829215875       30.4845800614        8.6948583134  W2        7500            0.0000000000
     14050      4684  TIP3      OH2            28.9898315875       33.5207800614        9.4142383134  W2        7507            0.0000000000
     14051      4684  TIP3      H1             29.3646715875       32.7763900614        8.9434983134  W2        7507            0.0000000000
     14052      4684  TIP3      H2             28.9942015875       33.2508400614       10.3325683134  W2        7507            0.0000000000
     14053      4685  TIP3      OH2            30.1667415875       25.7062700614        8.1915583134  W2        7514            0.0000000000
     14054      4685  TIP3      H1             30.2088215875       25.4836600614        7.2615583134  W2        7514            0.0000000000
     14055      4685  TIP3      H2             31.0159515875       26.1049800614        8.3815483134  W2        7514            0.0000000000
     14056      4686  TIP3      OH2            25.7394915875       19.5820900614        8.8618883134  W2        7515            0.0000000000
     14057      4686  TIP3      H1             25.4859715875       19.6012500614        9.7846983134  W2        7515            0.0000000000
     14058      4686  TIP3      H2             25.4827015875       18.7106300614        8.5605083134  W2        7515            0.0000000000
     14059      4687  TIP3      OH2            22.6217815875       20.0277400614        7.9629283134  W2        7522            0.0000000000
     14060      4687  TIP3      H1             22.1908515875       19.5827500614        8.6926683134  W2        7522            0.0000000000
     14061      4687  TIP3      H2             21.9036515875       20.3993700614        7.4506783134  W2        7522            0.0000000000
     14062      4688  TIP3      OH2            17.1383315875       20.5158900614       10.4388383134  W2        7524            0.0000000000
     14063      4688  TIP3      H1             17.6125015875       21.1068800614        9.8539283134  W2        7524            0.0000000000
     14064      4688  TIP3      H2             16.4209715875       21.0461800614       10.7858483134  W2        7524            0.0000000000
     14065      4689  TIP3      OH2            21.2399715875       22.8050300614        9.3453683134  W2        7530            0.0000000000
     14066      4689  TIP3      H1             20.6974815875       22.4254100614        8.6541283134  W2        7530            0.0000000000
     14067      4689  TIP3      H2             22.0734615875       22.9995000614        8.9167783134  W2        7530            0.0000000000
     14068      4690  TIP3      OH2            28.4729315875       20.1845900614        9.4804383134  W2        7538            0.0000000000
     14069      4690  TIP3      H1             27.5343515875       20.2961500614        9.3293183134  W2        7538            0.0000000000
     14070      4690  TIP3      H2             28.7701415875       21.0412800614        9.7870083134  W2        7538            0.0000000000
     14071      4691  TIP3      OH2            29.1912815875       22.0518600614       11.1411783134  W2        7540            0.0000000000
     14072      4691  TIP3      H1             30.0831815875       21.9143600614       11.4602983134  W2        7540            0.0000000000
     14073      4691  TIP3      H2             29.2476415875       22.8424700614       10.6045283134  W2        7540            0.0000000000
     14074      4692  TIP3      OH2            26.7006615875       28.8290300614       10.3066383134  W2        7542            0.0000000000
     14075      4692  TIP3      H1             26.4055015875       29.6558200614       10.6881183134  W2        7542            0.0000000000
     14076      4692  TIP3      H2             25.9976615875       28.2097200614       10.5027783134  W2        7542            0.0000000000
     14077      4693  TIP3      OH2            34.0761515875       22.2612700614       10.8358483134  W2        7546            0.0000000000
     14078      4693  TIP3      H1             33.5217815875       21.8650700614       10.1635983134  W2        7546            0.0000000000
     14079      4693  TIP3      H2             34.1765115875       23.1717900614       10.5581783134  W2        7546            0.0000000000
     14080      4694  TIP3      OH2            17.8297915875       25.0458300614        9.0423583134  W2        7551            0.0000000000
     14081      4694  TIP3      H1             18.4457815875       25.6725500614        9.4218383134  W2        7551            0.0000000000
     14082      4694  TIP3      H2             16.9680515875       25.3618100614        9.3140083134  W2        7551            0.0000000000
     14083      4695  TIP3      OH2            29.7638815875       29.0238900614        9.1211183134  W2        7556            0.0000000000
     14084      4695  TIP3      H1             30.1171915875       28.6438700614        9.9254683134  W2        7556            0.0000000000
     14085      4695  TIP3      H2             28.8152315875       28.9303700614        9.2080483134  W2        7556            0.0000000000
     14086      4696  TIP3      OH2            34.2673215875       33.5031400614        9.3221383134  W2        7558            0.0000000000
     14087      4696  TIP3      H1             35.0111115875       34.0891900614        9.1822983134  W2        7558            0.0000000000
     14088      4696  TIP3      H2             33.5731315875       34.0717200614        9.6553783134  W2        7558            0.0000000000
     14089      4697  TIP3      OH2            23.8546615875       30.1355000614        7.5681183134  W2        7562            0.0000000000
     14090      4697  TIP3      H1             24.0936415875       29.3873100614        7.0210083134  W2        7562            0.0000000000
     14091      4697  TIP3      H2             23.5857915875       29.7476700614        8.4008983134  W2        7562            0.0000000000
     14092      4698  TIP3      OH2            22.7917215875       29.7058800614       10.0243783134  W2        7563            0.0000000000
     14093      4698  TIP3      H1             22.9385215875       29.1858600614       10.8144683134  W2        7563            0.0000000000
     14094      4698  TIP3      H2             22.7888915875       30.6126400614       10.3309683134  W2        7563            0.0000000000
     14095      4699  TIP3      OH2            19.2448315875       26.9582100614       10.5349183134  W2        7564            0.0000000000
     14096      4699  TIP3      H1             18.5587615875       27.3104600614       11.1018883134  W2        7564            0.0000000000
     14097      4699  TIP3      H2             19.7676215875       27.7211700614       10.2883483134  W2        7564            0.0000000000
     14098      4700  TIP3      OH2            25.5294415875       31.4032400614       10.7737983134  W2        7567            0.0000000000
     14099      4700  TIP3      H1             24.7130515875       31.9002100614       10.8262283134  W2        7567            0.0000000000
     14100      4700  TIP3      H2             26.0590715875       31.8785900614       10.1336783134  W2        7567            0.0000000000
     14101      4701  TIP3      OH2            22.8677515875       32.4469600614       10.7554883134  W2        7571            0.0000000000
     14102      4701  TIP3      H1             23.0286215875       33.2467100614       10.2547483134  W2        7571            0.0000000000
     14103      4701  TIP3      H2             22.6705315875       32.7535600614       11.6405483134  W2        7571            0.0000000000
     14104      4702  TIP3      OH2            21.6021915875       19.1448800614       10.3712483134  W2        7572            0.0000000000
     14105      4702  TIP3      H1             21.5186715875       20.0331900614       10.7178883134  W2        7572            0.0000000000
     14106      4702  TIP3      H2             22.4922215875       18.8795500614       10.6029283134  W2        7572            0.0000000000
     14107      4703  TIP3      OH2            19.8607215875       29.5721000614        9.4316983134  W2        7575            0.0000000000
     14108      4703  TIP3      H1             20.4528715875       30.2715800614        9.7079383134  W2        7575            0.0000000000
     14109      4703  TIP3      H2             20.3200215875       29.1390500614        8.7121583134  W2        7575            0.0000000000
     14110      4704  TIP3      OH2            18.1766415875       22.2364000614        8.5476383134  W2        7576            0.0000000000
     14111      4704  TIP3      H1             18.1319015875       23.1757100614        8.7263383134  W2        7576            0.0000000000
     14112      4704  TIP3      H2             17.2889615875       22.0008900614        8.2778483134  W2        7576            0.0000000000
     14113      4705  TIP3      OH2            25.8928415875       31.9986400614        7.7067183134  W2        7582            0.0000000000
     14114      4705  TIP3      H1             25.2489415875       31.3675000614        8.0280883134  W2        7582            0.0000000000
     14115      4705  TIP3      H2             26.6546715875       31.4674400614        7.4750683134  W2        7582            0.0000000000
     14116      4706  TIP3      OH2            30.4971315875       31.8156300614        7.9405183134  W2        7584            0.0000000000
     14117      4706  TIP3      H1             30.7801715875       31.0211500614        8.3932083134  W2        7584            0.0000000000
     14118      4706  TIP3      H2             31.2369215875       32.0487300614        7.3796283134  W2        7584            0.0000000000
     14119      4707  TIP3      OH2            21.4518615875       27.7251200614        7.7980083134  W2        7586            0.0000000000
     14120      4707  TIP3      H1             21.5162715875       26.9310800614        8.3286483134  W2        7586            0.0000000000
     14121      4707  TIP3      H2             22.1047815875       27.6064000614        7.1082083134  W2        7586            0.0000000000
     14122      4708  TIP3      OH2            26.8042015875       28.7722900614        7.5338083134  W2        7588            0.0000000000
     14123      4708  TIP3      H1             26.5356115875       28.9525000614        8.4346983134  W2        7588            0.0000000000
     14124      4708  TIP3      H2             26.5977615875       27.8469100614        7.4023883134  W2        7588            0.0000000000
     14125      4709  TIP3      OH2            22.6012415875       25.6977400614       10.1038083134  W2        7591            0.0000000000
     14126      4709  TIP3      H1             22.1414415875       25.2135700614       10.7896583134  W2        7591            0.0000000000
     14127      4709  TIP3      H2             22.8561115875       25.0292800614        9.4678583134  W2        7591            0.0000000000
     14128      4710  TIP3      OH2            23.6722815875       23.9409200614        8.3661283134  W2        7593            0.0000000000
     14129      4710  TIP3      H1             23.4917815875       23.7860400614        7.4389583134  W2        7593            0.0000000000
     14130      4710  TIP3      H2             24.6223315875       24.0487900614        8.4109183134  W2        7593            0.0000000000
     14131      4711  TIP3      OH2            33.0621115875       26.2953400614        7.8119383134  W2        7595            0.0000000000
     14132      4711  TIP3      H1             32.7885915875       25.8708900614        6.9987683134  W2        7595            0.0000000000
     14133      4711  TIP3      H2             33.1015215875       27.2267900614        7.5949783134  W2        7595            0.0000000000
     14134      4712  TIP3      OH2            23.5694515875       34.6312900614        9.3674883134  W2        7609            0.0000000000
     14135      4712  TIP3      H1             24.5025215875       34.7891600614        9.5113283134  W2        7609            0.0000000000
     14136      4712  TIP3      H2             23.3053315875       35.3065900614        8.7426383134  W2        7609            0.0000000000
     14137      4713  TIP3      OH2            17.1379415875       29.2676700614        8.8502983134  W2        7610            0.0000000000
     14138      4713  TIP3      H1             18.0518615875       29.3465600614        9.1236883134  W2        7610            0.0000000000
     14139      4713  TIP3      H2             17.1452515875       28.5806300614        8.1838583134  W2        7610            0.0000000000
     14140      4714  TIP3      OH2            34.1832615875       25.1187400614       10.0016783134  W2        7620            0.0000000000
     14141      4714  TIP3      H1             33.6613715875       25.4751500614        9.2827683134  W2        7620            0.0000000000
     14142      4714  TIP3      H2             34.1501815875       25.7935200614       10.6797683134  W2        7620            0.0000000000
     14143      4715  TIP3      OH2            32.5321615875       22.3583000614        8.5523883134  W2        7621            0.0000000000
     14144      4715  TIP3      H1             32.6286015875       23.0250000614        7.8723583134  W2        7621            0.0000000000
     14145      4715  TIP3      H2             32.3921215875       21.5429300614        8.0709383134  W2        7621            0.0000000000
     14146      4716  TIP3      OH2            31.7795415875       19.7662800614        7.6699383134  W2        7626            0.0000000000
     14147      4716  TIP3      H1             32.3901215875       19.3949600614        8.3067583134  W2        7626            0.0000000000
     14148      4716  TIP3      H2             30.9426915875       19.3449700614        7.8659383134  W2        7626            0.0000000000
     14149      4717  TIP3      OH2            33.8922115875       18.6518600614        9.2121583134  W2        7636            0.0000000000
     14150      4717  TIP3      H1             34.3044715875       17.9304300614        8.7369583134  W2        7636            0.0000000000
     14151      4717  TIP3      H2             34.5738615875       19.3213200614        9.2705883134  W2        7636            0.0000000000
     14152      4718  TIP3      OH2            17.4495415875       16.6994000614       10.3178883134  W2        7657            0.0000000000
     14153      4718  TIP3      H1             17.8886115875       17.3104500614        9.7262383134  W2        7657            0.0000000000
     14154      4718  TIP3      H2             16.8157815875       17.2378100614       10.7918883134  W2        7657            0.0000000000
     14155      4719  TIP3      OH2            19.3104515875       18.6155500614        8.7602983134  W2        7662            0.0000000000
     14156      4719  TIP3      H1             19.8017915875       17.9857900614        8.2328483134  W2        7662            0.0000000000
     14157      4719  TIP3      H2             19.9340815875       18.9114900614        9.4234183134  W2        7662            0.0000000000
     14158      4720  TIP3      OH2            26.2148415875       33.8571100614        9.6130183134  W2        7664            0.0000000000
     14159      4720  TIP3      H1             27.0808615875       34.2238500614        9.4348383134  W2        7664            0.0000000000
     14160      4720  TIP3      H2             25.9681215875       33.4179100614        8.7990983134  W2        7664            0.0000000000
     14161      4721  TIP3      OH2            19.1686115875       33.5677000614        8.2406083134  W2        7668            0.0000000000
     14162      4721  TIP3      H1             18.9010715875       33.8539900614        9.1139183134  W2        7668            0.0000000000
     14163      4721  TIP3      H2             19.9398715875       33.0216200614        8.3928583134  W2        7668            0.0000000000
     14164      4722  TIP3      OH2            35.9943315875       20.5158900614       10.4388383134  W2        7694            0.0000000000
     14165      4722  TIP3      H1             36.4685015875       21.1068800614        9.8539283134  W2        7694            0.0000000000
     14166      4722  TIP3      H2             35.2769715875       21.0461800614       10.7858483134  W2        7694            0.0000000000
     14167      4723  TIP3      OH2            40.0959715875       22.8050300614        9.3453683134  W2        7696            0.0000000000
     14168      4723  TIP3      H1             39.5534815875       22.4254100614        8.6541283134  W2        7696            0.0000000000
     14169      4723  TIP3      H2             40.9294615875       22.9995000614        8.9167783134  W2        7696            0.0000000000
     14170      4724  TIP3      OH2            36.6857915875       25.0458300614        9.0423583134  W2        7701            0.0000000000
     14171      4724  TIP3      H1             37.3017815875       25.6725500614        9.4218383134  W2        7701            0.0000000000
     14172      4724  TIP3      H2             35.8240515875       25.3618100614        9.3140083134  W2        7701            0.0000000000
     14173      4725  TIP3      OH2            38.1008315875       26.9582100614       10.5349183134  W2        7704            0.0000000000
     14174      4725  TIP3      H1             37.4147615875       27.3104600614       11.1018883134  W2        7704            0.0000000000
     14175      4725  TIP3      H2             38.6236215875       27.7211700614       10.2883483134  W2        7704            0.0000000000
     14176      4726  TIP3      OH2            40.4581915875       19.1448800614       10.3712483134  W2        7705            0.0000000000
     14177      4726  TIP3      H1             40.3746715875       20.0331900614       10.7178883134  W2        7705            0.0000000000
     14178      4726  TIP3      H2             41.3482215875       18.8795500614       10.6029283134  W2        7705            0.0000000000
     14179      4727  TIP3      OH2            38.7167215875       29.5721000614        9.4316983134  W2        7706            0.0000000000
     14180      4727  TIP3      H1             39.3088715875       30.2715800614        9.7079383134  W2        7706            0.0000000000
     14181      4727  TIP3      H2             39.1760215875       29.1390500614        8.7121583134  W2        7706            0.0000000000
     14182      4728  TIP3      OH2            37.0326415875       22.2364000614        8.5476383134  W2        7707            0.0000000000
     14183      4728  TIP3      H1             36.9879015875       23.1757100614        8.7263383134  W2        7707            0.0000000000
     14184      4728  TIP3      H2             36.1449615875       22.0008900614        8.2778483134  W2        7707            0.0000000000
     14185      4729  TIP3      OH2            40.3078615875       27.7251200614        7.7980083134  W2        7712            0.0000000000
     14186      4729  TIP3      H1             40.3722715875       26.9310800614        8.3286483134  W2        7712            0.0000000000
     14187      4729  TIP3      H2             40.9607815875       27.6064000614        7.1082083134  W2        7712            0.0000000000
     14188      4730  TIP3      OH2            35.9939415875       29.2676700614        8.8502983134  W2        7716            0.0000000000
     14189      4730  TIP3      H1             36.9078615875       29.3465600614        9.1236883134  W2        7716            0.0000000000
     14190      4730  TIP3      H2             36.0012515875       28.5806300614        8.1838583134  W2        7716            0.0000000000
     14191      4731  TIP3      OH2            36.3055415875       16.6994000614       10.3178883134  W2        7732            0.0000000000
     14192      4731  TIP3      H1             36.7446115875       17.3104500614        9.7262383134  W2        7732            0.0000000000
     14193      4731  TIP3      H2             35.6717815875       17.2378100614       10.7918883134  W2        7732            0.0000000000
     14194      4732  TIP3      OH2            38.1664515875       18.6155500614        8.7602983134  W2        7734            0.0000000000
     14195      4732  TIP3      H1             38.6577915875       17.9857900614        8.2328483134  W2        7734            0.0000000000
     14196      4732  TIP3      H2             38.7900815875       18.9114900614        9.4234183134  W2        7734            0.0000000000
     14197      4733  TIP3      OH2            38.0246115875       33.5677000614        8.2406083134  W2        7737            0.0000000000
     14198      4733  TIP3      H1             37.7570715875       33.8539900614        9.1139183134  W2        7737            0.0000000000
     14199      4733  TIP3      H2             38.7958715875       33.0216200614        8.3928583134  W2        7737            0.0000000000
     14200      4734  TIP3      OH2           -24.1797284125       35.2794800614       10.3747383134  W2        7747            0.0000000000
     14201      4734  TIP3      H1            -25.0796584125       35.4183800614       10.6697983134  W2        7747            0.0000000000
     14202      4734  TIP3      H2            -23.9278884125       36.1109400614        9.9729083134  W2        7747            0.0000000000
     14203      4735  TIP3      OH2           -30.8285084125       38.4380900614        8.8618883134  W2        7751            0.0000000000
     14204      4735  TIP3      H1            -31.0820284125       38.4572500614        9.7846983134  W2        7751            0.0000000000
     14205      4735  TIP3      H2            -31.0852984125       37.5666300614        8.5605083134  W2        7751            0.0000000000
     14206      4736  TIP3      OH2           -33.9462184125       38.8837400614        7.9629283134  W2        7752            0.0000000000
     14207      4736  TIP3      H1            -34.3771484125       38.4387500614        8.6926683134  W2        7752            0.0000000000
     14208      4736  TIP3      H2            -34.6643484125       39.2553700614        7.4506783134  W2        7752            0.0000000000
     14209      4737  TIP3      OH2           -39.4296684125       39.3718900614       10.4388383134  W2        7754            0.0000000000
     14210      4737  TIP3      H1            -38.9554984125       39.9628800614        9.8539283134  W2        7754            0.0000000000
     14211      4737  TIP3      H2            -40.1470284125       39.9021800614       10.7858483134  W2        7754            0.0000000000
     14212      4738  TIP3      OH2           -28.0950684125       39.0405900614        9.4804383134  W2        7761            0.0000000000
     14213      4738  TIP3      H1            -29.0336484125       39.1521500614        9.3293183134  W2        7761            0.0000000000
     14214      4738  TIP3      H2            -27.7978584125       39.8972800614        9.7870083134  W2        7761            0.0000000000
     14215      4739  TIP3      OH2           -34.9658084125       38.0008800614       10.3712483134  W2        7768            0.0000000000
     14216      4739  TIP3      H1            -35.0493284125       38.8891900614       10.7178883134  W2        7768            0.0000000000
     14217      4739  TIP3      H2            -34.0757784125       37.7355500614       10.6029283134  W2        7768            0.0000000000
     14218      4740  TIP3      OH2           -24.7884584125       38.6222800614        7.6699383134  W2        7780            0.0000000000
     14219      4740  TIP3      H1            -24.1778784125       38.2509600614        8.3067583134  W2        7780            0.0000000000
     14220      4740  TIP3      H2            -25.6253084125       38.2009700614        7.8659383134  W2        7780            0.0000000000
     14221      4741  TIP3      OH2           -22.6757884125       37.5078600614        9.2121583134  W2        7788            0.0000000000
     14222      4741  TIP3      H1            -22.2635284125       36.7864300614        8.7369583134  W2        7788            0.0000000000
     14223      4741  TIP3      H2            -21.9941384125       38.1773200614        9.2705883134  W2        7788            0.0000000000
     14224      4742  TIP3      OH2           -39.1184584125       35.5554000614       10.3178883134  W2        7796            0.0000000000
     14225      4742  TIP3      H1            -38.6793884125       36.1664500614        9.7262383134  W2        7796            0.0000000000
     14226      4742  TIP3      H2            -39.7522184125       36.0938100614       10.7918883134  W2        7796            0.0000000000
     14227      4743  TIP3      OH2           -37.2575484125       37.4715500614        8.7602983134  W2        7800            0.0000000000
     14228      4743  TIP3      H1            -36.7662084125       36.8417900614        8.2328483134  W2        7800            0.0000000000
     14229      4743  TIP3      H2            -36.6339184125       37.7674900614        9.4234183134  W2        7800            0.0000000000
     14230      4744  TIP3      OH2            -5.3237284125       35.2794800614       10.3747383134  W2        7814            0.0000000000
     14231      4744  TIP3      H1             -6.2236584125       35.4183800614       10.6697983134  W2        7814            0.0000000000
     14232      4744  TIP3      H2             -5.0718884125       36.1109400614        9.9729083134  W2        7814            0.0000000000
     14233      4745  TIP3      OH2           -11.9725084125       38.4380900614        8.8618883134  W2        7818            0.0000000000
     14234      4745  TIP3      H1            -12.2260284125       38.4572500614        9.7846983134  W2        7818            0.0000000000
     14235      4745  TIP3      H2            -12.2292984125       37.5666300614        8.5605083134  W2        7818            0.0000000000
     14236      4746  TIP3      OH2           -15.0902184125       38.8837400614        7.9629283134  W2        7819            0.0000000000
     14237      4746  TIP3      H1            -15.5211484125       38.4387500614        8.6926683134  W2        7819            0.0000000000
     14238      4746  TIP3      H2            -15.8083484125       39.2553700614        7.4506783134  W2        7819            0.0000000000
     14239      4747  TIP3      OH2           -20.5736684125       39.3718900614       10.4388383134  W2        7821            0.0000000000
     14240      4747  TIP3      H1            -20.0994984125       39.9628800614        9.8539283134  W2        7821            0.0000000000
     14241      4747  TIP3      H2            -21.2910284125       39.9021800614       10.7858483134  W2        7821            0.0000000000
     14242      4748  TIP3      OH2            -9.2390684125       39.0405900614        9.4804383134  W2        7828            0.0000000000
     14243      4748  TIP3      H1            -10.1776484125       39.1521500614        9.3293183134  W2        7828            0.0000000000
     14244      4748  TIP3      H2             -8.9418584125       39.8972800614        9.7870083134  W2        7828            0.0000000000
     14245      4749  TIP3      OH2           -16.1098084125       38.0008800614       10.3712483134  W2        7835            0.0000000000
     14246      4749  TIP3      H1            -16.1933284125       38.8891900614       10.7178883134  W2        7835            0.0000000000
     14247      4749  TIP3      H2            -15.2197784125       37.7355500614       10.6029283134  W2        7835            0.0000000000
     14248      4750  TIP3      OH2            -5.9324584125       38.6222800614        7.6699383134  W2        7847            0.0000000000
     14249      4750  TIP3      H1             -5.3218784125       38.2509600614        8.3067583134  W2        7847            0.0000000000
     14250      4750  TIP3      H2             -6.7693084125       38.2009700614        7.8659383134  W2        7847            0.0000000000
     14251      4751  TIP3      OH2            -3.8197884125       37.5078600614        9.2121583134  W2        7855            0.0000000000
     14252      4751  TIP3      H1             -3.4075284125       36.7864300614        8.7369583134  W2        7855            0.0000000000
     14253      4751  TIP3      H2             -3.1381384125       38.1773200614        9.2705883134  W2        7855            0.0000000000
     14254      4752  TIP3      OH2           -20.2624584125       35.5554000614       10.3178883134  W2        7863            0.0000000000
     14255      4752  TIP3      H1            -19.8233884125       36.1664500614        9.7262383134  W2        7863            0.0000000000
     14256      4752  TIP3      H2            -20.8962184125       36.0938100614       10.7918883134  W2        7863            0.0000000000
     14257      4753  TIP3      OH2           -18.4015484125       37.4715500614        8.7602983134  W2        7867            0.0000000000
     14258      4753  TIP3      H1            -17.9102084125       36.8417900614        8.2328483134  W2        7867            0.0000000000
     14259      4753  TIP3      H2            -17.7779184125       37.7674900614        9.4234183134  W2        7867            0.0000000000
     14260      4754  TIP3      OH2            13.5322715875       35.2794800614       10.3747383134  W2        7881            0.0000000000
     14261      4754  TIP3      H1             12.6323415875       35.4183800614       10.6697983134  W2        7881            0.0000000000
     14262      4754  TIP3      H2             13.7841115875       36.1109400614        9.9729083134  W2        7881            0.0000000000
     14263      4755  TIP3      OH2             6.8834915875       38.4380900614        8.8618883134  W2        7885            0.0000000000
     14264      4755  TIP3      H1              6.6299715875       38.4572500614        9.7846983134  W2        7885            0.0000000000
     14265      4755  TIP3      H2              6.6267015875       37.5666300614        8.5605083134  W2        7885            0.0000000000
     14266      4756  TIP3      OH2             3.7657815875       38.8837400614        7.9629283134  W2        7886            0.0000000000
     14267      4756  TIP3      H1              3.3348515875       38.4387500614        8.6926683134  W2        7886            0.0000000000
     14268      4756  TIP3      H2              3.0476515875       39.2553700614        7.4506783134  W2        7886            0.0000000000
     14269      4757  TIP3      OH2            -1.7176684125       39.3718900614       10.4388383134  W2        7888            0.0000000000
     14270      4757  TIP3      H1             -1.2434984125       39.9628800614        9.8539283134  W2        7888            0.0000000000
     14271      4757  TIP3      H2             -2.4350284125       39.9021800614       10.7858483134  W2        7888            0.0000000000
     14272      4758  TIP3      OH2             9.6169315875       39.0405900614        9.4804383134  W2        7895            0.0000000000
     14273      4758  TIP3      H1              8.6783515875       39.1521500614        9.3293183134  W2        7895            0.0000000000
     14274      4758  TIP3      H2              9.9141415875       39.8972800614        9.7870083134  W2        7895            0.0000000000
     14275      4759  TIP3      OH2             2.7461915875       38.0008800614       10.3712483134  W2        7902            0.0000000000
     14276      4759  TIP3      H1              2.6626715875       38.8891900614       10.7178883134  W2        7902            0.0000000000
     14277      4759  TIP3      H2              3.6362215875       37.7355500614       10.6029283134  W2        7902            0.0000000000
     14278      4760  TIP3      OH2            12.9235415875       38.6222800614        7.6699383134  W2        7914            0.0000000000
     14279      4760  TIP3      H1             13.5341215875       38.2509600614        8.3067583134  W2        7914            0.0000000000
     14280      4760  TIP3      H2             12.0866915875       38.2009700614        7.8659383134  W2        7914            0.0000000000
     14281      4761  TIP3      OH2            15.0362115875       37.5078600614        9.2121583134  W2        7922            0.0000000000
     14282      4761  TIP3      H1             15.4484715875       36.7864300614        8.7369583134  W2        7922            0.0000000000
     14283      4761  TIP3      H2             15.7178615875       38.1773200614        9.2705883134  W2        7922            0.0000000000
     14284      4762  TIP3      OH2            -1.4064584125       35.5554000614       10.3178883134  W2        7930            0.0000000000
     14285      4762  TIP3      H1             -0.9673884125       36.1664500614        9.7262383134  W2        7930            0.0000000000
     14286      4762  TIP3      H2             -2.0402184125       36.0938100614       10.7918883134  W2        7930            0.0000000000
     14287      4763  TIP3      OH2             0.4544515875       37.4715500614        8.7602983134  W2        7934            0.0000000000
     14288      4763  TIP3      H1              0.9457915875       36.8417900614        8.2328483134  W2        7934            0.0000000000
     14289      4763  TIP3      H2              1.0780815875       37.7674900614        9.4234183134  W2        7934            0.0000000000
     14290      4764  TIP3      OH2            32.3882715875       35.2794800614       10.3747383134  W2        7948            0.0000000000
     14291      4764  TIP3      H1             31.4883415875       35.4183800614       10.6697983134  W2        7948            0.0000000000
     14292      4764  TIP3      H2             32.6401115875       36.1109400614        9.9729083134  W2        7948            0.0000000000
     14293      4765  TIP3      OH2            25.7394915875       38.4380900614        8.8618883134  W2        7952            0.0000000000
     14294      4765  TIP3      H1             25.4859715875       38.4572500614        9.7846983134  W2        7952            0.0000000000
     14295      4765  TIP3      H2             25.4827015875       37.5666300614        8.5605083134  W2        7952            0.0000000000
     14296      4766  TIP3      OH2            22.6217815875       38.8837400614        7.9629283134  W2        7953            0.0000000000
     14297      4766  TIP3      H1             22.1908515875       38.4387500614        8.6926683134  W2        7953            0.0000000000
     14298      4766  TIP3      H2             21.9036515875       39.2553700614        7.4506783134  W2        7953            0.0000000000
     14299      4767  TIP3      OH2            17.1383315875       39.3718900614       10.4388383134  W2        7955            0.0000000000
     14300      4767  TIP3      H1             17.6125015875       39.9628800614        9.8539283134  W2        7955            0.0000000000
     14301      4767  TIP3      H2             16.4209715875       39.9021800614       10.7858483134  W2        7955            0.0000000000
     14302      4768  TIP3      OH2            28.4729315875       39.0405900614        9.4804383134  W2        7962            0.0000000000
     14303      4768  TIP3      H1             27.5343515875       39.1521500614        9.3293183134  W2        7962            0.0000000000
     14304      4768  TIP3      H2             28.7701415875       39.8972800614        9.7870083134  W2        7962            0.0000000000
     14305      4769  TIP3      OH2            21.6021915875       38.0008800614       10.3712483134  W2        7969            0.0000000000
     14306      4769  TIP3      H1             21.5186715875       38.8891900614       10.7178883134  W2        7969            0.0000000000
     14307      4769  TIP3      H2             22.4922215875       37.7355500614       10.6029283134  W2        7969            0.0000000000
     14308      4770  TIP3      OH2            31.7795415875       38.6222800614        7.6699383134  W2        7981            0.0000000000
     14309      4770  TIP3      H1             32.3901215875       38.2509600614        8.3067583134  W2        7981            0.0000000000
     14310      4770  TIP3      H2             30.9426915875       38.2009700614        7.8659383134  W2        7981            0.0000000000
     14311      4771  TIP3      OH2            33.8922115875       37.5078600614        9.2121583134  W2        7989            0.0000000000
     14312      4771  TIP3      H1             34.3044715875       36.7864300614        8.7369583134  W2        7989            0.0000000000
     14313      4771  TIP3      H2             34.5738615875       38.1773200614        9.2705883134  W2        7989            0.0000000000
     14314      4772  TIP3      OH2            17.4495415875       35.5554000614       10.3178883134  W2        7997            0.0000000000
     14315      4772  TIP3      H1             17.8886115875       36.1664500614        9.7262383134  W2        7997            0.0000000000
     14316      4772  TIP3      H2             16.8157815875       36.0938100614       10.7918883134  W2        7997            0.0000000000
     14317      4773  TIP3      OH2            19.3104515875       37.4715500614        8.7602983134  W2        8001            0.0000000000
     14318      4773  TIP3      H1             19.8017915875       36.8417900614        8.2328483134  W2        8001            0.0000000000
     14319      4773  TIP3      H2             19.9340815875       37.7674900614        9.4234183134  W2        8001            0.0000000000
     14320      4774  TIP3      OH2            35.9943315875       39.3718900614       10.4388383134  W2        8011            0.0000000000
     14321      4774  TIP3      H1             36.4685015875       39.9628800614        9.8539283134  W2        8011            0.0000000000
     14322      4774  TIP3      H2             35.2769715875       39.9021800614       10.7858483134  W2        8011            0.0000000000
     14323      4775  TIP3      OH2            40.4581915875       38.0008800614       10.3712483134  W2        8015            0.0000000000
     14324      4775  TIP3      H1             40.3746715875       38.8891900614       10.7178883134  W2        8015            0.0000000000
     14325      4775  TIP3      H2             41.3482215875       37.7355500614       10.6029283134  W2        8015            0.0000000000
     14326      4776  TIP3      OH2            36.3055415875       35.5554000614       10.3178883134  W2        8023            0.0000000000
     14327      4776  TIP3      H1             36.7446115875       36.1664500614        9.7262383134  W2        8023            0.0000000000
     14328      4776  TIP3      H2             35.6717815875       36.0938100614       10.7918883134  W2        8023            0.0000000000
     14329      4777  TIP3      OH2            38.1664515875       37.4715500614        8.7602983134  W2        8024            0.0000000000
     14330      4777  TIP3      H1             38.6577915875       36.8417900614        8.2328483134  W2        8024            0.0000000000
     14331      4777  TIP3      H2             38.7900815875       37.7674900614        9.4234183134  W2        8024            0.0000000000
